<event>
 7    1  0.6330892E-006  0.4304194E+02  0.7818608E-02  0.1515004E+00
          2   -1    0    0  502    0  0.00000000000E+00  0.00000000000E+00  0.38645575134E+03  0.38645575134E+03  0.00000000000E+00 0. -1.
          1   -1    0    0  501    0 -0.00000000000E+00 -0.00000000000E+00 -0.10273213506E+03  0.10273213506E+03  0.00000000000E+00 0. -1.
         25    2    1    2    0    0 -0.13422190279E+02 -0.45310048616E+01  0.38223386454E+02  0.13147776699E+03  0.12499876297E+03 0.  0.
          2    1    1    2  501    0  0.45331375147E+02 -0.11036414445E+02 -0.45134841656E+02  0.64914481804E+02  0.00000000000E+00 0. -1.
          1    1    1    2  502    0 -0.31909184868E+02  0.15567419306E+02  0.29063507149E+03  0.29279563761E+03  0.00000000000E+00 0. -1.
         22    1    3    3    0    0 -0.17347854983E+02 -0.41587078276E+02 -0.29725522126E+02  0.53981847113E+02  0.00000000000E+00 0.  1.
         22    1    3    3    0    0  0.39256647038E+01  0.37056073414E+02  0.67948908580E+02  0.77495919876E+02  0.00000000000E+00 0.  1.
</event>
<event>
 7    1  0.6330892E-006  0.5279236E+02  0.7818608E-02  0.1476330E+00
          2   -1    0    0  502    0  0.00000000000E+00  0.00000000000E+00  0.14330536651E+04  0.14330536651E+04  0.00000000000E+00 0. -1.
          1   -1    0    0  501    0 -0.00000000000E+00 -0.00000000000E+00 -0.10395661314E+03  0.10395661314E+03  0.00000000000E+00 0. -1.
         25    2    1    2    0    0 -0.27982918029E+02  0.65577893642E+02  0.76989214713E+03  0.78322771354E+03  0.12501291613E+03 0.  0.
          2    1    1    2  501    0 -0.13425256624E+02 -0.35356360914E+02 -0.92568532382E+02  0.99996214728E+02  0.00000000000E+00 0. -1.
          1    1    1    2  502    0  0.41408174652E+02 -0.30221532727E+02  0.65177343720E+03  0.65378634997E+03  0.00000000000E+00 0. -1.
         22    1    3    3    0    0 -0.11966702039E+02  0.63224113665E+02  0.15118521032E+03  0.16430903300E+03  0.00000000000E+00 0. -1.
         22    1    3    3    0    0 -0.16016215990E+02  0.23537799769E+01  0.61870693682E+03  0.61891868054E+03  0.00000000000E+00 0. -1.
</event>
<event>
 7    1  0.6330892E-006  0.1200927E+03  0.7818608E-02  0.1329311E+00
          2   -1    0    0  502    0  0.00000000000E+00  0.00000000000E+00  0.14748191352E+03  0.14748191352E+03  0.00000000000E+00 0. -1.
          1   -1    0    0  501    0 -0.00000000000E+00 -0.00000000000E+00 -0.53144901008E+03  0.53144901008E+03  0.00000000000E+00 0. -1.
         25    2    1    2    0    0  0.28701929527E+01 -0.84758546188E+02 -0.38421615771E+03  0.41284180143E+03  0.12499619196E+03 0.  0.
          2    1    1    2  501    0  0.44668571920E+02 -0.28841237059E+02 -0.96034314613E+02  0.10977107021E+03  0.00000000000E+00 0. -1.
          1    1    1    2  502    0 -0.47538764873E+02  0.11359978325E+03  0.96283375767E+02  0.15631805196E+03  0.00000000000E+00 0. -1.
         22    1    3    3    0    0  0.36895576281E+02 -0.89358120353E+02 -0.16728967836E+03  0.19321488998E+03  0.00000000000E+00 0.  1.
         22    1    3    3    0    0 -0.34025383329E+02  0.45995741649E+01 -0.21692647935E+03  0.21962691146E+03  0.00000000000E+00 0.  1.
</event>
<event>
 7    1  0.6330892E-006  0.6497876E+02  0.7818608E-02  0.1525021E+00
          2   -1    0    0  502    0  0.00000000000E+00  0.00000000000E+00  0.12905074952E+04  0.12905074952E+04  0.00000000000E+00 0. -1.
          1   -1    0    0  501    0 -0.00000000000E+00 -0.00000000000E+00 -0.52842737517E+03  0.52842737517E+03  0.00000000000E+00 0. -1.
         25    2    1    2    0    0  0.12187445340E+02  0.57444164691E+02  0.32252956894E+02  0.14181865754E+03  0.12499564999E+03 0.  0.
          2    1    1    2  501    0 -0.34104192874E+02 -0.55599307572E+02 -0.47129781476E+03  0.47578987922E+03  0.00000000000E+00 0. -1.
          1    1    1    2  502    0  0.21916747534E+02 -0.18448571188E+01  0.12011249779E+04  0.12013263336E+04  0.00000000000E+00 0. -1.
         22    1    3    3    0    0  0.77489204789E+00 -0.26583271283E+02 -0.27365577214E+02  0.38159475705E+02  0.00000000000E+00 0.  1.
         22    1    3    3    0    0  0.11412553292E+02  0.84027435974E+02  0.59618534108E+02  0.10365918183E+03  0.00000000000E+00 0.  1.
</event>
<event>
 7    1  0.6465214E-006  0.6711536E+02  0.7818608E-02  0.1401983E+00
          2   -1    0    0  502    0  0.00000000000E+00  0.00000000000E+00  0.11074778485E+04  0.11074778485E+04  0.00000000000E+00 0. -1.
          1   -1    0    0  501    0 -0.00000000000E+00 -0.00000000000E+00 -0.25226071890E+04  0.25226071890E+04  0.00000000000E+00 0. -1.
         25    2    1    2    0    0 -0.51984225670E+02  0.83605044364E+02 -0.25411955188E+03  0.29982155407E+03  0.12499621785E+03 0.  0.
          2    1    1    2  501    0  0.29314373781E+01 -0.66637622916E+02 -0.22445199360E+04  0.22455108348E+04  0.00000000000E+00 0. -1.
          1    1    1    2  502    0  0.49052788292E+02 -0.16967421447E+02  0.10835101473E+04  0.10847526487E+04  0.00000000000E+00 0. -1.
         22    1    3    3    0    0 -0.24436712852E+02  0.57115753234E+02 -0.24077336623E+02  0.66626423748E+02  0.00000000000E+00 0.  1.
         22    1    3    3    0    0 -0.27547512819E+02  0.26489291129E+02 -0.23004221525E+03  0.23319513032E+03  0.00000000000E+00 0.  1.
</event>
<event>
 7    1  0.6330892E-006  0.8659626E+02  0.7818608E-02  0.1335538E+00
          2   -1    0    0  502    0  0.00000000000E+00  0.00000000000E+00  0.13664979019E+04  0.13664979019E+04  0.00000000000E+00 0. -1.
          1   -1    0    0  501    0 -0.00000000000E+00 -0.00000000000E+00 -0.13419338789E+04  0.13419338789E+04  0.00000000000E+00 0. -1.
         25    2    1    2    0    0 -0.78244904835E+02 -0.71264084561E+02  0.28570173397E+03  0.32932949695E+03  0.12502640475E+03 0.  0.
          2    1    1    2  501    0  0.68162954347E+02 -0.15125338298E+02 -0.13174081202E+04  0.13192570331E+04  0.00000000000E+00 0. -1.
          1    1    1    2  502    0  0.10081950488E+02  0.86389422859E+02  0.10562704093E+04  0.10598452508E+04  0.00000000000E+00 0. -1.
         22    1    3    3    0    0 -0.12384087095E+02 -0.18138092030E+02  0.22283541172E+03  0.22391511050E+03  0.00000000000E+00 0.  1.
         22    1    3    3    0    0 -0.65860817740E+02 -0.53125992531E+02  0.62866322251E+02  0.10541438644E+03  0.00000000000E+00 0.  1.
</event>
<event>
 7    1  0.6330892E-006  0.4855429E+02  0.7818608E-02  0.1513918E+00
          2   -1    0    0  502    0  0.00000000000E+00  0.00000000000E+00  0.23664001097E+03  0.23664001097E+03  0.00000000000E+00 0. -1.
          1   -1    0    0  501    0 -0.00000000000E+00 -0.00000000000E+00 -0.13074914122E+04  0.13074914122E+04  0.00000000000E+00 0. -1.
         25    2    1    2    0    0 -0.83329782546E+01 -0.24335214321E+02  0.93454940659E+02  0.15817981667E+03  0.12500154913E+03 0.  0.
          2    1    1    2  501    0 -0.27905795773E+02 -0.15047587711E+02 -0.12684579818E+04  0.12688541346E+04  0.00000000000E+00 0. -1.
          1    1    1    2  502    0  0.36238774028E+02  0.39382802032E+02  0.10415163989E+03  0.11709747192E+03  0.00000000000E+00 0. -1.
         22    1    3    3    0    0  0.10548915684E+02 -0.68729731266E+02  0.23890989270E+02  0.73524383373E+02  0.00000000000E+00 0.  1.
         22    1    3    3    0    0 -0.18881893938E+02  0.44394516945E+02  0.69563951388E+02  0.84655433295E+02  0.00000000000E+00 0.  1.
</event>
<event>
 7    1  0.6330892E-006  0.8745739E+02  0.7818608E-02  0.1341916E+00
          2   -1    0    0  502    0  0.00000000000E+00  0.00000000000E+00  0.18847659681E+04  0.18847659681E+04  0.00000000000E+00 0. -1.
          1   -1    0    0  501    0 -0.00000000000E+00 -0.00000000000E+00 -0.10899603056E+04  0.10899603056E+04  0.00000000000E+00 0. -1.
         25    2    1    2    0    0 -0.44840900901E+02  0.13057903192E+03  0.59998018844E+02  0.19566791701E+03  0.12499832604E+03 0.  0.
          2    1    1    2  501    0 -0.11351832506E+02 -0.64417943627E+02 -0.10200049687E+04  0.10221001281E+04  0.00000000000E+00 0. -1.
          1    1    1    2  502    0  0.56192733407E+02 -0.66161088291E+02  0.17548126124E+04  0.17569582287E+04  0.00000000000E+00 0. -1.
         22    1    3    3    0    0  0.19290942916E+02  0.92628920445E+02  0.73657776352E+02  0.11990715324E+03  0.00000000000E+00 0.  1.
         22    1    3    3    0    0 -0.64131843816E+02  0.37950111474E+02 -0.13659757508E+02  0.75760763772E+02  0.00000000000E+00 0.  1.
</event>
<event>
 7    1  0.6330892E-006  0.9616079E+02  0.7818608E-02  0.1366347E+00
          2   -1    0    0  502    0  0.00000000000E+00  0.00000000000E+00  0.33294848569E+03  0.33294848569E+03  0.00000000000E+00 0. -1.
          1   -1    0    0  501    0 -0.00000000000E+00 -0.00000000000E+00 -0.19363292181E+03  0.19363292181E+03  0.00000000000E+00 0. -1.
         25    2    1    2    0    0 -0.93666786391E+02  0.13040330109E+02 -0.54597996571E+02  0.16598154762E+03  0.12500166334E+03 0.  0.
          2    1    1    2  501    0  0.30981949493E+01 -0.48260556258E+02 -0.66741156236E+02  0.82420034203E+02  0.00000000000E+00 0. -1.
          1    1    1    2  502    0  0.90568591441E+02  0.35220226149E+02  0.26065471668E+03  0.27817982568E+03  0.00000000000E+00 0. -1.
         22    1    3    3    0    0 -0.12032003054E+02 -0.28067540662E+02 -0.67107195020E+02  0.73728770231E+02  0.00000000000E+00 0. -1.
         22    1    3    3    0    0 -0.81634783336E+02  0.41107870771E+02  0.12509198449E+02  0.92252777387E+02  0.00000000000E+00 0. -1.
</event>
<event>
 7    1  0.6330892E-006  0.4999574E+02  0.7818608E-02  0.1462423E+00
          2   -1    0    0  502    0  0.00000000000E+00  0.00000000000E+00  0.16873997735E+03  0.16873997735E+03  0.00000000000E+00 0. -1.
          1   -1    0    0  501    0 -0.00000000000E+00 -0.00000000000E+00 -0.69387874453E+03  0.69387874453E+03  0.00000000000E+00 0. -1.
         25    2    1    2    0    0  0.20123959382E+02  0.25334279944E+02 -0.39551327083E+03  0.41605558130E+03  0.12499879941E+03 0.  0.
          2    1    1    2  501    0  0.29672126931E+02 -0.32654038991E+02 -0.28234088602E+03  0.28576755816E+03  0.00000000000E+00 0. -1.
          1    1    1    2  502    0 -0.49796086314E+02  0.73197590471E+01  0.15271538966E+03  0.16079558241E+03  0.00000000000E+00 0. -1.
         22    1    3    3    0    0  0.41706605689E+02 -0.41503371284E+02 -0.17491306818E+03  0.18454417413E+03  0.00000000000E+00 0. -1.
         22    1    3    3    0    0 -0.21582646306E+02  0.66837651227E+02 -0.22060020265E+03  0.23151140718E+03  0.00000000000E+00 0. -1.
</event>
<event>
 7    1  0.6330892E-006  0.2457029E+02  0.7818608E-02  0.1683868E+00
          2   -1    0    0  502    0  0.00000000000E+00  0.00000000000E+00  0.69874257669E+03  0.69874257669E+03  0.00000000000E+00 0. -1.
          1   -1    0    0  501    0 -0.00000000000E+00 -0.00000000000E+00 -0.10426276403E+03  0.10426276403E+03  0.00000000000E+00 0. -1.
         25    2    1    2    0    0  0.27579057747E+02  0.81689175139E+01  0.22889094654E+03  0.26237998136E+03  0.12499941429E+03 0.  0.
          2    1    1    2  501    0 -0.67434370019E+01 -0.21397972192E+02 -0.85737691545E+02  0.88624482554E+02  0.00000000000E+00 0. -1.
          1    1    1    2  502    0 -0.20835620745E+02  0.13229054678E+02  0.45132655766E+03  0.45200087680E+03  0.00000000000E+00 0. -1.
         22    1    3    3    0    0  0.69545288358E+02 -0.25010480859E+02  0.14752458131E+03  0.16500173750E+03  0.00000000000E+00 0.  1.
         22    1    3    3    0    0 -0.41966230611E+02  0.33179398373E+02  0.81366365223E+02  0.97378243862E+02  0.00000000000E+00 0.  1.
</event>
<event>
 7    1  0.6330892E-006  0.1776783E+03  0.7818608E-02  0.1290975E+00
          2   -1    0    0  502    0  0.00000000000E+00  0.00000000000E+00  0.10101006080E+03  0.10101006080E+03  0.00000000000E+00 0. -1.
          1   -1    0    0  501    0 -0.00000000000E+00 -0.00000000000E+00 -0.18219731236E+04  0.18219731236E+04  0.00000000000E+00 0. -1.
         25    2    1    2    0    0  0.41568239611E+02 -0.15916577910E+03 -0.81551767277E+02  0.22212762135E+03  0.12501330185E+03 0.  0.
          2    1    1    2  501    0 -0.12768763554E+02 -0.49261648391E+02 -0.13034623957E+04  0.13044554298E+04  0.00000000000E+00 0. -1.
          1    1    1    2  502    0 -0.28799476057E+02  0.20842742750E+03 -0.33594889981E+03  0.39640013325E+03  0.00000000000E+00 0. -1.
         22    1    3    3    0    0  0.67834370779E+02 -0.32419301687E+02 -0.15323118593E+02  0.76728814303E+02  0.00000000000E+00 0.  1.
         22    1    3    3    0    0 -0.26266131168E+02 -0.12674647742E+03 -0.66228648683E+02  0.14539880705E+03  0.00000000000E+00 0.  1.
</event>
<event>
 7    1  0.6330892E-006  0.8606386E+02  0.7818608E-02  0.1404653E+00
          2   -1    0    0  502    0  0.00000000000E+00  0.00000000000E+00  0.67598925142E+03  0.67598925142E+03  0.00000000000E+00 0. -1.
          1   -1    0    0  501    0 -0.00000000000E+00 -0.00000000000E+00 -0.20496090911E+04  0.20496090911E+04  0.00000000000E+00 0. -1.
         25    2    1    2    0    0  0.68643823806E+02 -0.99948333630E+02  0.12713682322E+03  0.21561527819E+03  0.12499812970E+03 0.  0.
          2    1    1    2  501    0 -0.35509746313E+02  0.78200229031E+02 -0.20036702832E+04  0.20055101151E+04  0.00000000000E+00 0. -1.
          1    1    1    2  502    0 -0.33134077493E+02  0.21748104599E+02  0.50291362025E+03  0.50447294930E+03  0.00000000000E+00 0. -1.
         22    1    3    3    0    0 -0.21495392385E+02 -0.58234986346E+02  0.90514943336E+02  0.10975573104E+03  0.00000000000E+00 0.  1.
         22    1    3    3    0    0  0.90139216190E+02 -0.41713347284E+02  0.36621879885E+02  0.10585954715E+03  0.00000000000E+00 0.  1.
</event>
<event>
 7    1  0.6330892E-006  0.1274611E+03  0.7818608E-02  0.1352024E+00
          2   -1    0    0  502    0  0.00000000000E+00  0.00000000000E+00  0.85853351452E+03  0.85853351452E+03  0.00000000000E+00 0. -1.
          1   -1    0    0  501    0 -0.00000000000E+00 -0.00000000000E+00 -0.80097094681E+03  0.80097094681E+03  0.00000000000E+00 0. -1.
         25    2    1    2    0    0 -0.12706890880E+03  0.59376345126E+02  0.13244237593E+03  0.22986488877E+03  0.12499930481E+03 0.  0.
          2    1    1    2  501    0  0.32723714190E+02  0.24960666600E+02 -0.74577716516E+03  0.74691194690E+03  0.00000000000E+00 0. -1.
          1    1    1    2  502    0  0.94345194612E+02 -0.84337011727E+02  0.67089735693E+03  0.68272762565E+03  0.00000000000E+00 0. -1.
         22    1    3    3    0    0 -0.89733407827E+02  0.94744656425E+02  0.11924340422E+03  0.17676997441E+03  0.00000000000E+00 0.  1.
         22    1    3    3    0    0 -0.37335500974E+02 -0.35368311299E+02  0.13198971713E+02  0.53094914365E+02  0.00000000000E+00 0.  1.
</event>
<event>
 7    1  0.6330892E-006  0.8485395E+02  0.7818608E-02  0.1418756E+00
          2   -1    0    0  502    0  0.00000000000E+00  0.00000000000E+00  0.16715288575E+03  0.16715288575E+03  0.00000000000E+00 0. -1.
          1   -1    0    0  501    0 -0.00000000000E+00 -0.00000000000E+00 -0.10966929037E+04  0.10966929037E+04  0.00000000000E+00 0. -1.
         25    2    1    2    0    0  0.53144820235E+02 -0.21760091903E+00 -0.23310572291E+03  0.26979190300E+03  0.12499989442E+03 0.  0.
          2    1    1    2  501    0 -0.88729618236E+02  0.57985479006E+01 -0.84068483877E+03  0.84537421681E+03  0.00000000000E+00 0. -1.
          1    1    1    2  502    0  0.35584798001E+02 -0.55809469816E+01  0.14425054370E+03  0.14867966968E+03  0.00000000000E+00 0. -1.
         22    1    3    3    0    0 -0.26196280384E+02 -0.25294301776E+02 -0.21204703481E+02  0.42138892463E+02  0.00000000000E+00 0. -1.
         22    1    3    3    0    0  0.79341100619E+02  0.25076700857E+02 -0.21190101943E+03  0.22765301054E+03  0.00000000000E+00 0. -1.
</event>
<event>
 7    1  0.6330892E-006  0.7926806E+02  0.7818608E-02  0.1376245E+00
          2   -1    0    0  502    0  0.00000000000E+00  0.00000000000E+00  0.20287617856E+02  0.20287617856E+02  0.00000000000E+00 0. -1.
          1   -1    0    0  501    0 -0.00000000000E+00 -0.00000000000E+00 -0.37919033211E+04  0.37919033211E+04  0.00000000000E+00 0. -1.
         25    2    1    2    0    0  0.10850553680E+03  0.17301362038E+02 -0.24233976453E+04  0.24291056050E+04  0.12500041836E+03 0.  0.
          2    1    1    2  501    0 -0.59233124064E+02 -0.39541546816E+02 -0.13203432963E+04  0.13222626505E+04  0.00000000000E+00 0. -1.
          1    1    1    2  502    0 -0.49272412734E+02  0.22240184777E+02 -0.27874761634E+02  0.60822683365E+02  0.00000000000E+00 0. -1.
         22    1    3    3    0    0  0.83697260304E+02 -0.31313884087E+02 -0.20269101762E+04  0.20288791618E+04  0.00000000000E+00 0. -1.
         22    1    3    3    0    0  0.24808276494E+02  0.48615246125E+02 -0.39648746903E+03  0.40022644320E+03  0.00000000000E+00 0. -1.
</event>
<event>
 7    1  0.6330892E-006  0.1253764E+03  0.7818608E-02  0.1272583E+00
          2   -1    0    0  502    0  0.00000000000E+00  0.00000000000E+00  0.13364429026E+04  0.13364429026E+04  0.00000000000E+00 0. -1.
          1   -1    0    0  501    0 -0.00000000000E+00 -0.00000000000E+00 -0.55065520710E+03  0.55065520710E+03  0.00000000000E+00 0. -1.
         25    2    1    2    0    0  0.10182199579E+03 -0.23733186171E+02  0.23669523878E+03  0.28736546495E+03  0.12499316555E+03 0.  0.
          2    1    1    2  501    0 -0.23142792095E+02 -0.82692782277E+02 -0.51769403645E+03  0.52476737746E+03  0.00000000000E+00 0. -1.
          1    1    1    2  502    0 -0.78679203692E+02  0.10642596845E+03  0.10667864932E+04  0.10749652673E+04  0.00000000000E+00 0. -1.
         22    1    3    3    0    0  0.97771715327E+02  0.34441748598E+02  0.16618226208E+03  0.19586241751E+03  0.00000000000E+00 0. -1.
         22    1    3    3    0    0  0.40502804605E+01 -0.58174934769E+02  0.70512976703E+02  0.91503047440E+02  0.00000000000E+00 0. -1.
</event>
<event>
 7    1  0.6330892E-006  0.1314553E+03  0.7818608E-02  0.1309315E+00
          2   -1    0    0  502    0  0.00000000000E+00  0.00000000000E+00  0.35810206744E+04  0.35810206744E+04  0.00000000000E+00 0. -1.
          1   -1    0    0  501    0 -0.00000000000E+00 -0.00000000000E+00 -0.59868055561E+02  0.59868055561E+02  0.00000000000E+00 0. -1.
         25    2    1    2    0    0 -0.15344033970E+03  0.26671846452E+02  0.73940381681E+03  0.76589731457E+03  0.12500146763E+03 0.  0.
          2    1    1    2  501    0  0.26161032589E+02 -0.51862295615E+02 -0.26429671042E+02  0.63817120305E+02  0.00000000000E+00 0. -1.
          1    1    1    2  502    0  0.12727930711E+03  0.25190449163E+02  0.28081784730E+04  0.28111742950E+04  0.00000000000E+00 0. -1.
         22    1    3    3    0    0 -0.33940597693E+02  0.63438037096E+02  0.33357619231E+03  0.34124686782E+03  0.00000000000E+00 0.  1.
         22    1    3    3    0    0 -0.11949974201E+03 -0.36766190643E+02  0.40582762451E+03  0.42465044675E+03  0.00000000000E+00 0.  1.
</event>
<event>
 7    1  0.6330892E-006  0.8247633E+02  0.7818608E-02  0.1424859E+00
          2   -1    0    0  502    0  0.00000000000E+00  0.00000000000E+00  0.21428439210E+04  0.21428439210E+04  0.00000000000E+00 0. -1.
          1   -1    0    0  501    0 -0.00000000000E+00 -0.00000000000E+00 -0.77283662676E+02  0.77283662676E+02  0.00000000000E+00 0. -1.
         25    2    1    2    0    0  0.40650322188E+02  0.66162493858E+02  0.11783361718E+03  0.18851811979E+03  0.12499758343E+03 0.  0.
          2    1    1    2  501    0  0.28591093051E+02 -0.20811583044E+02 -0.33466176138E+02  0.48688371671E+02  0.00000000000E+00 0. -1.
          1    1    1    2  502    0 -0.69241415239E+02 -0.45350910814E+02  0.19811928173E+04  0.19829210922E+04  0.00000000000E+00 0. -1.
         22    1    3    3    0    0  0.82188016581E+01  0.98825252533E+02  0.94202522406E+02  0.13677753641E+03  0.00000000000E+00 0. -1.
         22    1    3    3    0    0  0.32431520530E+02 -0.32662758675E+02  0.23631094772E+02  0.51740583378E+02  0.00000000000E+00 0. -1.
</event>
<event>
 7    1  0.6330892E-006  0.6600013E+02  0.7818608E-02  0.1482787E+00
          2   -1    0    0  502    0  0.00000000000E+00  0.00000000000E+00  0.22705451473E+03  0.22705451473E+03  0.00000000000E+00 0. -1.
          1   -1    0    0  501    0 -0.00000000000E+00 -0.00000000000E+00 -0.13717638287E+04  0.13717638287E+04  0.00000000000E+00 0. -1.
         25    2    1    2    0    0 -0.27534880097E+02  0.42244480681E+02 -0.29292579826E+03  0.32245050642E+03  0.12500416006E+03 0.  0.
          2    1    1    2  501    0  0.17138743894E+02  0.23271562367E+02 -0.10586915993E+04  0.10590860232E+04  0.00000000000E+00 0. -1.
          1    1    1    2  502    0  0.10396136202E+02 -0.65516043048E+02  0.20690808359E+03  0.21728181378E+03  0.00000000000E+00 0. -1.
         22    1    3    3    0    0 -0.30221245658E+02 -0.26147494189E+01 -0.27055593716E+03  0.27225112623E+03  0.00000000000E+00 0.  1.
         22    1    3    3    0    0  0.26863655609E+01  0.44859230100E+02 -0.22369861099E+02  0.50199380182E+02  0.00000000000E+00 0.  1.
</event>
<event>
 7    1  0.6330892E-006  0.1096958E+03  0.7818608E-02  0.1384473E+00
          2   -1    0    0  502    0  0.00000000000E+00  0.00000000000E+00  0.61024338152E+03  0.61024338152E+03  0.00000000000E+00 0. -1.
          1   -1    0    0  501    0 -0.00000000000E+00 -0.00000000000E+00 -0.52269808383E+03  0.52269808383E+03  0.00000000000E+00 0. -1.
         25    2    1    2    0    0  0.12426964286E+03 -0.61153352510E+02  0.15072365525E+03  0.23984393042E+03  0.12499925620E+03 0.  0.
          2    1    1    2  501    0 -0.10450332385E+03  0.30432799157E+02 -0.47111678593E+03  0.48352675825E+03  0.00000000000E+00 0. -1.
          1    1    1    2  502    0 -0.19766319005E+02  0.30720553353E+02  0.40793842838E+03  0.40957077668E+03  0.00000000000E+00 0. -1.
         22    1    3    3    0    0  0.62846372518E+02 -0.83762263742E+00 -0.37914676468E+01  0.62966208218E+02  0.00000000000E+00 0. -1.
         22    1    3    3    0    0  0.61423270337E+02 -0.60315729872E+02  0.15451512289E+03  0.17687772220E+03  0.00000000000E+00 0. -1.
</event>
<event>
 7    1  0.6330892E-006  0.2078360E+03  0.7818608E-02  0.1242157E+00
          2   -1    0    0  502    0  0.00000000000E+00  0.00000000000E+00  0.16859094162E+04  0.16859094162E+04  0.00000000000E+00 0. -1.
          1   -1    0    0  501    0 -0.00000000000E+00 -0.00000000000E+00 -0.96491597402E+03  0.96491597402E+03  0.00000000000E+00 0. -1.
         25    2    1    2    0    0 -0.11946931058E+03 -0.86123941263E+02  0.19213072500E+03  0.27245055603E+03  0.12499936225E+03 0.  0.
          2    1    1    2  501    0  0.14895411817E+03  0.14955265903E+03 -0.91185189993E+03  0.93596325491E+03  0.00000000000E+00 0. -1.
          1    1    1    2  502    0 -0.29484807594E+02 -0.63428717762E+02  0.14407146171E+04  0.14424115793E+04  0.00000000000E+00 0. -1.
         22    1    3    3    0    0 -0.77496114464E+01 -0.35353089964E+02 -0.85821985090E+01  0.37196123169E+02  0.00000000000E+00 0. -1.
         22    1    3    3    0    0 -0.11171969913E+03 -0.50770851299E+02  0.20071292351E+03  0.23525443286E+03  0.00000000000E+00 0. -1.
</event>
<event>
 7    1  0.6330892E-006  0.5778620E+02  0.7818608E-02  0.1478873E+00
          2   -1    0    0  502    0  0.00000000000E+00  0.00000000000E+00  0.69643411282E+03  0.69643411282E+03  0.00000000000E+00 0. -1.
          1   -1    0    0  501    0 -0.00000000000E+00 -0.00000000000E+00 -0.15225204927E+04  0.15225204927E+04  0.00000000000E+00 0. -1.
         25    2    1    2    0    0  0.22963323121E+02  0.59617154689E+02 -0.12267280274E+03  0.18643217745E+03  0.12500728344E+03 0.  0.
          2    1    1    2  501    0  0.23179247173E+02 -0.24783792251E+02 -0.13664995464E+04  0.13669208186E+04  0.00000000000E+00 0. -1.
          1    1    1    2  502    0 -0.46142570295E+02 -0.34833362439E+02  0.66308596928E+03  0.66560160951E+03  0.00000000000E+00 0. -1.
         22    1    3    3    0    0  0.33581134387E+02  0.87803873587E+02 -0.47240673486E+02  0.10520881158E+03  0.00000000000E+00 0. -1.
         22    1    3    3    0    0 -0.10617811266E+02 -0.28186718898E+02 -0.75432129255E+02  0.81223365864E+02  0.00000000000E+00 0. -1.
</event>
<event>
 7    1  0.1023748E-005  0.6107588E+02  0.7818608E-02  0.1457853E+00
          2   -1    0    0  502    0  0.00000000000E+00  0.00000000000E+00  0.12315748077E+04  0.12315748077E+04  0.00000000000E+00 0. -1.
          1   -1    0    0  501    0 -0.00000000000E+00 -0.00000000000E+00 -0.99819269732E+03  0.99819269732E+03  0.00000000000E+00 0. -1.
         25    2    1    2    0    0  0.24711158592E+02  0.62835750373E+02 -0.25777086940E+03  0.29432925628E+03  0.12499966844E+03 0.  0.
          2    1    1    2  501    0  0.25172937118E+02 -0.27573812517E+02 -0.72089028037E+03  0.72185648728E+03  0.00000000000E+00 0. -1.
          1    1    1    2  502    0 -0.49884095710E+02 -0.35261937856E+02  0.12120432601E+04  0.12135817615E+04  0.00000000000E+00 0. -1.
         22    1    3    3    0    0  0.21459094904E+02  0.42393861107E+02 -0.26733691172E+03  0.27152671431E+03  0.00000000000E+00 0. -1.
         22    1    3    3    0    0  0.32520636879E+01  0.20441889266E+02  0.95660423219E+01  0.22802541979E+02  0.00000000000E+00 0. -1.
</event>
<event>
 7    1  0.6330892E-006  0.2926278E+03  0.7818608E-02  0.1269783E+00
          2   -1    0    0  502    0  0.00000000000E+00  0.00000000000E+00  0.87296993434E+03  0.87296993434E+03  0.00000000000E+00 0. -1.
          1   -1    0    0  501    0 -0.00000000000E+00 -0.00000000000E+00 -0.28234861863E+03  0.28234861863E+03  0.00000000000E+00 0. -1.
         25    2    1    2    0    0 -0.35138676206E+02  0.27382647539E+03  0.42561107343E+03  0.52247905590E+03  0.12499565130E+03 0.  0.
          2    1    1    2  501    0 -0.64125857950E+01  0.37250691239E+02 -0.16978749854E+03  0.17394404248E+03  0.00000000000E+00 0. -1.
          1    1    1    2  502    0  0.41551262000E+02 -0.31107716663E+03  0.33479774083E+03  0.45889545458E+03  0.00000000000E+00 0. -1.
         22    1    3    3    0    0  0.46617594251E+02  0.91761212607E+02  0.15993097121E+03  0.19018737020E+03  0.00000000000E+00 0.  1.
         22    1    3    3    0    0 -0.81756270456E+02  0.18206526278E+03  0.26568010222E+03  0.33229168570E+03  0.00000000000E+00 0.  1.
</event>
<event>
 7    1  0.6330892E-006  0.6511981E+02  0.7818608E-02  0.1417867E+00
          2   -1    0    0  502    0  0.00000000000E+00  0.00000000000E+00  0.22294496037E+04  0.22294496037E+04  0.00000000000E+00 0. -1.
          1   -1    0    0  501    0 -0.00000000000E+00 -0.00000000000E+00 -0.11112057234E+03  0.11112057234E+03  0.00000000000E+00 0. -1.
         25    2    1    2    0    0  0.17556675554E+02 -0.42526004922E+02  0.16367209229E+03  0.21102336692E+03  0.12500243853E+03 0.  0.
          2    1    1    2  501    0 -0.43733825525E+02 -0.17908060871E+02 -0.80488106621E+02  0.93336388653E+02  0.00000000000E+00 0. -1.
          1    1    1    2  502    0  0.26177149971E+02  0.60434065792E+02  0.20351450457E+04  0.20362104205E+04  0.00000000000E+00 0. -1.
         22    1    3    3    0    0  0.53265511577E+02 -0.81500138093E+01  0.15032540624E+03  0.15969146880E+03  0.00000000000E+00 0.  1.
         22    1    3    3    0    0 -0.35708836023E+02 -0.34375991112E+02  0.13346686059E+02  0.51331898113E+02  0.00000000000E+00 0.  1.
</event>
<event>
 7    1  0.6330892E-006  0.2151902E+03  0.7818608E-02  0.1304872E+00
          2   -1    0    0  502    0  0.00000000000E+00  0.00000000000E+00  0.37585270694E+03  0.37585270694E+03  0.00000000000E+00 0. -1.
          1   -1    0    0  501    0 -0.00000000000E+00 -0.00000000000E+00 -0.26150153389E+04  0.26150153389E+04  0.00000000000E+00 0. -1.
         25    2    1    2    0    0  0.10317236472E+03  0.16159955689E+03 -0.70163832442E+03  0.73802737538E+03  0.12501645844E+03 0.  0.
          2    1    1    2  501    0 -0.13653105109E+03 -0.17749135423E+03 -0.18875920779E+04  0.19008281778E+04  0.00000000000E+00 0. -1.
          1    1    1    2  502    0  0.33358686379E+02  0.15891797340E+02  0.35006777036E+03  0.35201249271E+03  0.00000000000E+00 0. -1.
         22    1    3    3    0    0  0.87456050025E+02  0.80570269782E+02 -0.57283336975E+03  0.58504546708E+03  0.00000000000E+00 0. -1.
         22    1    3    3    0    0  0.15716314690E+02  0.81029287109E+02 -0.12880495468E+03  0.15298190830E+03  0.00000000000E+00 0. -1.
</event>
<event>
 7    1  0.6330892E-006  0.2941184E+03  0.7818608E-02  0.1174744E+00
          2   -1    0    0  502    0  0.00000000000E+00  0.00000000000E+00  0.15840772155E+04  0.15840772155E+04  0.00000000000E+00 0. -1.
          1   -1    0    0  501    0 -0.00000000000E+00 -0.00000000000E+00 -0.49675147440E+03  0.49675147440E+03  0.00000000000E+00 0. -1.
         25    2    1    2    0    0 -0.32330560231E+03  0.20506955680E+03  0.24083123649E+03  0.46926156484E+03  0.12500678446E+03 0.  0.
          2    1    1    2  501    0  0.23884238682E+03 -0.14829584787E+03 -0.32838427863E+03  0.43228876771E+03  0.00000000000E+00 0. -1.
          1    1    1    2  502    0  0.84463215484E+02 -0.56773708933E+02  0.11748787833E+04  0.11792783574E+04  0.00000000000E+00 0. -1.
         22    1    3    3    0    0 -0.98276893573E+02  0.92926707233E+02  0.14989822557E+03  0.20189898156E+03  0.00000000000E+00 0. -1.
         22    1    3    3    0    0 -0.22502870874E+03  0.11214284957E+03  0.90933010923E+02  0.26736258328E+03  0.00000000000E+00 0. -1.
</event>
<event>
 7    1  0.6330892E-006  0.1962019E+03  0.7818608E-02  0.1246462E+00
          2   -1    0    0  502    0  0.00000000000E+00  0.00000000000E+00  0.14460601655E+04  0.14460601655E+04  0.00000000000E+00 0. -1.
          1   -1    0    0  501    0 -0.00000000000E+00 -0.00000000000E+00 -0.18677011032E+03  0.18677011032E+03  0.00000000000E+00 0. -1.
         25    2    1    2    0    0  0.17811094645E+03 -0.14900847238E+03  0.54028596931E+03  0.60121587814E+03  0.12499827761E+03 0.  0.
          2    1    1    2  501    0 -0.93427538026E+01  0.70329431652E+02 -0.13770264197E+03  0.15490491797E+03  0.00000000000E+00 0. -1.
          1    1    1    2  502    0 -0.16876819265E+03  0.78679040732E+02  0.85670672785E+03  0.87670947973E+03  0.00000000000E+00 0. -1.
         22    1    3    3    0    0  0.68910621920E+02  0.10960662313E+02  0.15517039120E+03  0.17013718064E+03  0.00000000000E+00 0. -1.
         22    1    3    3    0    0  0.10920032453E+03 -0.15996913470E+03  0.38511557811E+03  0.43107869750E+03  0.00000000000E+00 0. -1.
</event>
<event>
 7    1  0.6330892E-006  0.7321701E+02  0.7818608E-02  0.1390096E+00
          2   -1    0    0  502    0  0.00000000000E+00  0.00000000000E+00  0.13232370763E+04  0.13232370763E+04  0.00000000000E+00 0. -1.
          1   -1    0    0  501    0 -0.00000000000E+00 -0.00000000000E+00 -0.39277413833E+03  0.39277413833E+03  0.00000000000E+00 0. -1.
         25    2    1    2    0    0  0.18314766567E+02  0.11703423793E+03  0.75818988430E+02  0.18816479095E+03  0.12500010410E+03 0.  0.
          2    1    1    2  501    0  0.76031545328E+01 -0.71604223113E+02 -0.33216768494E+03  0.33988283811E+03  0.00000000000E+00 0. -1.
          1    1    1    2  502    0 -0.25917921099E+02 -0.45430014815E+02  0.11868116345E+04  0.11879635856E+04  0.00000000000E+00 0. -1.
         22    1    3    3    0    0 -0.54730936263E+01  0.12662025084E+03  0.93083248015E+02  0.15724863668E+03  0.00000000000E+00 0. -1.
         22    1    3    3    0    0  0.23787860193E+02 -0.95860129107E+01 -0.17264259585E+02  0.30916154274E+02  0.00000000000E+00 0. -1.
</event>
<event>
 7    1  0.6330892E-006  0.6264211E+02  0.7818608E-02  0.1543485E+00
          2   -1    0    0  502    0  0.00000000000E+00  0.00000000000E+00  0.21837727139E+04  0.21837727139E+04  0.00000000000E+00 0. -1.
          1   -1    0    0  501    0 -0.00000000000E+00 -0.00000000000E+00 -0.40310715921E+02  0.40310715921E+02  0.00000000000E+00 0. -1.
         25    2    1    2    0    0 -0.45772449241E+02  0.35567513857E+02  0.10239830899E+04  0.10332116546E+04  0.12499915859E+03 0.  0.
          2    1    1    2  501    0  0.34642328959E+02 -0.52439232703E+02 -0.78718862014E+01  0.63339803240E+02  0.00000000000E+00 0. -1.
          1    1    1    2  502    0  0.11130120283E+02  0.16871718846E+02  0.11273507943E+04  0.11275319720E+04  0.00000000000E+00 0. -1.
         22    1    3    3    0    0  0.20083036890E+02  0.24122381997E+02  0.68001392648E+02  0.74895975098E+02  0.00000000000E+00 0. -1.
         22    1    3    3    0    0 -0.65855486131E+02  0.11445131860E+02  0.95598169728E+03  0.95831567952E+03  0.00000000000E+00 0. -1.
</event>
<event>
 7    1  0.6330892E-006  0.7156958E+02  0.7818608E-02  0.1505068E+00
          2   -1    0    0  502    0  0.00000000000E+00  0.00000000000E+00  0.27059453922E+04  0.27059453922E+04  0.00000000000E+00 0. -1.
          1   -1    0    0  501    0 -0.00000000000E+00 -0.00000000000E+00 -0.32638901293E+02  0.32638901293E+02  0.00000000000E+00 0. -1.
         25    2    1    2    0    0 -0.50934076589E+02 -0.49171231525E+02  0.86142491014E+03  0.87332128267E+03  0.12500038714E+03 0.  0.
          2    1    1    2  501    0  0.17516279298E+02 -0.14656868782E+02 -0.20963872584E+02  0.31002061168E+02  0.00000000000E+00 0. -1.
          1    1    1    2  502    0  0.33417797291E+02  0.63828100306E+02  0.18328454534E+04  0.18342609497E+04  0.00000000000E+00 0. -1.
         22    1    3    3    0    0 -0.72835253981E+02 -0.74950817382E+02  0.73727349840E+03  0.74464408323E+03  0.00000000000E+00 0. -1.
         22    1    3    3    0    0  0.21901177392E+02  0.25779585858E+02  0.12415141174E+03  0.12867719944E+03  0.00000000000E+00 0. -1.
</event>
<event>
 7    1  0.7446194E-006  0.4891372E+02  0.7818608E-02  0.1511295E+00
          2   -1    0    0  502    0  0.00000000000E+00  0.00000000000E+00  0.10436451204E+04  0.10436451204E+04  0.00000000000E+00 0. -1.
          1   -1    0    0  501    0 -0.00000000000E+00 -0.00000000000E+00 -0.11158017536E+04  0.11158017536E+04  0.00000000000E+00 0. -1.
         25    2    1    2    0    0  0.21494871623E+02  0.27578214291E+01 -0.30449834675E+03  0.32986021703E+03  0.12497553570E+03 0.  0.
          2    1    1    2  501    0  0.23744102403E+02 -0.21503268521E+02 -0.79771934007E+03  0.79836227271E+03  0.00000000000E+00 0. -1.
          1    1    1    2  502    0 -0.45238974026E+02  0.18745447092E+02  0.10300610536E+04  0.10312243843E+04  0.00000000000E+00 0. -1.
         22    1    3    3    0    0 -0.51136807177E+01 -0.22117230663E+02 -0.28962874128E+03  0.29051700363E+03  0.00000000000E+00 0.  1.
         22    1    3    3    0    0  0.26608552341E+02  0.24875052092E+02 -0.14869605471E+02  0.39343213406E+02  0.00000000000E+00 0.  1.
</event>
<event>
 7    1  0.6330892E-006  0.6638705E+02  0.7818608E-02  0.1527938E+00
          2   -1    0    0  502    0  0.00000000000E+00  0.00000000000E+00  0.71792949386E+03  0.71792949386E+03  0.00000000000E+00 0. -1.
          1   -1    0    0  501    0 -0.00000000000E+00 -0.00000000000E+00 -0.39450890937E+03  0.39450890937E+03  0.00000000000E+00 0. -1.
         25    2    1    2    0    0  0.33742576464E+02 -0.39101908202E+02  0.10648434186E+03  0.17214056143E+03  0.12500374849E+03 0.  0.
          2    1    1    2  501    0 -0.31163839835E+01 -0.20884199924E+02 -0.35940990830E+03  0.36002964301E+03  0.00000000000E+00 0. -1.
          1    1    1    2  502    0 -0.30626192480E+02  0.59986108126E+02  0.57634615093E+03  0.58026819879E+03  0.00000000000E+00 0. -1.
         22    1    3    3    0    0  0.40162122660E+02 -0.51833570008E+02  0.12944898430E+03  0.14510945735E+03  0.00000000000E+00 0.  1.
         22    1    3    3    0    0 -0.64195461965E+01  0.12731661806E+02 -0.22964642436E+02  0.27031104082E+02  0.00000000000E+00 0.  1.
</event>
<event>
 7    1  0.6330892E-006  0.1221861E+03  0.7818608E-02  0.1309453E+00
          2   -1    0    0  502    0  0.00000000000E+00  0.00000000000E+00  0.42412961454E+03  0.42412961454E+03  0.00000000000E+00 0. -1.
          1   -1    0    0  501    0 -0.00000000000E+00 -0.00000000000E+00 -0.75484110422E+03  0.75484110422E+03  0.00000000000E+00 0. -1.
         25    2    1    2    0    0 -0.24676790598E+02 -0.13901924487E+03 -0.10761438763E+03  0.21712012097E+03  0.12499998426E+03 0.  0.
          2    1    1    2  501    0  0.71745328263E+02  0.98028518314E+02 -0.58353660192E+03  0.59604693466E+03  0.00000000000E+00 0. -1.
          1    1    1    2  502    0 -0.47068537665E+02  0.40990726559E+02  0.36043949987E+03  0.36580366314E+03  0.00000000000E+00 0. -1.
         22    1    3    3    0    0 -0.71216900075E+02 -0.99815467132E+02 -0.47247744834E+02  0.13140518912E+03  0.00000000000E+00 0. -1.
         22    1    3    3    0    0  0.46540109478E+02 -0.39203777741E+02 -0.60366642795E+02  0.85714931848E+02  0.00000000000E+00 0. -1.
</event>
<event>
 7    1  0.6330892E-006  0.1083079E+03  0.7818608E-02  0.1411816E+00
          2   -1    0    0  502    0  0.00000000000E+00  0.00000000000E+00  0.26452634691E+02  0.26452634691E+02  0.00000000000E+00 0. -1.
          1   -1    0    0  501    0 -0.00000000000E+00 -0.00000000000E+00 -0.12106702813E+04  0.12106702813E+04  0.00000000000E+00 0. -1.
         25    2    1    2    0    0 -0.21824174181E+02  0.95132011166E+02 -0.56407313839E+03  0.58594380189E+03  0.12500095758E+03 0.  0.
          2    1    1    2  501    0  0.23771154781E+02  0.17934749610E+02 -0.42189931546E+03  0.42294888039E+03  0.00000000000E+00 0. -1.
          1    1    1    2  502    0 -0.19469806002E+01 -0.11306676078E+03 -0.19824519280E+03  0.22823023374E+03  0.00000000000E+00 0. -1.
         22    1    3    3    0    0 -0.71908113794E+02  0.59844007776E+02 -0.27589070695E+03  0.29132072408E+03  0.00000000000E+00 0.  1.
         22    1    3    3    0    0  0.50083939613E+02  0.35288003390E+02 -0.28818243144E+03  0.29462307782E+03  0.00000000000E+00 0.  1.
</event>
<event>
 7    1  0.6330892E-006  0.6371385E+02  0.7818608E-02  0.1536742E+00
          2   -1    0    0  502    0  0.00000000000E+00  0.00000000000E+00  0.10766125862E+04  0.10766125862E+04  0.00000000000E+00 0. -1.
          1   -1    0    0  501    0 -0.00000000000E+00 -0.00000000000E+00 -0.15699570202E+03  0.15699570202E+03  0.00000000000E+00 0. -1.
         25    2    1    2    0    0 -0.56261810188E+02 -0.57046416081E+01  0.21776007911E+03  0.25737508321E+03  0.12499818870E+03 0.  0.
          2    1    1    2  501    0  0.58349958044E+02  0.26363085855E+02 -0.12958052465E+03  0.14453664680E+03  0.00000000000E+00 0. -1.
          1    1    1    2  502    0 -0.20881478557E+01 -0.20658444247E+02  0.83143732977E+03  0.83169655826E+03  0.00000000000E+00 0. -1.
         22    1    3    3    0    0  0.84839108670E+01 -0.54487006873E+02  0.10357315886E+03  0.11733801557E+03  0.00000000000E+00 0.  1.
         22    1    3    3    0    0 -0.64745721055E+02  0.48782365265E+02  0.11418692025E+03  0.14003706763E+03  0.00000000000E+00 0.  1.
</event>
<event>
 7    1  0.6330892E-006  0.5963627E+02  0.7818608E-02  0.1438972E+00
          2   -1    0    0  502    0  0.00000000000E+00  0.00000000000E+00  0.10400111706E+04  0.10400111706E+04  0.00000000000E+00 0. -1.
          1   -1    0    0  501    0 -0.00000000000E+00 -0.00000000000E+00 -0.10015518394E+04  0.10015518394E+04  0.00000000000E+00 0. -1.
         25    2    1    2    0    0 -0.38797066268E+02 -0.68218294725E+02 -0.96841741431E+01  0.14790888461E+03  0.12499722730E+03 0.  0.
          2    1    1    2  501    0 -0.42676272135E+01  0.59401851336E+02 -0.92129581963E+03  0.92321870640E+03  0.00000000000E+00 0. -1.
          1    1    1    2  502    0  0.43064693481E+02  0.88164433893E+01  0.96943932499E+03  0.97043541894E+03  0.00000000000E+00 0. -1.
         22    1    3    3    0    0  0.33205190124E+02 -0.61944030037E+02 -0.23926846452E+02  0.74243797650E+02  0.00000000000E+00 0. -1.
         22    1    3    3    0    0 -0.72002256391E+02 -0.62742646881E+01  0.14242672309E+02  0.73665086963E+02  0.00000000000E+00 0. -1.
</event>
<event>
 7    1  0.6330892E-006  0.1267670E+03  0.7818608E-02  0.1322009E+00
          2   -1    0    0  502    0  0.00000000000E+00  0.00000000000E+00  0.15213438491E+04  0.15213438491E+04  0.00000000000E+00 0. -1.
          1   -1    0    0  501    0 -0.00000000000E+00 -0.00000000000E+00 -0.81297887238E+02  0.81297887238E+02  0.00000000000E+00 0. -1.
         25    2    1    2    0    0 -0.61775267813E+02  0.15525151802E+03  0.58261771072E+03  0.61885994524E+03  0.12500006971E+03 0.  0.
          2    1    1    2  501    0  0.36485202616E+02 -0.39450710043E+02 -0.47139126062E+02  0.71481646167E+02  0.00000000000E+00 0. -1.
          1    1    1    2  502    0  0.25290065197E+02 -0.11580080797E+03  0.90456737722E+03  0.91230014494E+03  0.00000000000E+00 0. -1.
         22    1    3    3    0    0 -0.39342047326E+02  0.16332650075E+03  0.56434835321E+03  0.58882289893E+03  0.00000000000E+00 0.  1.
         22    1    3    3    0    0 -0.22433220487E+02 -0.80749827300E+01  0.18269357501E+02  0.30037046310E+02  0.00000000000E+00 0.  1.
</event>
<event>
 7    1  0.6330892E-006  0.4267009E+02  0.7818608E-02  0.1493762E+00
          2   -1    0    0  502    0  0.00000000000E+00  0.00000000000E+00  0.35324207207E+03  0.35324207207E+03  0.00000000000E+00 0. -1.
          1   -1    0    0  501    0 -0.00000000000E+00 -0.00000000000E+00 -0.15381621752E+03  0.15381621752E+03  0.00000000000E+00 0. -1.
         25    2    1    2    0    0  0.28940039612E+02 -0.77420924746E+02  0.96128457602E+02  0.17803653440E+03  0.12499920696E+03 0.  0.
          2    1    1    2  501    0 -0.17767867256E+02  0.37551240431E+02 -0.10695058901E+03  0.11473544027E+03  0.00000000000E+00 0. -1.
          1    1    1    2  502    0 -0.11172172356E+02  0.39869684315E+02  0.21024798595E+03  0.21428631492E+03  0.00000000000E+00 0. -1.
         22    1    3    3    0    0 -0.26458871782E+02 -0.86737183087E+02  0.41679455989E+02  0.99802744839E+02  0.00000000000E+00 0.  1.
         22    1    3    3    0    0  0.55398911393E+02  0.93162583410E+01  0.54449001613E+02  0.78233789565E+02  0.00000000000E+00 0.  1.
</event>
<event>
 7    1  0.6330892E-006  0.4340995E+02  0.7818608E-02  0.1510974E+00
          2   -1    0    0  502    0  0.00000000000E+00  0.00000000000E+00  0.14952007085E+03  0.14952007085E+03  0.00000000000E+00 0. -1.
          1   -1    0    0  501    0 -0.00000000000E+00 -0.00000000000E+00 -0.72612453612E+03  0.72612453612E+03  0.00000000000E+00 0. -1.
         25    2    1    2    0    0 -0.48527879695E+02 -0.10233490230E+02 -0.83230555850E+02  0.15814232766E+03  0.12498796318E+03 0.  0.
          2    1    1    2  501    0  0.11958590480E+02  0.34140022754E+02 -0.60061478499E+03  0.60170314026E+03  0.00000000000E+00 0. -1.
          1    1    1    2  502    0  0.36569289215E+02 -0.23906532523E+02  0.10724087558E+03  0.11579913906E+03  0.00000000000E+00 0. -1.
         22    1    3    3    0    0  0.34286837533E+02  0.26969440128E+02 -0.24848243213E+02  0.50203317815E+02  0.00000000000E+00 0.  1.
         22    1    3    3    0    0 -0.82814717229E+02 -0.37202930358E+02 -0.58382312637E+02  0.10793900984E+03  0.00000000000E+00 0.  1.
</event>
<event>
 7    1  0.6330892E-006  0.5036910E+02  0.7818608E-02  0.1483907E+00
          2   -1    0    0  502    0  0.00000000000E+00  0.00000000000E+00  0.15897666422E+03  0.15897666422E+03  0.00000000000E+00 0. -1.
          1   -1    0    0  501    0 -0.00000000000E+00 -0.00000000000E+00 -0.66937536985E+03  0.66937536985E+03  0.00000000000E+00 0. -1.
         25    2    1    2    0    0 -0.21627934031E+02 -0.77895688007E+01  0.94925137322E+02  0.15863012257E+03  0.12499715669E+03 0.  0.
          2    1    1    2  501    0  0.22533496353E+02  0.45352173682E+02 -0.62517775091E+03  0.62722547648E+03  0.00000000000E+00 0. -1.
          1    1    1    2  502    0 -0.90556232199E+00 -0.37562604881E+02  0.19853907953E+02  0.42496435022E+02  0.00000000000E+00 0. -1.
         22    1    3    3    0    0 -0.55519394243E+02  0.35297839731E+02  0.76267512401E+02  0.10072275847E+03  0.00000000000E+00 0.  1.
         22    1    3    3    0    0  0.33891460212E+02 -0.43087408531E+02  0.18657624920E+02  0.57907364099E+02  0.00000000000E+00 0.  1.
</event>
<event>
 7    1  0.6330892E-006  0.3514504E+03  0.7818608E-02  0.1217205E+00
          2   -1    0    0  502    0  0.00000000000E+00  0.00000000000E+00  0.67958712480E+03  0.67958712480E+03  0.00000000000E+00 0. -1.
          1   -1    0    0  501    0 -0.00000000000E+00 -0.00000000000E+00 -0.54420368453E+03  0.54420368453E+03  0.00000000000E+00 0. -1.
         25    2    1    2    0    0 -0.36386730337E+03  0.11485658763E+03  0.47666226927E+02  0.40433740638E+03  0.12500087532E+03 0.  0.
          2    1    1    2  501    0  0.30244182880E+02 -0.44164648423E+02 -0.29905276771E+03  0.30380550463E+03  0.00000000000E+00 0. -1.
          1    1    1    2  502    0  0.33362312049E+03 -0.70691939202E+02  0.38676998105E+03  0.51564789831E+03  0.00000000000E+00 0. -1.
         22    1    3    3    0    0 -0.17598490704E+03 -0.29705985038E+01  0.48475711284E+02  0.18256343157E+03  0.00000000000E+00 0.  1.
         22    1    3    3    0    0 -0.18788239633E+03  0.11782718613E+03 -0.80948435687E+00  0.22177397482E+03  0.00000000000E+00 0.  1.
</event>
<event>
 7    1  0.6330892E-006  0.7357716E+02  0.7818608E-02  0.1408482E+00
          2   -1    0    0  502    0  0.00000000000E+00  0.00000000000E+00  0.22646050674E+04  0.22646050674E+04  0.00000000000E+00 0. -1.
          1   -1    0    0  501    0 -0.00000000000E+00 -0.00000000000E+00 -0.17529176689E+04  0.17529176689E+04  0.00000000000E+00 0. -1.
         25    2    1    2    0    0  0.85282759802E+02  0.71148527493E+02  0.13934269796E+03  0.21766075420E+03  0.12499821744E+03 0.  0.
          2    1    1    2  501    0 -0.67004240869E+02 -0.30040085234E+02 -0.17127293078E+04  0.17143026737E+04  0.00000000000E+00 0. -1.
          1    1    1    2  502    0 -0.18278518932E+02 -0.41108442260E+02  0.20850740084E+04  0.20855593084E+04  0.00000000000E+00 0. -1.
         22    1    3    3    0    0  0.14223033342E+02  0.21412640899E+02  0.12756435593E+03  0.13012863164E+03  0.00000000000E+00 0. -1.
         22    1    3    3    0    0  0.71059726459E+02  0.49735886594E+02  0.11778342024E+02  0.87532122565E+02  0.00000000000E+00 0. -1.
</event>
<event>
 7    1  0.6330892E-006  0.1924515E+03  0.7818608E-02  0.1377944E+00
          2   -1    0    0  502    0  0.00000000000E+00  0.00000000000E+00  0.66365826089E+03  0.66365826089E+03  0.00000000000E+00 0. -1.
          1   -1    0    0  501    0 -0.00000000000E+00 -0.00000000000E+00 -0.68100941090E+03  0.68100941090E+03  0.00000000000E+00 0. -1.
         25    2    1    2    0    0  0.19232367956E+03 -0.74968104187E+02  0.99533366654E+01  0.24152085470E+03  0.12499855991E+03 0.  0.
          2    1    1    2  501    0 -0.10084689480E+02  0.19505766743E+02 -0.54813441251E+03  0.54857406982E+03  0.00000000000E+00 0. -1.
          1    1    1    2  502    0 -0.18223899008E+03  0.55462337443E+02  0.52082992583E+03  0.55457274728E+03  0.00000000000E+00 0. -1.
         22    1    3    3    0    0  0.19981494738E+03 -0.54327012272E+02  0.33007233180E+02  0.20968289129E+03  0.00000000000E+00 0.  1.
         22    1    3    3    0    0 -0.74912678245E+01 -0.20641091915E+02 -0.23053896515E+02  0.31837963402E+02  0.00000000000E+00 0.  1.
</event>
<event>
 7    1  0.6330892E-006  0.1258822E+03  0.7818608E-02  0.1253941E+00
          2   -1    0    0  502    0  0.00000000000E+00  0.00000000000E+00  0.66924161931E+03  0.66924161931E+03  0.00000000000E+00 0. -1.
          1   -1    0    0  501    0 -0.00000000000E+00 -0.00000000000E+00 -0.83337929870E+03  0.83337929870E+03  0.00000000000E+00 0. -1.
         25    2    1    2    0    0  0.74895545194E+02 -0.55945117808E+02  0.27579646383E+03  0.31690384066E+03  0.12500062347E+03 0.  0.
          2    1    1    2  501    0 -0.89649543791E+00  0.12704596831E+03 -0.80066026870E+03  0.81067770886E+03  0.00000000000E+00 0. -1.
          1    1    1    2  502    0 -0.73999049756E+02 -0.71100850501E+02  0.36072612548E+03  0.37503936848E+03  0.00000000000E+00 0. -1.
         22    1    3    3    0    0 -0.20760890449E+02 -0.47139488749E+02  0.15017696214E+03  0.15876481326E+03  0.00000000000E+00 0. -1.
         22    1    3    3    0    0  0.95656435643E+02 -0.88056290587E+01  0.12561950169E+03  0.15813902740E+03  0.00000000000E+00 0. -1.
</event>
<event>
 7    1  0.6330892E-006  0.6360020E+02  0.7818608E-02  0.1403214E+00
          2   -1    0    0  502    0  0.00000000000E+00  0.00000000000E+00  0.82197119886E+02  0.82197119886E+02  0.00000000000E+00 0. -1.
          1   -1    0    0  501    0 -0.00000000000E+00 -0.00000000000E+00 -0.56317986975E+03  0.56317986975E+03  0.00000000000E+00 0. -1.
         25    2    1    2    0    0 -0.30772985724E+02 -0.62399935149E+02 -0.20049737639E+03  0.24630282328E+03  0.12500061704E+03 0.  0.
          2    1    1    2  501    0  0.62863948832E+02  0.18667254714E+02 -0.32335358608E+03  0.32993618185E+03  0.00000000000E+00 0. -1.
          1    1    1    2  502    0 -0.32090963108E+02  0.43732680435E+02  0.42868212597E+02  0.69137984513E+02  0.00000000000E+00 0. -1.
         22    1    3    3    0    0 -0.69324167132E+02 -0.52490766030E+02 -0.75625465186E+02  0.11524032129E+03  0.00000000000E+00 0.  1.
         22    1    3    3    0    0  0.38551181408E+02 -0.99091691190E+01 -0.12487191120E+03  0.13106250199E+03  0.00000000000E+00 0.  1.
</event>
<event>
 7    1  0.6330892E-006  0.9766108E+02  0.7818608E-02  0.1395040E+00
          2   -1    0    0  502    0  0.00000000000E+00  0.00000000000E+00  0.14551912208E+04  0.14551912208E+04  0.00000000000E+00 0. -1.
          1   -1    0    0  501    0 -0.00000000000E+00 -0.00000000000E+00 -0.62967365064E+03  0.62967365064E+03  0.00000000000E+00 0. -1.
         25    2    1    2    0    0  0.60079041427E+02 -0.38582148747E+02  0.12658397271E+03  0.19169342645E+03  0.12499917671E+03 0.  0.
          2    1    1    2  501    0  0.38658393169E+01 -0.37491665499E+02 -0.59461633315E+03  0.59580966201E+03  0.00000000000E+00 0. -1.
          1    1    1    2  502    0 -0.63944880744E+02  0.76073814246E+02  0.12935499306E+04  0.12973617830E+04  0.00000000000E+00 0. -1.
         22    1    3    3    0    0 -0.35420375079E+02 -0.19185361585E+02  0.13661062973E+02  0.42535934355E+02  0.00000000000E+00 0.  1.
         22    1    3    3    0    0  0.95499416507E+02 -0.19396787161E+02  0.11292290974E+03  0.14915749210E+03  0.00000000000E+00 0.  1.
</event>
<event>
 7    1  0.6330892E-006  0.1644404E+03  0.7818608E-02  0.1282034E+00
          2   -1    0    0  502    0  0.00000000000E+00  0.00000000000E+00  0.78587229959E+03  0.78587229959E+03  0.00000000000E+00 0. -1.
          1   -1    0    0  501    0 -0.00000000000E+00 -0.00000000000E+00 -0.10858325155E+03  0.10858325155E+03  0.00000000000E+00 0. -1.
         25    2    1    2    0    0  0.15354099411E+03 -0.42939558160E+02  0.21618930786E+03  0.29628040948E+03  0.12500248670E+03 0.  0.
          2    1    1    2  501    0  0.14680926101E+02  0.57987334712E+02 -0.38273935384E+02  0.71013764215E+02  0.00000000000E+00 0. -1.
          1    1    1    2  502    0 -0.16822192021E+03 -0.15047776552E+02  0.49937367557E+03  0.52716137744E+03  0.00000000000E+00 0. -1.
         22    1    3    3    0    0  0.64675809288E+02 -0.83246854869E+01  0.18465885299E+03  0.19583450330E+03  0.00000000000E+00 0. -1.
         22    1    3    3    0    0  0.88865184817E+02 -0.34614872673E+02  0.31530454866E+02  0.10044590617E+03  0.00000000000E+00 0. -1.
</event>
<event>
 7    1  0.6330892E-006  0.6504749E+02  0.7818608E-02  0.1426036E+00
          2   -1    0    0  502    0  0.00000000000E+00  0.00000000000E+00  0.60628861354E+03  0.60628861354E+03  0.00000000000E+00 0. -1.
          1   -1    0    0  501    0 -0.00000000000E+00 -0.00000000000E+00 -0.24113925250E+03  0.24113925250E+03  0.00000000000E+00 0. -1.
         25    2    1    2    0    0 -0.40347630048E+01  0.93970580837E+02  0.30085162501E+03  0.33909230301E+03  0.12500056126E+03 0.  0.
          2    1    1    2  501    0 -0.21875566256E+02 -0.38680542281E+02 -0.21648066343E+03  0.22099457548E+03  0.00000000000E+00 0. -1.
          1    1    1    2  502    0  0.25910329261E+02 -0.55290038556E+02  0.28077839946E+03  0.28734098756E+03  0.00000000000E+00 0. -1.
         22    1    3    3    0    0  0.19432154662E+02  0.35373047145E+02  0.26174451863E+03  0.26483778834E+03  0.00000000000E+00 0.  1.
         22    1    3    3    0    0 -0.23466917667E+02  0.58597533693E+02  0.39107106377E+02  0.74254514670E+02  0.00000000000E+00 0.  1.
</event>
<event>
 7    1  0.6330892E-006  0.1438569E+03  0.7818608E-02  0.1352598E+00
          2   -1    0    0  502    0  0.00000000000E+00  0.00000000000E+00  0.11850301048E+04  0.11850301048E+04  0.00000000000E+00 0. -1.
          1   -1    0    0  501    0 -0.00000000000E+00 -0.00000000000E+00 -0.50006045765E+03  0.50006045765E+03  0.00000000000E+00 0. -1.
         25    2    1    2    0    0  0.11626905254E+03  0.36105370962E+02  0.69935123653E+03  0.72079076378E+03  0.12500033093E+03 0.  0.
          2    1    1    2  501    0 -0.12541821854E+03 -0.71221786623E+02 -0.47798853082E+03  0.49927478209E+03  0.00000000000E+00 0. -1.
          1    1    1    2  502    0  0.91491660058E+01  0.35116415662E+02  0.46360694145E+03  0.46502501658E+03  0.00000000000E+00 0. -1.
         22    1    3    3    0    0  0.12559404149E+03  0.16029824708E+02  0.37725607913E+03  0.39793588400E+03  0.00000000000E+00 0. -1.
         22    1    3    3    0    0 -0.93249889584E+01  0.20075546254E+02  0.32209515740E+03  0.32285487978E+03  0.00000000000E+00 0. -1.
</event>
<event>
 7    1  0.6330892E-006  0.3911821E+03  0.7818608E-02  0.1155977E+00
          2   -1    0    0  502    0  0.00000000000E+00  0.00000000000E+00  0.65675837780E+03  0.65675837780E+03  0.00000000000E+00 0. -1.
          1   -1    0    0  501    0 -0.00000000000E+00 -0.00000000000E+00 -0.86611629781E+03  0.86611629781E+03  0.00000000000E+00 0. -1.
         25    2    1    2    0    0  0.47132513568E+03 -0.56279847932E+02 -0.37629636510E+03  0.61849669813E+03  0.12499762556E+03 0.  0.
          2    1    1    2  501    0 -0.93933832652E+02  0.14227624441E+02 -0.29295592665E+03  0.30797591655E+03  0.00000000000E+00 0. -1.
          1    1    1    2  502    0 -0.37739130303E+03  0.42052223491E+02  0.45989437175E+03  0.59640206092E+03  0.00000000000E+00 0. -1.
         22    1    3    3    0    0  0.29711829880E+02 -0.32831108298E+02 -0.12935361282E+02  0.46130229551E+02  0.00000000000E+00 0. -1.
         22    1    3    3    0    0  0.44161330580E+03 -0.23448739634E+02 -0.36336100382E+03  0.57236646858E+03  0.00000000000E+00 0. -1.
</event>
<event>
 7    1  0.6330892E-006  0.1590220E+03  0.7818608E-02  0.1324059E+00
          2   -1    0    0  502    0  0.00000000000E+00  0.00000000000E+00  0.15992658210E+04  0.15992658210E+04  0.00000000000E+00 0. -1.
          1   -1    0    0  501    0 -0.00000000000E+00 -0.00000000000E+00 -0.13613359492E+04  0.13613359492E+04  0.00000000000E+00 0. -1.
         25    2    1    2    0    0  0.81813144643E+01 -0.19969304158E+03  0.45088500426E+03  0.50878942777E+03  0.12500059990E+03 0.  0.
          2    1    1    2  501    0 -0.13860809792E+02  0.15801542464E+03 -0.13272644777E+04  0.13367093888E+04  0.00000000000E+00 0. -1.
          1    1    1    2  502    0  0.56794953274E+01  0.41677616937E+02  0.11143093451E+04  0.11151029536E+04  0.00000000000E+00 0. -1.
         22    1    3    3    0    0 -0.33460919869E+02 -0.32010002599E+02  0.33786225411E+02  0.57321745022E+02  0.00000000000E+00 0.  1.
         22    1    3    3    0    0  0.41642234333E+02 -0.16768303898E+03  0.41709877885E+03  0.45146768274E+03  0.00000000000E+00 0.  1.
</event>
<event>
 7    1  0.6330892E-006  0.2290311E+03  0.7818608E-02  0.1283413E+00
          2   -1    0    0  502    0  0.00000000000E+00  0.00000000000E+00  0.17266866254E+04  0.17266866254E+04  0.00000000000E+00 0. -1.
          1   -1    0    0  501    0 -0.00000000000E+00 -0.00000000000E+00 -0.14971615494E+04  0.14971615494E+04  0.00000000000E+00 0. -1.
         25    2    1    2    0    0 -0.24551989919E+03  0.97334279720E+02  0.69962271109E+03  0.75818898215E+03  0.12499844749E+03 0.  0.
          2    1    1    2  501    0  0.21951757995E+03 -0.63856272597E+02 -0.14585198273E+04  0.14763284452E+04  0.00000000000E+00 0. -1.
          1    1    1    2  502    0  0.26002319237E+02 -0.33478007122E+02  0.98842219224E+03  0.98933074736E+03  0.00000000000E+00 0. -1.
         22    1    3    3    0    0 -0.22465057269E+03  0.10625991872E+03  0.51121229506E+03  0.56841627418E+03  0.00000000000E+00 0. -1.
         22    1    3    3    0    0 -0.20869326498E+02 -0.89256390028E+01  0.18841041603E+03  0.18977270797E+03  0.00000000000E+00 0. -1.
</event>
<event>
 7    1  0.6330892E-006  0.1735860E+03  0.7818608E-02  0.1264582E+00
          2   -1    0    0  502    0  0.00000000000E+00  0.00000000000E+00  0.39993261184E+04  0.39993261184E+04  0.00000000000E+00 0. -1.
          1   -1    0    0  501    0 -0.00000000000E+00 -0.00000000000E+00 -0.84774441362E+02  0.84774441362E+02  0.00000000000E+00 0. -1.
         25    2    1    2    0    0 -0.19167930743E+03 -0.58131467882E+02  0.37666923969E+03  0.44454987777E+03  0.12499861294E+03 0.  0.
          2    1    1    2  501    0  0.19223213914E+02  0.64206013886E+02 -0.25708941855E+02  0.71783660144E+02  0.00000000000E+00 0. -1.
          1    1    1    2  502    0  0.17245609352E+03 -0.60745460040E+01  0.35635913792E+04  0.35677670218E+04  0.00000000000E+00 0. -1.
         22    1    3    3    0    0 -0.10065047651E+03 -0.37602452021E+01  0.29193305624E+03  0.30881963537E+03  0.00000000000E+00 0.  1.
         22    1    3    3    0    0 -0.91028830922E+02 -0.54371222680E+02  0.84736183454E+02  0.13573024240E+03  0.00000000000E+00 0.  1.
</event>
<event>
 7    1  0.6330892E-006  0.9494763E+02  0.7818608E-02  0.1400512E+00
          2   -1    0    0  502    0  0.00000000000E+00  0.00000000000E+00  0.11890249499E+04  0.11890249499E+04  0.00000000000E+00 0. -1.
          1   -1    0    0  501    0 -0.00000000000E+00 -0.00000000000E+00 -0.42777432287E+03  0.42777432287E+03  0.00000000000E+00 0. -1.
         25    2    1    2    0    0  0.98962488031E+02  0.86057667549E+02  0.38019544175E+03  0.42115609309E+03  0.12499753851E+03 0.  0.
          2    1    1    2  501    0 -0.68061545947E+02 -0.65492701783E+02 -0.40137190997E+03  0.41233612276E+03  0.00000000000E+00 0. -1.
          1    1    1    2  502    0 -0.30900942085E+02 -0.20564965766E+02  0.78242709525E+03  0.78330705692E+03  0.00000000000E+00 0. -1.
         22    1    3    3    0    0  0.90058609562E+02  0.35526492490E+02  0.11176206211E+03  0.14786292082E+03  0.00000000000E+00 0. -1.
         22    1    3    3    0    0  0.89038784694E+01  0.50531175060E+02  0.26843337964E+03  0.27329317227E+03  0.00000000000E+00 0. -1.
</event>
<event>
 7    1  0.6330892E-006  0.9768339E+02  0.7818608E-02  0.1339082E+00
          2   -1    0    0  502    0  0.00000000000E+00  0.00000000000E+00  0.25799140614E+04  0.25799140614E+04  0.00000000000E+00 0. -1.
          1   -1    0    0  501    0 -0.00000000000E+00 -0.00000000000E+00 -0.44967559660E+03  0.44967559660E+03  0.00000000000E+00 0. -1.
         25    2    1    2    0    0  0.15030920426E+03  0.24942337828E+02 -0.58702554801E+02  0.20563552107E+03  0.12500000193E+03 0.  0.
          2    1    1    2  501    0 -0.53046668833E+02 -0.28073983821E+02 -0.31371622957E+03  0.31940565170E+03  0.00000000000E+00 0. -1.
          1    1    1    2  502    0 -0.97262535427E+02  0.31316459938E+01  0.25026572492E+04  0.25045484853E+04  0.00000000000E+00 0. -1.
         22    1    3    3    0    0  0.16652093044E+03  0.25458849846E+02 -0.73395105377E+02  0.18375041443E+03  0.00000000000E+00 0.  1.
         22    1    3    3    0    0 -0.16211726175E+02 -0.51651201836E+00  0.14692550577E+02  0.21885106641E+02  0.00000000000E+00 0.  1.
</event>
<event>
 7    1  0.6330892E-006  0.5585399E+02  0.7818608E-02  0.1521437E+00
          2   -1    0    0  502    0  0.00000000000E+00  0.00000000000E+00  0.44315024034E+03  0.44315024034E+03  0.00000000000E+00 0. -1.
          1   -1    0    0  501    0 -0.00000000000E+00 -0.00000000000E+00 -0.10049576305E+04  0.10049576305E+04  0.00000000000E+00 0. -1.
         25    2    1    2    0    0 -0.14295344311E+02 -0.76265207756E+02 -0.66102644253E+02  0.16129344162E+03  0.12500110379E+03 0.  0.
          2    1    1    2  501    0  0.21622148207E+02  0.51105029882E+02 -0.88996046143E+03  0.89168877097E+03  0.00000000000E+00 0. -1.
          1    1    1    2  502    0 -0.73268038967E+01  0.25160177874E+02  0.39425571551E+03  0.39512565827E+03  0.00000000000E+00 0. -1.
         22    1    3    3    0    0  0.47184894098E+02 -0.24935230875E+02 -0.60984715052E+02  0.81038974820E+02  0.00000000000E+00 0. -1.
         22    1    3    3    0    0 -0.61480238409E+02 -0.51329976881E+02 -0.51179292005E+01  0.80254466796E+02  0.00000000000E+00 0. -1.
</event>
<event>
 7    1  0.6330892E-006  0.5003634E+02  0.7818608E-02  0.1479222E+00
          2   -1    0    0  502    0  0.00000000000E+00  0.00000000000E+00  0.14882639400E+04  0.14882639400E+04  0.00000000000E+00 0. -1.
          1   -1    0    0  501    0 -0.00000000000E+00 -0.00000000000E+00 -0.14210861500E+04  0.14210861500E+04  0.00000000000E+00 0. -1.
         25    2    1    2    0    0  0.66339782473E+02 -0.13263540803E+01  0.12711645906E+03  0.19022342082E+03  0.12499451872E+03 0.  0.
          2    1    1    2  501    0 -0.39923646086E+02  0.30144198824E+02 -0.13887948662E+04  0.13896955604E+04  0.00000000000E+00 0. -1.
          1    1    1    2  502    0 -0.26416136387E+02 -0.28817844744E+02  0.13288561971E+04  0.13294311088E+04  0.00000000000E+00 0. -1.
         22    1    3    3    0    0 -0.17981278524E+02 -0.43561949120E+02  0.39366714304E+02  0.61406090769E+02  0.00000000000E+00 0. -1.
         22    1    3    3    0    0  0.84321060997E+02  0.42235595039E+02  0.87749744758E+02  0.12881733005E+03  0.00000000000E+00 0. -1.
</event>
<event>
 7    1  0.6330892E-006  0.8328710E+02  0.7818608E-02  0.1339648E+00
          2   -1    0    0  502    0  0.00000000000E+00  0.00000000000E+00  0.45302341414E+03  0.45302341414E+03  0.00000000000E+00 0. -1.
          1   -1    0    0  501    0 -0.00000000000E+00 -0.00000000000E+00 -0.16082618533E+04  0.16082618533E+04  0.00000000000E+00 0. -1.
         25    2    1    2    0    0  0.15254384416E+03 -0.86930717701E+01  0.16804955838E+03  0.25924723148E+03  0.12499311610E+03 0.  0.
          2    1    1    2  501    0 -0.82497087541E+02  0.84507243735E+01 -0.15564110118E+04  0.15586187544E+04  0.00000000000E+00 0. -1.
          1    1    1    2  502    0 -0.70046756618E+02  0.24234739658E+00  0.23312301423E+03  0.24341928151E+03  0.00000000000E+00 0. -1.
         22    1    3    3    0    0  0.78523461420E+02 -0.23103412727E+02  0.79006464214E+01  0.82232121989E+02  0.00000000000E+00 0. -1.
         22    1    3    3    0    0  0.74020382738E+02  0.14410340957E+02  0.16014891196E+03  0.17701510949E+03  0.00000000000E+00 0. -1.
</event>
<event>
 7    1  0.6330892E-006  0.8770022E+02  0.7818608E-02  0.1353734E+00
          2   -1    0    0  502    0  0.00000000000E+00  0.00000000000E+00  0.61673924826E+03  0.61673924826E+03  0.00000000000E+00 0. -1.
          1   -1    0    0  501    0 -0.00000000000E+00 -0.00000000000E+00 -0.43344483064E+03  0.43344483064E+03  0.00000000000E+00 0. -1.
         25    2    1    2    0    0  0.28287290159E+02  0.13378586510E+03  0.12778563764E+03  0.22506217971E+03  0.12499994825E+03 0.  0.
          2    1    1    2  501    0  0.85091837111E+01 -0.58336466344E+02 -0.37850300681E+03  0.38306667263E+03  0.00000000000E+00 0. -1.
          1    1    1    2  502    0 -0.36796473870E+02 -0.75449398754E+02  0.43401178678E+03  0.44205522656E+03  0.00000000000E+00 0. -1.
         22    1    3    3    0    0 -0.37906519670E+02  0.10756437775E+03  0.80294281316E+02  0.13947821051E+03  0.00000000000E+00 0. -1.
         22    1    3    3    0    0  0.66193809828E+02  0.26221487350E+02  0.47491356328E+02  0.85583969202E+02  0.00000000000E+00 0. -1.
</event>
<event>
 7    1  0.6330892E-006  0.6731456E+02  0.7818608E-02  0.1393820E+00
          2   -1    0    0  502    0  0.00000000000E+00  0.00000000000E+00  0.14407884077E+03  0.14407884077E+03  0.00000000000E+00 0. -1.
          1   -1    0    0  501    0 -0.00000000000E+00 -0.00000000000E+00 -0.13055475472E+04  0.13055475472E+04  0.00000000000E+00 0. -1.
         25    2    1    2    0    0 -0.73049134736E+02  0.15049184308E+02 -0.27211034126E+03  0.30859639320E+03  0.12500016817E+03 0.  0.
          2    1    1    2  501    0  0.56784551980E+02  0.37718294209E+02 -0.10079295285E+04  0.10102321958E+04  0.00000000000E+00 0. -1.
          1    1    1    2  502    0  0.16264582756E+02 -0.52767478517E+02  0.11857116331E+03  0.13079779895E+03  0.00000000000E+00 0. -1.
         22    1    3    3    0    0 -0.52273303782E+02  0.64480074454E+02 -0.21396446818E+03  0.22950157283E+03  0.00000000000E+00 0.  1.
         22    1    3    3    0    0 -0.20775830954E+02 -0.49430890147E+02 -0.58145873084E+02  0.79094820369E+02  0.00000000000E+00 0.  1.
</event>
<event>
 7    1  0.6330892E-006  0.8754245E+02  0.7818608E-02  0.1368676E+00
          2   -1    0    0  502    0  0.00000000000E+00  0.00000000000E+00  0.31642512566E+04  0.31642512566E+04  0.00000000000E+00 0. -1.
          1   -1    0    0  501    0 -0.00000000000E+00 -0.00000000000E+00 -0.75194122027E+02  0.75194122027E+02  0.00000000000E+00 0. -1.
         25    2    1    2    0    0  0.12743323327E+02  0.11959744794E+03  0.53496918628E+03  0.56238971521E+03  0.12499687860E+03 0.  0.
          2    1    1    2  501    0  0.24101860922E+02 -0.82758016829E+02 -0.30881468604E+02  0.91561204407E+02  0.00000000000E+00 0. -1.
          1    1    1    2  502    0 -0.36845184249E+02 -0.36839431115E+02  0.25849694169E+04  0.25854944590E+04  0.00000000000E+00 0. -1.
         22    1    3    3    0    0 -0.33046384967E+02  0.90580854455E+02  0.18874374429E+03  0.21194611523E+03  0.00000000000E+00 0.  1.
         22    1    3    3    0    0  0.45789708294E+02  0.29016593489E+02  0.34622544199E+03  0.35044359997E+03  0.00000000000E+00 0.  1.
</event>
<event>
 7    1  0.6330892E-006  0.6746708E+02  0.7818608E-02  0.1376778E+00
          2   -1    0    0  502    0  0.00000000000E+00  0.00000000000E+00  0.38743105319E+04  0.38743105319E+04  0.00000000000E+00 0. -1.
          1   -1    0    0  501    0 -0.00000000000E+00 -0.00000000000E+00 -0.11735385447E+02  0.11735385447E+02  0.00000000000E+00 0. -1.
         25    2    1    2    0    0  0.17417449199E+02 -0.15007003791E+02  0.64775398644E+03  0.66010479395E+03  0.12499813736E+03 0.  0.
          2    1    1    2  501    0 -0.84661685845E+02  0.20486011583E+02  0.36236118026E+03  0.37268338128E+03  0.00000000000E+00 0. -1.
          1    1    1    2  502    0  0.67244236646E+02 -0.54790077919E+01  0.28524599798E+04  0.28532577422E+04  0.00000000000E+00 0. -1.
         22    1    3    3    0    0 -0.33970222648E+02 -0.41398982363E+02  0.15529928010E+03  0.16427330327E+03  0.00000000000E+00 0. -1.
         22    1    3    3    0    0  0.51387671847E+02  0.26391978572E+02  0.49245470634E+03  0.49583149068E+03  0.00000000000E+00 0. -1.
</event>
<event>
 7    1  0.6330892E-006  0.1320498E+03  0.7818608E-02  0.1338928E+00
          2   -1    0    0  502    0  0.00000000000E+00  0.00000000000E+00  0.20114004532E+04  0.20114004532E+04  0.00000000000E+00 0. -1.
          1   -1    0    0  501    0 -0.00000000000E+00 -0.00000000000E+00 -0.15788743440E+03  0.15788743440E+03  0.00000000000E+00 0. -1.
         25    2    1    2    0    0 -0.12890379109E+03  0.48068925286E+02  0.53933467144E+03  0.57046764726E+03  0.12499855928E+03 0.  0.
          2    1    1    2  501    0  0.10226821299E+03 -0.83663451968E+02 -0.11123229469E+03  0.17271648435E+03  0.00000000000E+00 0. -1.
          1    1    1    2  502    0  0.26635578106E+02  0.35594526682E+02  0.14254106420E+04  0.14261037559E+04  0.00000000000E+00 0. -1.
         22    1    3    3    0    0 -0.98966217012E+01 -0.17320805471E+02  0.70847949712E+01  0.21169500302E+02  0.00000000000E+00 0.  1.
         22    1    3    3    0    0 -0.11900716939E+03  0.65389730757E+02  0.53224987647E+03  0.54929814696E+03  0.00000000000E+00 0.  1.
</event>
<event>
 7    1  0.6330892E-006  0.1183947E+03  0.7818608E-02  0.1316081E+00
          2   -1    0    0  502    0  0.00000000000E+00  0.00000000000E+00  0.57095576187E+03  0.57095576187E+03  0.00000000000E+00 0. -1.
          1   -1    0    0  501    0 -0.00000000000E+00 -0.00000000000E+00 -0.25026492489E+04  0.25026492489E+04  0.00000000000E+00 0. -1.
         25    2    1    2    0    0  0.33561565686E+02 -0.13973326596E+03 -0.20756320716E+03  0.28170856931E+03  0.12500187499E+03 0.  0.
          2    1    1    2  501    0  0.22165095524E+02  0.11574677113E+03 -0.22547458938E+04  0.22578236539E+04  0.00000000000E+00 0. -1.
          1    1    1    2  502    0 -0.55726661211E+02  0.23986494826E+02  0.53061561391E+03  0.53407278758E+03  0.00000000000E+00 0. -1.
         22    1    3    3    0    0  0.59313817249E+02 -0.42216871277E+02 -0.32628742626E+02  0.79781125478E+02  0.00000000000E+00 0.  1.
         22    1    3    3    0    0 -0.25752251563E+02 -0.97516394683E+02 -0.17493446453E+03  0.20192744383E+03  0.00000000000E+00 0.  1.
</event>
<event>
 7    1  0.6330892E-006  0.4200394E+02  0.7818608E-02  0.1597790E+00
          2   -1    0    0  502    0  0.00000000000E+00  0.00000000000E+00  0.78359906833E+02  0.78359906833E+02  0.00000000000E+00 0. -1.
          1   -1    0    0  501    0 -0.00000000000E+00 -0.00000000000E+00 -0.44509157004E+03  0.44509157004E+03  0.00000000000E+00 0. -1.
         25    2    1    2    0    0 -0.51356907064E+02 -0.27287684229E+02 -0.10661853852E+02  0.13828787287E+03  0.12501084370E+03 0.  0.
          2    1    1    2  501    0  0.19827075663E+02  0.82245159170E+01 -0.34640894892E+03  0.34707335750E+03  0.00000000000E+00 0. -1.
          1    1    1    2  502    0  0.31529831402E+02  0.19063168312E+02 -0.96608604311E+01  0.38090246502E+02  0.00000000000E+00 0. -1.
         22    1    3    3    0    0  0.15976948943E+02  0.98997641208E+01  0.41358130828E+02  0.45428660697E+02  0.00000000000E+00 0.  1.
         22    1    3    3    0    0 -0.67333856007E+02 -0.37187448350E+02 -0.52019984680E+02  0.92859212174E+02  0.00000000000E+00 0.  1.
</event>
<event>
 7    1  0.6330892E-006  0.7242937E+02  0.7818608E-02  0.1485902E+00
          2   -1    0    0  502    0  0.00000000000E+00  0.00000000000E+00  0.16344272088E+04  0.16344272088E+04  0.00000000000E+00 0. -1.
          1   -1    0    0  501    0 -0.00000000000E+00 -0.00000000000E+00 -0.73129892389E+03  0.73129892389E+03  0.00000000000E+00 0. -1.
         25    2    1    2    0    0  0.97035529506E+02  0.10597065780E+02  0.11289211639E+03  0.19467253657E+03  0.12499829904E+03 0.  0.
          2    1    1    2  501    0 -0.71272965114E+02 -0.11034324435E+02 -0.68841264911E+03  0.69218029972E+03  0.00000000000E+00 0. -1.
          1    1    1    2  502    0 -0.25762564392E+02  0.43725865456E+00  0.14786488176E+04  0.14788732964E+04  0.00000000000E+00 0. -1.
         22    1    3    3    0    0 -0.28503667600E+02 -0.64120737701E+01  0.82521546553E+01  0.30359048291E+02  0.00000000000E+00 0.  1.
         22    1    3    3    0    0  0.12553919711E+03  0.17009139551E+02  0.10463996173E+03  0.16431348828E+03  0.00000000000E+00 0.  1.
</event>
<event>
 7    1  0.6330892E-006  0.7017309E+02  0.7818608E-02  0.1367844E+00
          2   -1    0    0  502    0  0.00000000000E+00  0.00000000000E+00  0.12356517821E+04  0.12356517821E+04  0.00000000000E+00 0. -1.
          1   -1    0    0  501    0 -0.00000000000E+00 -0.00000000000E+00 -0.11911206463E+03  0.11911206463E+03  0.00000000000E+00 0. -1.
         25    2    1    2    0    0 -0.19610906148E+02  0.27602786457E+02  0.84706583477E+02  0.15474755904E+03  0.12500040113E+03 0.  0.
          2    1    1    2  501    0  0.55327590824E+02  0.34964825336E+02 -0.69999304610E+02  0.95831017751E+02  0.00000000000E+00 0. -1.
          1    1    1    2  502    0 -0.35716684676E+02 -0.62567611793E+02  0.11018324386E+04  0.11041852699E+04  0.00000000000E+00 0. -1.
         22    1    3    3    0    0  0.49332555464E+02  0.34425575233E+02  0.36863996167E+02  0.70553351956E+02  0.00000000000E+00 0.  1.
         22    1    3    3    0    0 -0.68943461613E+02 -0.68227887758E+01  0.47842587309E+02  0.84194207082E+02  0.00000000000E+00 0.  1.
</event>
<event>
 7    1  0.6330892E-006  0.9164531E+02  0.7818608E-02  0.1309578E+00
          2   -1    0    0  502    0  0.00000000000E+00  0.00000000000E+00  0.13356034413E+03  0.13356034413E+03  0.00000000000E+00 0. -1.
          1   -1    0    0  501    0 -0.00000000000E+00 -0.00000000000E+00 -0.45284946382E+03  0.45284946382E+03  0.00000000000E+00 0. -1.
         25    2    1    2    0    0  0.33912047490E+02  0.55421630167E+02 -0.28529779161E+03  0.31818539985E+03  0.12500213889E+03 0.  0.
          2    1    1    2  501    0 -0.77578182040E+02  0.29843783351E+02 -0.11559900331E+03  0.14238031921E+03  0.00000000000E+00 0. -1.
          1    1    1    2  502    0  0.43666134550E+02 -0.85265413518E+02  0.81607675230E+02  0.12584408888E+03  0.00000000000E+00 0. -1.
         22    1    3    3    0    0  0.26403601334E+02  0.88763266380E+02 -0.25901158278E+03  0.27506920517E+03  0.00000000000E+00 0. -1.
         22    1    3    3    0    0  0.75084461559E+01 -0.33341636213E+02 -0.26286208835E+02  0.43116194682E+02  0.00000000000E+00 0. -1.
</event>
<event>
 7    1  0.6330892E-006  0.1085778E+03  0.7818608E-02  0.1351312E+00
          2   -1    0    0  502    0  0.00000000000E+00  0.00000000000E+00  0.37633450221E+04  0.37633450221E+04  0.00000000000E+00 0. -1.
          1   -1    0    0  501    0 -0.00000000000E+00 -0.00000000000E+00 -0.11068345171E+03  0.11068345171E+03  0.00000000000E+00 0. -1.
         25    2    1    2    0    0  0.10384624838E+03  0.46139296711E+02  0.46085289033E+03  0.49083673088E+03  0.12498972698E+03 0.  0.
          2    1    1    2  501    0  0.50152486406E+01 -0.48348941139E+02 -0.88556530725E+02  0.10101995824E+03  0.00000000000E+00 0. -1.
          1    1    1    2  502    0 -0.10886149702E+03  0.22096444274E+01  0.32803652108E+04  0.32821717847E+04  0.00000000000E+00 0. -1.
         22    1    3    3    0    0  0.63478350290E+02  0.37334994942E+02  0.43693206227E+03  0.44309483166E+03  0.00000000000E+00 0.  1.
         22    1    3    3    0    0  0.40367898093E+02  0.88043017698E+01  0.23920828060E+02  0.47741899220E+02  0.00000000000E+00 0.  1.
</event>
<event>
 7    1  0.6330892E-006  0.9686860E+02  0.7818608E-02  0.1435801E+00
          2   -1    0    0  502    0  0.00000000000E+00  0.00000000000E+00  0.79480310782E+03  0.79480310782E+03  0.00000000000E+00 0. -1.
          1   -1    0    0  501    0 -0.00000000000E+00 -0.00000000000E+00 -0.15504074150E+04  0.15504074150E+04  0.00000000000E+00 0. -1.
         25    2    1    2    0    0  0.75433806096E+02 -0.63355205567E+02 -0.45054287077E+03  0.47782633441E+03  0.12499994509E+03 0.  0.
          2    1    1    2  501    0 -0.88915236754E+02  0.39141577248E+02 -0.10838036281E+04  0.10881490186E+04  0.00000000000E+00 0. -1.
          1    1    1    2  502    0  0.13481430657E+02  0.24213628319E+02  0.77874219168E+03  0.77923516982E+03  0.00000000000E+00 0. -1.
         22    1    3    3    0    0 -0.12618767339E+02  0.24012983937E+02 -0.35708594890E+02  0.44843733517E+02  0.00000000000E+00 0.  1.
         22    1    3    3    0    0  0.88052573435E+02 -0.87368189505E+02 -0.41483427588E+03  0.43298260089E+03  0.00000000000E+00 0.  1.
</event>
<event>
 7    1  0.6330892E-006  0.1388736E+03  0.7818608E-02  0.1385765E+00
          2   -1    0    0  502    0  0.00000000000E+00  0.00000000000E+00  0.74800183342E+03  0.74800183342E+03  0.00000000000E+00 0. -1.
          1   -1    0    0  501    0 -0.00000000000E+00 -0.00000000000E+00 -0.93439208627E+03  0.93439208627E+03  0.00000000000E+00 0. -1.
         25    2    1    2    0    0 -0.77044822047E+02  0.10339490378E+03  0.17398970665E+03  0.25004770762E+03  0.12500010934E+03 0.  0.
          2    1    1    2  501    0  0.59426620751E+02 -0.12586676847E+03 -0.89057307834E+03  0.90138469841E+03  0.00000000000E+00 0. -1.
          1    1    1    2  502    0  0.17618201296E+02  0.22471864690E+02  0.53019311884E+03  0.53096151366E+03  0.00000000000E+00 0. -1.
         22    1    3    3    0    0 -0.61044964681E+02  0.13093127425E+03  0.12203312102E+03  0.18910729472E+03  0.00000000000E+00 0. -1.
         22    1    3    3    0    0 -0.15999857366E+02 -0.27536370472E+02  0.51956585626E+02  0.60940412900E+02  0.00000000000E+00 0. -1.
</event>
<event>
 7    1  0.6330892E-006  0.1029902E+03  0.7818608E-02  0.1316531E+00
          2   -1    0    0  502    0  0.00000000000E+00  0.00000000000E+00  0.11656842841E+03  0.11656842841E+03  0.00000000000E+00 0. -1.
          1   -1    0    0  501    0 -0.00000000000E+00 -0.00000000000E+00 -0.10262557129E+04  0.10262557129E+04  0.00000000000E+00 0. -1.
         25    2    1    2    0    0 -0.94958412090E+02  0.98018884444E+02 -0.37980107324E+03  0.42249113110E+03  0.12500039555E+03 0.  0.
          2    1    1    2  501    0  0.69460857128E+02  0.54036543869E+00 -0.59529069099E+03  0.59932971681E+03  0.00000000000E+00 0. -1.
          1    1    1    2  502    0  0.25497554962E+02 -0.98559249883E+02  0.65404479733E+02  0.12100329341E+03  0.00000000000E+00 0. -1.
         22    1    3    3    0    0  0.78227795322E+01 -0.19729115393E+02 -0.16133139880E+02  0.26659183712E+02  0.00000000000E+00 0. -1.
         22    1    3    3    0    0 -0.10278119162E+03  0.11774799984E+03 -0.36366793336E+03  0.39583194739E+03  0.00000000000E+00 0. -1.
</event>
<event>
 7    1  0.6330892E-006  0.8740573E+02  0.7818608E-02  0.1423053E+00
          2   -1    0    0  502    0  0.00000000000E+00  0.00000000000E+00  0.11870237716E+04  0.11870237716E+04  0.00000000000E+00 0. -1.
          1   -1    0    0  501    0 -0.00000000000E+00 -0.00000000000E+00 -0.40703449186E+02  0.40703449186E+02  0.00000000000E+00 0. -1.
         25    2    1    2    0    0 -0.59652896335E+02  0.99649590860E+01  0.95165333037E+03  0.96173132442E+03  0.12500124288E+03 0.  0.
          2    1    1    2  501    0  0.88874764913E+02  0.70869257668E+01  0.24449429804E+02  0.92448488213E+02  0.00000000000E+00 0. -1.
          1    1    1    2  502    0 -0.29221868578E+02 -0.17051884853E+02  0.17021756226E+03  0.17354740817E+03  0.00000000000E+00 0. -1.
         22    1    3    3    0    0 -0.59180192803E+02  0.62635134900E+02  0.59854550516E+03  0.60471660891E+03  0.00000000000E+00 0. -1.
         22    1    3    3    0    0 -0.47270353222E+00 -0.52670175814E+02  0.35310782520E+03  0.35701471551E+03  0.00000000000E+00 0. -1.
</event>
<event>
 7    1  0.6330892E-006  0.1530733E+03  0.7818608E-02  0.1238155E+00
          2   -1    0    0  502    0  0.00000000000E+00  0.00000000000E+00  0.26797782516E+03  0.26797782516E+03  0.00000000000E+00 0. -1.
          1   -1    0    0  501    0 -0.00000000000E+00 -0.00000000000E+00 -0.27886005795E+03  0.27886005795E+03  0.00000000000E+00 0. -1.
         25    2    1    2    0    0  0.75830136451E+02  0.19731543426E+03 -0.47461810298E+02  0.25012265821E+03  0.12500052208E+03 0.  0.
          2    1    1    2  501    0 -0.89034466215E+02 -0.99292250737E+02 -0.70577391639E+02  0.15088822168E+03  0.00000000000E+00 0. -1.
          1    1    1    2  502    0  0.13204329764E+02 -0.98023183527E+02  0.10715696915E+03  0.14582700323E+03  0.00000000000E+00 0. -1.
         22    1    3    3    0    0  0.31855404385E+02  0.15978155275E+03  0.16671164735E+02  0.16377679665E+03  0.00000000000E+00 0. -1.
         22    1    3    3    0    0  0.43974732065E+02  0.37533881511E+02 -0.64132975033E+02  0.86345861557E+02  0.00000000000E+00 0. -1.
</event>
<event>
 7    1  0.6330892E-006  0.5124558E+02  0.7818608E-02  0.1452483E+00
          2   -1    0    0  502    0  0.00000000000E+00  0.00000000000E+00  0.60270359966E+03  0.60270359966E+03  0.00000000000E+00 0. -1.
          1   -1    0    0  501    0 -0.00000000000E+00 -0.00000000000E+00 -0.45294720842E+03  0.45294720842E+03  0.00000000000E+00 0. -1.
         25    2    1    2    0    0  0.56394691411E+01 -0.51576410069E+01  0.12051197389E+03  0.17380266608E+03  0.12500330400E+03 0.  0.
          2    1    1    2  501    0  0.29554381677E+02 -0.35615255491E+02 -0.42344455937E+03  0.42596619909E+03  0.00000000000E+00 0. -1.
          1    1    1    2  502    0 -0.35193850818E+02  0.40772896498E+02  0.45268897673E+03  0.45588194292E+03  0.00000000000E+00 0. -1.
         22    1    3    3    0    0  0.62862284310E+02 -0.14962278891E+02  0.80810801577E+02  0.10346942655E+03  0.00000000000E+00 0. -1.
         22    1    3    3    0    0 -0.57222815169E+02  0.98046378842E+01  0.39701172312E+02  0.70333239530E+02  0.00000000000E+00 0. -1.
</event>
<event>
 7    1  0.6330892E-006  0.8646560E+02  0.7818608E-02  0.1396943E+00
          2   -1    0    0  502    0  0.00000000000E+00  0.00000000000E+00  0.13699073826E+04  0.13699073826E+04  0.00000000000E+00 0. -1.
          1   -1    0    0  501    0 -0.00000000000E+00 -0.00000000000E+00 -0.53510990702E+03  0.53510990702E+03  0.00000000000E+00 0. -1.
         25    2    1    2    0    0  0.31091861432E+02  0.11444987959E+03  0.19185071928E+03  0.25787009428E+03  0.12499923300E+03 0.  0.
          2    1    1    2  501    0 -0.29931141001E+02 -0.29364336893E+02 -0.49963993036E+03  0.50139624798E+03  0.00000000000E+00 0. -1.
          1    1    1    2  502    0 -0.11607204315E+01 -0.85085542699E+02  0.11425866867E+04  0.11457509474E+04  0.00000000000E+00 0. -1.
         22    1    3    3    0    0  0.53472805292E+02  0.89113848004E+02  0.56357872119E+02  0.11822363791E+03  0.00000000000E+00 0. -1.
         22    1    3    3    0    0 -0.22380943860E+02  0.25336031588E+02  0.13549284716E+03  0.13964645637E+03  0.00000000000E+00 0. -1.
</event>
<event>
 7    1  0.6330892E-006  0.1272817E+03  0.7818608E-02  0.1405620E+00
          2   -1    0    0  502    0  0.00000000000E+00  0.00000000000E+00  0.10825284261E+04  0.10825284261E+04  0.00000000000E+00 0. -1.
          1   -1    0    0  501    0 -0.00000000000E+00 -0.00000000000E+00 -0.20538320291E+03  0.20538320291E+03  0.00000000000E+00 0. -1.
         25    2    1    2    0    0  0.80340181941E+01 -0.11230724109E+03  0.45147470525E+03  0.48179920638E+03  0.12499441562E+03 0.  0.
          2    1    1    2  501    0  0.13947065370E+02  0.12728047837E+03 -0.16834253502E+03  0.21150425505E+03  0.00000000000E+00 0. -1.
          1    1    1    2  502    0 -0.21981083564E+02 -0.14973237287E+02  0.59401305296E+03  0.59460816758E+03  0.00000000000E+00 0. -1.
         22    1    3    3    0    0  0.47553341463E+01 -0.35460538624E+02  0.36218723970E+03  0.36395007845E+03  0.00000000000E+00 0.  1.
         22    1    3    3    0    0  0.32786840478E+01 -0.76846702462E+02  0.89287465544E+02  0.11784912792E+03  0.00000000000E+00 0.  1.
</event>
<event>
 7    1  0.6330892E-006  0.1502664E+03  0.7818608E-02  0.1330865E+00
          2   -1    0    0  502    0  0.00000000000E+00  0.00000000000E+00  0.11319070791E+04  0.11319070791E+04  0.00000000000E+00 0. -1.
          1   -1    0    0  501    0 -0.00000000000E+00 -0.00000000000E+00 -0.12076049004E+03  0.12076049004E+03  0.00000000000E+00 0. -1.
         25    2    1    2    0    0  0.40232414686E+02 -0.11035057274E+03  0.24984621880E+03  0.30305899650E+03  0.12500290483E+03 0.  0.
          2    1    1    2  501    0 -0.43649691008E+02  0.15212783665E+03 -0.26692785010E+02  0.16050133638E+03  0.00000000000E+00 0. -1.
          1    1    1    2  502    0  0.34172763228E+01 -0.41777263905E+02  0.78799315523E+03  0.78910723621E+03  0.00000000000E+00 0. -1.
         22    1    3    3    0    0  0.45810684598E+02 -0.11943088825E+03  0.12873626451E+03  0.18148107805E+03  0.00000000000E+00 0. -1.
         22    1    3    3    0    0 -0.55782699122E+01  0.90803155127E+01  0.12110995429E+03  0.12157791844E+03  0.00000000000E+00 0. -1.
</event>
<event>
 7    1  0.6330892E-006  0.7139894E+02  0.7818608E-02  0.1420018E+00
          2   -1    0    0  502    0  0.00000000000E+00  0.00000000000E+00  0.24813930649E+03  0.24813930649E+03  0.00000000000E+00 0. -1.
          1   -1    0    0  501    0 -0.00000000000E+00 -0.00000000000E+00 -0.39067006031E+03  0.39067006031E+03  0.00000000000E+00 0. -1.
         25    2    1    2    0    0  0.69471871515E+02  0.22210082380E+02 -0.13763154711E+03  0.19971983503E+03  0.12500376415E+03 0.  0.
          2    1    1    2  501    0 -0.70297310058E+02  0.20175696271E+02 -0.21378319901E+03  0.22594695550E+03  0.00000000000E+00 0. -1.
          1    1    1    2  502    0  0.82543854357E+00 -0.42385778651E+02  0.20888399231E+03  0.21314257628E+03  0.00000000000E+00 0. -1.
         22    1    3    3    0    0  0.88803205706E+02  0.47361493519E+02 -0.63281024409E+02  0.11888485380E+03  0.00000000000E+00 0.  1.
         22    1    3    3    0    0 -0.19331334192E+02 -0.25151411138E+02 -0.74350522704E+02  0.80834981228E+02  0.00000000000E+00 0.  1.
</event>
<event>
 7    1  0.6330892E-006  0.2979705E+02  0.7818608E-02  0.1669215E+00
          2   -1    0    0  502    0  0.00000000000E+00  0.00000000000E+00  0.11529313985E+03  0.11529313985E+03  0.00000000000E+00 0. -1.
          1   -1    0    0  501    0 -0.00000000000E+00 -0.00000000000E+00 -0.20125840658E+03  0.20125840658E+03  0.00000000000E+00 0. -1.
         25    2    1    2    0    0  0.10793026612E+02  0.13686998855E+02 -0.16826788933E+03  0.21033926954E+03  0.12499880947E+03 0.  0.
          2    1    1    2  501    0 -0.11615631208E+02  0.16332710334E+02  0.16029469812E+01  0.20105963151E+02  0.00000000000E+00 0. -1.
          1    1    1    2  502    0  0.82260459539E+00 -0.30019709189E+02  0.80699675623E+02  0.86106313728E+02  0.00000000000E+00 0. -1.
         22    1    3    3    0    0 -0.15084113687E+01 -0.19996681209E+01  0.20434191577E+02  0.20587135859E+02  0.00000000000E+00 0. -1.
         22    1    3    3    0    0  0.12301437981E+02  0.15686666976E+02 -0.18870208091E+03  0.18975213368E+03  0.00000000000E+00 0. -1.
</event>
<event>
 7    1  0.6330892E-006  0.1042839E+03  0.7818608E-02  0.1296606E+00
          2   -1    0    0  502    0  0.00000000000E+00  0.00000000000E+00  0.38266709888E+04  0.38266709888E+04  0.00000000000E+00 0. -1.
          1   -1    0    0  501    0 -0.00000000000E+00 -0.00000000000E+00 -0.89111825851E+02  0.89111825851E+02  0.00000000000E+00 0. -1.
         25    2    1    2    0    0  0.93613675224E+02 -0.11257416681E+03  0.40959785673E+03  0.45258271116E+03  0.12499697190E+03 0.  0.
          2    1    1    2  501    0 -0.12063056233E+02  0.10166278264E+03 -0.28074706300E+02  0.10615567735E+03  0.00000000000E+00 0. -1.
          1    1    1    2  502    0 -0.81550618991E+02  0.10911384167E+02  0.33560360125E+04  0.33570444261E+04  0.00000000000E+00 0. -1.
         22    1    3    3    0    0 -0.31016124018E+02 -0.18584354043E+02  0.68253959419E+02  0.77239763987E+02  0.00000000000E+00 0. -1.
         22    1    3    3    0    0  0.12462979924E+03 -0.93989812763E+02  0.34134389731E+03  0.37534294717E+03  0.00000000000E+00 0. -1.
</event>
<event>
 7    1  0.6330892E-006  0.4494088E+02  0.7818608E-02  0.1570244E+00
          2   -1    0    0  502    0  0.00000000000E+00  0.00000000000E+00  0.29769743256E+03  0.29769743256E+03  0.00000000000E+00 0. -1.
          1   -1    0    0  501    0 -0.00000000000E+00 -0.00000000000E+00 -0.10431364319E+03  0.10431364319E+03  0.00000000000E+00 0. -1.
         25    2    1    2    0    0  0.34201039300E+02  0.14982061506E+02  0.27143106394E+02  0.13325147086E+03  0.12500013202E+03 0.  0.
          2    1    1    2  501    0 -0.46257663281E+02  0.54929708259E+01 -0.39850869189E+02  0.61302821434E+02  0.00000000000E+00 0. -1.
          1    1    1    2  502    0  0.12056623981E+02 -0.20475032332E+02  0.20609155216E+03  0.20745678346E+03  0.00000000000E+00 0. -1.
         22    1    3    3    0    0  0.39531097186E+02  0.55011487179E+02 -0.20519563316E+02  0.70781521919E+02  0.00000000000E+00 0.  1.
         22    1    3    3    0    0 -0.53300578860E+01 -0.40029425673E+02  0.47662669710E+02  0.62469948941E+02  0.00000000000E+00 0.  1.
</event>
<event>
 7    1  0.6330892E-006  0.8263747E+02  0.7818608E-02  0.1369974E+00
          2   -1    0    0  502    0  0.00000000000E+00  0.00000000000E+00  0.26324977142E+03  0.26324977142E+03  0.00000000000E+00 0. -1.
          1   -1    0    0  501    0 -0.00000000000E+00 -0.00000000000E+00 -0.70258798186E+03  0.70258798186E+03  0.00000000000E+00 0. -1.
         25    2    1    2    0    0 -0.74905975025E+02 -0.63230041716E+02 -0.65049547794E+02  0.17164843992E+03  0.12499119965E+03 0.  0.
          2    1    1    2  501    0  0.22767464730E+02  0.79455131688E+02 -0.57769671818E+03  0.58357944926E+03  0.00000000000E+00 0. -1.
          1    1    1    2  502    0  0.52138510295E+02 -0.16225089971E+02  0.20340805554E+03  0.21060986410E+03  0.00000000000E+00 0. -1.
         22    1    3    3    0    0 -0.33086785328E+01 -0.46278258737E+02  0.27098075626E+02  0.53730161809E+02  0.00000000000E+00 0. -1.
         22    1    3    3    0    0 -0.71597296492E+02 -0.16951782979E+02 -0.92147623419E+02  0.11791827811E+03  0.00000000000E+00 0. -1.
</event>
<event>
 7    1  0.6330892E-006  0.5065966E+02  0.7818608E-02  0.1494727E+00
          2   -1    0    0  502    0  0.00000000000E+00  0.00000000000E+00  0.22692606358E+03  0.22692606358E+03  0.00000000000E+00 0. -1.
          1   -1    0    0  501    0 -0.00000000000E+00 -0.00000000000E+00 -0.46919612274E+03  0.46919612274E+03  0.00000000000E+00 0. -1.
         25    2    1    2    0    0  0.69635898901E+01  0.64019040534E+02  0.61124159793E+02  0.15332550788E+03  0.12500247727E+03 0.  0.
          2    1    1    2  501    0  0.24190396064E+02 -0.24798462738E+02 -0.41710597331E+03  0.41854215079E+03  0.00000000000E+00 0. -1.
          1    1    1    2  502    0 -0.31153985954E+02 -0.39220577796E+02  0.11371175436E+03  0.12425452765E+03  0.00000000000E+00 0. -1.
         22    1    3    3    0    0  0.16202826359E+02 -0.24087819571E+02  0.57791219584E+02  0.64672866758E+02  0.00000000000E+00 0. -1.
         22    1    3    3    0    0 -0.92392364686E+01  0.88106860105E+02  0.33329402086E+01  0.88652641125E+02  0.00000000000E+00 0. -1.
</event>
<event>
 7    1  0.6330892E-006  0.1281536E+03  0.7818608E-02  0.1288326E+00
          2   -1    0    0  502    0  0.00000000000E+00  0.00000000000E+00  0.14364470619E+04  0.14364470619E+04  0.00000000000E+00 0. -1.
          1   -1    0    0  501    0 -0.00000000000E+00 -0.00000000000E+00 -0.41921405222E+03  0.41921405222E+03  0.00000000000E+00 0. -1.
         25    2    1    2    0    0  0.84578332850E+02  0.16446725037E+03  0.22045302068E+03  0.31373282496E+03  0.12500312114E+03 0.  0.
          2    1    1    2  501    0 -0.58345986660E+02 -0.42746704251E+02 -0.36570741715E+03  0.37279142941E+03  0.00000000000E+00 0. -1.
          1    1    1    2  502    0 -0.26232346190E+02 -0.12172054612E+03  0.11624874062E+04  0.11691368598E+04  0.00000000000E+00 0. -1.
         22    1    3    3    0    0  0.69502110802E+02  0.15540137588E+03  0.23549805964E+03  0.29058469871E+03  0.00000000000E+00 0. -1.
         22    1    3    3    0    0  0.15076222049E+02  0.90658744894E+01 -0.15045038956E+02  0.23148126246E+02  0.00000000000E+00 0. -1.
</event>
<event>
 7    1  0.6330892E-006  0.4793762E+02  0.7818608E-02  0.1506116E+00
          2   -1    0    0  502    0  0.00000000000E+00  0.00000000000E+00  0.67055038060E+03  0.67055038060E+03  0.00000000000E+00 0. -1.
          1   -1    0    0  501    0 -0.00000000000E+00 -0.00000000000E+00 -0.18047100811E+04  0.18047100811E+04  0.00000000000E+00 0. -1.
         25    2    1    2    0    0 -0.57811705574E+02  0.41466371551E+02  0.10334006762E+03  0.17708516186E+03  0.12497332398E+03 0.  0.
          2    1    1    2  501    0  0.23955808534E+02 -0.41477521678E+02 -0.17669723324E+04  0.17676214213E+04  0.00000000000E+00 0. -1.
          1    1    1    2  502    0  0.33855897039E+02  0.11150127198E-01  0.52947256419E+03  0.53055387862E+03  0.00000000000E+00 0. -1.
         22    1    3    3    0    0 -0.81838298152E+02  0.52402855323E+02  0.34106399678E+02  0.10298938193E+03  0.00000000000E+00 0.  1.
         22    1    3    3    0    0  0.24026592578E+02 -0.10936483772E+02  0.69233667938E+02  0.74095779936E+02  0.00000000000E+00 0.  1.
</event>
<event>
 7    1  0.6330892E-006  0.5955636E+02  0.7818608E-02  0.1468699E+00
          2   -1    0    0  502    0  0.00000000000E+00  0.00000000000E+00  0.15878203625E+04  0.15878203625E+04  0.00000000000E+00 0. -1.
          1   -1    0    0  501    0 -0.00000000000E+00 -0.00000000000E+00 -0.46701855324E+03  0.46701855324E+03  0.00000000000E+00 0. -1.
         25    2    1    2    0    0 -0.45047878554E+02  0.58721580320E+02 -0.60369933155E+02  0.15730591390E+03  0.12499234521E+03 0.  0.
          2    1    1    2  501    0 -0.91870950005E+01 -0.34187730563E+02 -0.35672873288E+03  0.35848095138E+03  0.00000000000E+00 0. -1.
          1    1    1    2  502    0  0.54234973555E+02 -0.24533849757E+02  0.15379004753E+04  0.15390520505E+04  0.00000000000E+00 0. -1.
         22    1    3    3    0    0 -0.53471758162E+01  0.58235067423E+01 -0.86008807299E+02  0.86371409928E+02  0.00000000000E+00 0. -1.
         22    1    3    3    0    0 -0.39700702738E+02  0.52898073577E+02  0.25638874144E+02  0.70934503970E+02  0.00000000000E+00 0. -1.
</event>
<event>
 7    1  0.6330892E-006  0.7962775E+02  0.7818608E-02  0.1496200E+00
          2   -1    0    0  502    0  0.00000000000E+00  0.00000000000E+00  0.64612348728E+03  0.64612348728E+03  0.00000000000E+00 0. -1.
          1   -1    0    0  501    0 -0.00000000000E+00 -0.00000000000E+00 -0.80148766410E+03  0.80148766410E+03  0.00000000000E+00 0. -1.
         25    2    1    2    0    0  0.17334213771E+02 -0.96433539102E+02  0.23370179280E+02  0.16053514492E+03  0.12500186016E+03 0.  0.
          2    1    1    2  501    0 -0.12810683134E+02  0.17659611569E+02 -0.72993276330E+03  0.73025873115E+03  0.00000000000E+00 0. -1.
          1    1    1    2  502    0 -0.45235306374E+01  0.78773927533E+02  0.55119840720E+03  0.55681727532E+03  0.00000000000E+00 0. -1.
         22    1    3    3    0    0  0.10290560623E+02 -0.49843739144E+02 -0.51285658672E+02  0.72253115885E+02  0.00000000000E+00 0. -1.
         22    1    3    3    0    0  0.70436531486E+01 -0.46589799958E+02  0.74655837952E+02  0.88282029033E+02  0.00000000000E+00 0. -1.
</event>
<event>
 7    1  0.6330892E-006  0.8282692E+02  0.7818608E-02  0.1455178E+00
          2   -1    0    0  502    0  0.00000000000E+00  0.00000000000E+00  0.37968495889E+03  0.37968495889E+03  0.00000000000E+00 0. -1.
          1   -1    0    0  501    0 -0.00000000000E+00 -0.00000000000E+00 -0.12163474872E+04  0.12163474872E+04  0.00000000000E+00 0. -1.
         25    2    1    2    0    0 -0.10415019639E+03 -0.36954002597E+02 -0.42975002408E+03  0.46100197733E+03  0.12499951276E+03 0.  0.
          2    1    1    2  501    0  0.25708951739E+02  0.11278971322E+02 -0.76603306783E+03  0.76654734127E+03  0.00000000000E+00 0. -1.
          1    1    1    2  502    0  0.78441244651E+02  0.25675031275E+02  0.35912056357E+03  0.36848312753E+03  0.00000000000E+00 0. -1.
         22    1    3    3    0    0  0.29553900611E+01 -0.24246076283E+02 -0.80355687063E+01  0.25713360535E+02  0.00000000000E+00 0. -1.
         22    1    3    3    0    0 -0.10710558645E+03 -0.12707926313E+02 -0.42171445537E+03  0.43528861680E+03  0.00000000000E+00 0. -1.
</event>
<event>
 7    1  0.6330892E-006  0.2892142E+02  0.7818608E-02  0.1636214E+00
          2   -1    0    0  502    0  0.00000000000E+00  0.00000000000E+00  0.67913141072E+02  0.67913141072E+02  0.00000000000E+00 0. -1.
          1   -1    0    0  501    0 -0.00000000000E+00 -0.00000000000E+00 -0.13701009994E+04  0.13701009994E+04  0.00000000000E+00 0. -1.
         25    2    1    2    0    0 -0.34395961912E+02 -0.38748673536E+02 -0.90129331864E+03  0.91139438792E+03  0.12500216876E+03 0.  0.
          2    1    1    2  501    0  0.16355887872E+02  0.21639185979E+02 -0.46088423699E+03  0.46168176198E+03  0.00000000000E+00 0. -1.
          1    1    1    2  502    0  0.18040074040E+02  0.17109487557E+02  0.59989697313E+02  0.64937990572E+02  0.00000000000E+00 0. -1.
         22    1    3    3    0    0  0.19400041513E+02 -0.29712918880E+02 -0.74519100203E+03  0.74603542052E+03  0.00000000000E+00 0. -1.
         22    1    3    3    0    0 -0.53796003425E+02 -0.90357546560E+01 -0.15610231661E+03  0.16535896740E+03  0.00000000000E+00 0. -1.
</event>
<event>
 7    1  0.6330892E-006  0.8144566E+02  0.7818608E-02  0.1331482E+00
          2   -1    0    0  502    0  0.00000000000E+00  0.00000000000E+00  0.41851298381E+02  0.41851298381E+02  0.00000000000E+00 0. -1.
          1   -1    0    0  501    0 -0.00000000000E+00 -0.00000000000E+00 -0.28309146302E+04  0.28309146302E+04  0.00000000000E+00 0. -1.
         25    2    1    2    0    0 -0.10607056474E+03 -0.52080513004E+02 -0.27823836451E+03  0.32710449444E+03  0.12496966935E+03 0.  0.
          2    1    1    2  501    0  0.32463253715E+02  0.74404784379E+02 -0.24392264817E+04  0.24405769326E+04  0.00000000000E+00 0. -1.
          1    1    1    2  502    0  0.73607311027E+02 -0.22324271375E+02 -0.71598485618E+02  0.10508450158E+03  0.00000000000E+00 0. -1.
         22    1    3    3    0    0 -0.13449354010E+03 -0.50005324381E+02 -0.23286381588E+03  0.27352257958E+03  0.00000000000E+00 0. -1.
         22    1    3    3    0    0  0.28422975363E+02 -0.20751886228E+01 -0.45374548635E+02  0.53581914860E+02  0.00000000000E+00 0. -1.
</event>
<event>
 7    1  0.6330892E-006  0.1037736E+03  0.7818608E-02  0.1393563E+00
          2   -1    0    0  502    0  0.00000000000E+00  0.00000000000E+00  0.56852745333E+03  0.56852745333E+03  0.00000000000E+00 0. -1.
          1   -1    0    0  501    0 -0.00000000000E+00 -0.00000000000E+00 -0.24788465248E+03  0.24788465248E+03  0.00000000000E+00 0. -1.
         25    2    1    2    0    0 -0.79462655078E+02  0.58314482367E+02  0.20279307523E+02  0.16046905014E+03  0.12499669329E+03 0.  0.
          2    1    1    2  501    0 -0.21029576091E+02 -0.29084935478E+02 -0.17016861609E+03  0.17391243327E+03  0.00000000000E+00 0. -1.
          1    1    1    2  502    0  0.10049223117E+03 -0.29229546889E+02  0.47053210942E+03  0.48203062240E+03  0.00000000000E+00 0. -1.
         22    1    3    3    0    0 -0.10594825330E+03  0.17425512204E+02  0.28436233476E+02  0.11107340018E+03  0.00000000000E+00 0. -1.
         22    1    3    3    0    0  0.26485598222E+02  0.40888970163E+02 -0.81569259529E+01  0.49395649961E+02  0.00000000000E+00 0. -1.
</event>
<event>
 7    1  0.6330892E-006  0.1154272E+03  0.7818608E-02  0.1327092E+00
          2   -1    0    0  502    0  0.00000000000E+00  0.00000000000E+00  0.63084374571E+03  0.63084374571E+03  0.00000000000E+00 0. -1.
          1   -1    0    0  501    0 -0.00000000000E+00 -0.00000000000E+00 -0.40875443752E+03  0.40875443752E+03  0.00000000000E+00 0. -1.
         25    2    1    2    0    0  0.41062005400E+02 -0.69801004088E+02 -0.12975180778E+03  0.19753151965E+03  0.12499960469E+03 0.  0.
          2    1    1    2  501    0  0.56198487216E+02  0.49166564981E+01 -0.23603203148E+03  0.24267996078E+03  0.00000000000E+00 0. -1.
          1    1    1    2  502    0 -0.97260492616E+02  0.64884347590E+02  0.58787314746E+03  0.59938670280E+03  0.00000000000E+00 0. -1.
         22    1    3    3    0    0  0.66093468798E+02 -0.92853057347E+02 -0.90145064758E+02  0.14531403778E+03  0.00000000000E+00 0. -1.
         22    1    3    3    0    0 -0.25031463398E+02  0.23052053259E+02 -0.39606743027E+02  0.52217481867E+02  0.00000000000E+00 0. -1.
</event>
<event>
 7    1  0.6330892E-006  0.9705873E+02  0.7818608E-02  0.1377827E+00
          2   -1    0    0  502    0  0.00000000000E+00  0.00000000000E+00  0.10254291971E+04  0.10254291971E+04  0.00000000000E+00 0. -1.
          1   -1    0    0  501    0 -0.00000000000E+00 -0.00000000000E+00 -0.51337095303E+02  0.51337095303E+02  0.00000000000E+00 0. -1.
         25    2    1    2    0    0 -0.44467618498E+02  0.68638679797E+02  0.57795256415E+03  0.59694584036E+03  0.12500612969E+03 0.  0.
          2    1    1    2  501    0  0.12799025202E+02 -0.98580029069E+02  0.20295582591E+02  0.10145810884E+03  0.00000000000E+00 0. -1.
          1    1    1    2  502    0  0.31668593296E+02  0.29941349272E+02  0.37584395508E+03  0.37836234322E+03  0.00000000000E+00 0. -1.
         22    1    3    3    0    0  0.37616396663E+02  0.28741557944E+02  0.10374476858E+03  0.11403529041E+03  0.00000000000E+00 0.  1.
         22    1    3    3    0    0 -0.82084015161E+02  0.39897121853E+02  0.47420779557E+03  0.48291054995E+03  0.00000000000E+00 0.  1.
</event>
<event>
 7    1  0.6330892E-006  0.1698759E+03  0.7818608E-02  0.1325103E+00
          2   -1    0    0  502    0  0.00000000000E+00  0.00000000000E+00  0.14052183655E+04  0.14052183655E+04  0.00000000000E+00 0. -1.
          1   -1    0    0  501    0 -0.00000000000E+00 -0.00000000000E+00 -0.12847998620E+04  0.12847998620E+04  0.00000000000E+00 0. -1.
         25    2    1    2    0    0 -0.97955185389E+02  0.17105453739E+03 -0.60109027657E+03  0.64481739576E+03  0.12500032073E+03 0.  0.
          2    1    1    2  501    0  0.78227511854E+02 -0.13739778374E+03 -0.65212272039E+03  0.67101545216E+03  0.00000000000E+00 0. -1.
          1    1    1    2  502    0  0.19727673535E+02 -0.33656753651E+02  0.13736315005E+04  0.13741853795E+04  0.00000000000E+00 0. -1.
         22    1    3    3    0    0  0.17862327959E+02  0.11896257414E+01 -0.12440915096E+03  0.12569055180E+03  0.00000000000E+00 0.  1.
         22    1    3    3    0    0 -0.11581751335E+03  0.16986491165E+03 -0.47668112561E+03  0.51912684396E+03  0.00000000000E+00 0.  1.
</event>
<event>
 7    1  0.6330892E-006  0.7008122E+02  0.7818608E-02  0.1396141E+00
          2   -1    0    0  502    0  0.00000000000E+00  0.00000000000E+00  0.15659710277E+04  0.15659710277E+04  0.00000000000E+00 0. -1.
          1   -1    0    0  501    0 -0.00000000000E+00 -0.00000000000E+00 -0.31712079005E+03  0.31712079005E+03  0.00000000000E+00 0. -1.
         25    2    1    2    0    0 -0.67064352736E+02  0.25505062153E+02 -0.39599933335E+02  0.14947126521E+03  0.12500147519E+03 0.  0.
          2    1    1    2  501    0  0.32144248546E+02 -0.64122048104E+02 -0.21634471006E+03  0.22792525823E+03  0.00000000000E+00 0. -1.
          1    1    1    2  502    0  0.34920104189E+02  0.38616985951E+02  0.15047948811E+04  0.15056952943E+04  0.00000000000E+00 0. -1.
         22    1    3    3    0    0 -0.36389265088E+02 -0.24168669158E+02  0.34122670102E+02  0.55431577620E+02  0.00000000000E+00 0. -1.
         22    1    3    3    0    0 -0.30675087648E+02  0.49673731311E+02 -0.73722603436E+02  0.94039687590E+02  0.00000000000E+00 0. -1.
</event>
<event>
 7    1  0.6330892E-006  0.6541275E+02  0.7818608E-02  0.1397637E+00
          2   -1    0    0  502    0  0.00000000000E+00  0.00000000000E+00  0.28778157830E+04  0.28778157830E+04  0.00000000000E+00 0. -1.
          1   -1    0    0  501    0 -0.00000000000E+00 -0.00000000000E+00 -0.14139277275E+02  0.14139277275E+02  0.00000000000E+00 0. -1.
         25    2    1    2    0    0 -0.35737928606E+02 -0.12066555512E+02  0.50227565213E+03  0.51896862046E+03  0.12499918801E+03 0.  0.
          2    1    1    2  501    0  0.50379052563E+02 -0.51686607436E+02  0.24098270020E+03  0.25155956774E+03  0.00000000000E+00 0. -1.
          1    1    1    2  502    0 -0.14641123957E+02  0.63753162948E+02  0.21204181534E+04  0.21214268721E+04  0.00000000000E+00 0. -1.
         22    1    3    3    0    0 -0.24525546550E+02  0.55180495621E+02  0.28161117756E+03  0.28801257760E+03  0.00000000000E+00 0. -1.
         22    1    3    3    0    0 -0.11212382056E+02 -0.67247051133E+02  0.22066447457E+03  0.23095604286E+03  0.00000000000E+00 0. -1.
</event>
<event>
 7    1  0.6330892E-006  0.6593994E+02  0.7818608E-02  0.1425034E+00
          2   -1    0    0  502    0  0.00000000000E+00  0.00000000000E+00  0.41871119455E+03  0.41871119455E+03  0.00000000000E+00 0. -1.
          1   -1    0    0  501    0 -0.00000000000E+00 -0.00000000000E+00 -0.20539734214E+04  0.20539734214E+04  0.00000000000E+00 0. -1.
         25    2    1    2    0    0 -0.18802323063E+02  0.14355621064E+02 -0.11549262362E+03  0.17182308760E+03  0.12500006445E+03 0.  0.
          2    1    1    2  501    0  0.61110586763E+02 -0.27054433270E+02 -0.19084797405E+04  0.19096495401E+04  0.00000000000E+00 0. -1.
          1    1    1    2  502    0 -0.42308263699E+02  0.12698812206E+02  0.38871013721E+03  0.39121198829E+03  0.00000000000E+00 0. -1.
         22    1    3    3    0    0 -0.21471331427E+02 -0.33475369938E+02  0.69230771800E+01  0.40367653677E+02  0.00000000000E+00 0.  1.
         22    1    3    3    0    0  0.26690083636E+01  0.47830991002E+02 -0.12241570080E+03  0.13145543392E+03  0.00000000000E+00 0.  1.
</event>
<event>
 7    1  0.6330892E-006  0.1003533E+03  0.7818608E-02  0.1452585E+00
          2   -1    0    0  502    0  0.00000000000E+00  0.00000000000E+00  0.35781994949E+03  0.35781994949E+03  0.00000000000E+00 0. -1.
          1   -1    0    0  501    0 -0.00000000000E+00 -0.00000000000E+00 -0.41562817322E+03  0.41562817322E+03  0.00000000000E+00 0. -1.
         25    2    1    2    0    0  0.60322689237E+02  0.10673000013E+03 -0.15781563490E+03  0.23571400478E+03  0.12500079065E+03 0.  0.
          2    1    1    2  501    0 -0.76438150586E+01 -0.22344223661E+02 -0.21042810645E+03  0.21174909733E+03  0.00000000000E+00 0. -1.
          1    1    1    2  502    0 -0.52678874178E+02 -0.84385776473E+02  0.31043551762E+03  0.32598502060E+03  0.00000000000E+00 0. -1.
         22    1    3    3    0    0  0.58683081764E+02  0.10313494227E+03 -0.17867240799E+03  0.21448624613E+03  0.00000000000E+00 0.  1.
         22    1    3    3    0    0  0.16396074731E+01  0.35950578629E+01  0.20856773086E+02  0.21227758649E+02  0.00000000000E+00 0.  1.
</event>
<event>
 7    1  0.6330892E-006  0.5772608E+02  0.7818608E-02  0.1428593E+00
          2   -1    0    0  502    0  0.00000000000E+00  0.00000000000E+00  0.14604416273E+03  0.14604416273E+03  0.00000000000E+00 0. -1.
          1   -1    0    0  501    0 -0.00000000000E+00 -0.00000000000E+00 -0.65577137912E+03  0.65577137912E+03  0.00000000000E+00 0. -1.
         25    2    1    2    0    0 -0.16655233050E+01  0.75193419873E+02 -0.42876840583E+02  0.15205319996E+03  0.12499971120E+03 0.  0.
          2    1    1    2  501    0 -0.36915923150E+02 -0.32386840051E+02 -0.54802011385E+03  0.55021608299E+03  0.00000000000E+00 0. -1.
          1    1    1    2  502    0  0.38581446455E+02 -0.42806579822E+02  0.81169738042E+02  0.99546258897E+02  0.00000000000E+00 0. -1.
         22    1    3    3    0    0  0.45101118173E+02  0.56395743551E+02 -0.64860740231E+02  0.97064444440E+02  0.00000000000E+00 0.  1.
         22    1    3    3    0    0 -0.46766641477E+02  0.18797676322E+02  0.21983899648E+02  0.54988755522E+02  0.00000000000E+00 0.  1.
</event>
<event>
 7    1  0.6330892E-006  0.1009874E+03  0.7818608E-02  0.1319760E+00
          2   -1    0    0  502    0  0.00000000000E+00  0.00000000000E+00  0.25515167537E+04  0.25515167537E+04  0.00000000000E+00 0. -1.
          1   -1    0    0  501    0 -0.00000000000E+00 -0.00000000000E+00 -0.11652673972E+03  0.11652673972E+03  0.00000000000E+00 0. -1.
         25    2    1    2    0    0 -0.47169864101E+02  0.34518700614E+02  0.97642750015E+02  0.16903983833E+03  0.12499529408E+03 0.  0.
          2    1    1    2  501    0  0.11435529146E+03 -0.19607368373E+02 -0.38435241755E+02  0.12222458586E+03  0.00000000000E+00 0. -1.
          1    1    1    2  502    0 -0.67185427357E+02 -0.14911332241E+02  0.23757825057E+04  0.23767790692E+04  0.00000000000E+00 0. -1.
         22    1    3    3    0    0 -0.42849868466E+02 -0.18104010359E+02  0.10583651581E+03  0.11560810740E+03  0.00000000000E+00 0.  1.
         22    1    3    3    0    0 -0.43199956350E+01  0.52622710973E+02 -0.81937657936E+01  0.53431730931E+02  0.00000000000E+00 0.  1.
</event>
<event>
 7    1  0.6330892E-006  0.2483298E+03  0.7818608E-02  0.1260122E+00
          2   -1    0    0  502    0  0.00000000000E+00  0.00000000000E+00  0.66816729074E+03  0.66816729074E+03  0.00000000000E+00 0. -1.
          1   -1    0    0  501    0 -0.00000000000E+00 -0.00000000000E+00 -0.22256347137E+04  0.22256347137E+04  0.00000000000E+00 0. -1.
         25    2    1    2    0    0  0.28263478276E+03  0.44045182702E+02 -0.26246628463E+03  0.40784286368E+03  0.12499940936E+03 0.  0.
          2    1    1    2  501    0 -0.23666565044E+03 -0.60837515974E+02 -0.18815604219E+04  0.18973617090E+04  0.00000000000E+00 0. -1.
          1    1    1    2  502    0 -0.45969132318E+02  0.16792333272E+02  0.58655928357E+03  0.58859743180E+03  0.00000000000E+00 0. -1.
         22    1    3    3    0    0  0.25584877282E+03  0.77347224075E+02 -0.24155359778E+03  0.36026285990E+03  0.00000000000E+00 0. -1.
         22    1    3    3    0    0  0.26786009938E+02 -0.33302041372E+02 -0.20912686856E+02  0.47580003778E+02  0.00000000000E+00 0. -1.
</event>
<event>
 7    1  0.6330892E-006  0.1233097E+03  0.7818608E-02  0.1320608E+00
          2   -1    0    0  502    0  0.00000000000E+00  0.00000000000E+00  0.20659302868E+04  0.20659302868E+04  0.00000000000E+00 0. -1.
          1   -1    0    0  501    0 -0.00000000000E+00 -0.00000000000E+00 -0.44800624284E+02  0.44800624284E+02  0.00000000000E+00 0. -1.
         25    2    1    2    0    0  0.99253308398E+02 -0.92826639425E+02  0.15198409101E+04  0.15310157316E+04  0.12499909744E+03 0.  0.
          2    1    1    2  501    0  0.90909132275E+01  0.55193169000E+02 -0.90347778363E+01  0.56661784459E+02  0.00000000000E+00 0. -1.
          1    1    1    2  502    0 -0.10834422163E+03  0.37633470426E+02  0.51032353032E+03  0.52305339503E+03  0.00000000000E+00 0. -1.
         22    1    3    3    0    0  0.10625403916E+03 -0.39852226383E+02  0.12928151408E+04  0.12977862340E+04  0.00000000000E+00 0. -1.
         22    1    3    3    0    0 -0.70007307654E+01 -0.52974413042E+02  0.22702576926E+03  0.23322949765E+03  0.00000000000E+00 0. -1.
</event>
<event>
 7    1  0.6330892E-006  0.5411443E+02  0.7818608E-02  0.1472335E+00
          2   -1    0    0  502    0  0.00000000000E+00  0.00000000000E+00  0.14715643453E+04  0.14715643453E+04  0.00000000000E+00 0. -1.
          1   -1    0    0  501    0 -0.00000000000E+00 -0.00000000000E+00 -0.89962214151E+02  0.89962214151E+02  0.00000000000E+00 0. -1.
         25    2    1    2    0    0  0.52778898178E+02  0.19323462365E+02  0.27163233465E+03  0.30425096843E+03  0.12500207307E+03 0.  0.
          2    1    1    2  501    0 -0.51215950108E+02  0.18604249814E+02 -0.63225412715E+02  0.83466427200E+02  0.00000000000E+00 0. -1.
          1    1    1    2  502    0 -0.15629480697E+01 -0.37927712178E+02  0.11731952092E+04  0.11738091639E+04  0.00000000000E+00 0. -1.
         22    1    3    3    0    0  0.79611016957E+02 -0.72472647664E+01  0.24586734662E+03  0.25853662990E+03  0.00000000000E+00 0. -1.
         22    1    3    3    0    0 -0.26832118780E+02  0.26570727131E+02  0.25764988030E+02  0.45714338524E+02  0.00000000000E+00 0. -1.
</event>
<event>
 7    1  0.6330892E-006  0.4309438E+02  0.7818608E-02  0.1540629E+00
          2   -1    0    0  502    0  0.00000000000E+00  0.00000000000E+00  0.32819428444E+03  0.32819428444E+03  0.00000000000E+00 0. -1.
          1   -1    0    0  501    0 -0.00000000000E+00 -0.00000000000E+00 -0.51190141511E+02  0.51190141511E+02  0.00000000000E+00 0. -1.
         25    2    1    2    0    0 -0.41725678742E+02 -0.42506322084E+02  0.12806924283E+03  0.18861170605E+03  0.12499930005E+03 0.  0.
          2    1    1    2  501    0  0.39618849285E+02  0.12650159099E+02  0.28870450571E+01  0.41689504351E+02  0.00000000000E+00 0. -1.
          1    1    1    2  502    0  0.21068294570E+01  0.29856162985E+02  0.14604785503E+03  0.14908321555E+03  0.00000000000E+00 0. -1.
         22    1    3    3    0    0  0.16238613955E+02 -0.71428699577E+02  0.60487525946E+02  0.94997328918E+02  0.00000000000E+00 0.  1.
         22    1    3    3    0    0 -0.57964292697E+02  0.28922377493E+02  0.67581716887E+02  0.93614377128E+02  0.00000000000E+00 0.  1.
</event>
<event>
 7    1  0.6330892E-006  0.1153411E+03  0.7818608E-02  0.1336759E+00
          2   -1    0    0  502    0  0.00000000000E+00  0.00000000000E+00  0.23338281076E+02  0.23338281076E+02  0.00000000000E+00 0. -1.
          1   -1    0    0  501    0 -0.00000000000E+00 -0.00000000000E+00 -0.22302481343E+04  0.22302481343E+04  0.00000000000E+00 0. -1.
         25    2    1    2    0    0 -0.47132137034E+02 -0.93984474252E+02 -0.84804016795E+03  0.86362767191E+03  0.12500443784E+03 0.  0.
          2    1    1    2  501    0  0.44549801192E+02 -0.26559472514E+02 -0.11307186444E+04  0.11319075683E+04  0.00000000000E+00 0. -1.
          1    1    1    2  502    0  0.25823358416E+01  0.12054394677E+03 -0.22815104089E+03  0.25805117520E+03  0.00000000000E+00 0. -1.
         22    1    3    3    0    0 -0.74080191538E+02 -0.33722073244E+02 -0.27485468623E+03  0.28665336479E+03  0.00000000000E+00 0.  1.
         22    1    3    3    0    0  0.26948054504E+02 -0.60262401008E+02 -0.57318548173E+03  0.57697430712E+03  0.00000000000E+00 0.  1.
</event>
<event>
 7    1  0.6330892E-006  0.1381266E+03  0.7818608E-02  0.1249920E+00
          2   -1    0    0  502    0  0.00000000000E+00  0.00000000000E+00  0.30193578702E+04  0.30193578702E+04  0.00000000000E+00 0. -1.
          1   -1    0    0  501    0 -0.00000000000E+00 -0.00000000000E+00 -0.43070975995E+03  0.43070975995E+03  0.00000000000E+00 0. -1.
         25    2    1    2    0    0 -0.99816505137E+02  0.77450198161E+02  0.29309780926E+03  0.34277160914E+03  0.12499672933E+03 0.  0.
          2    1    1    2  501    0  0.13932337641E+03  0.11517880226E+02 -0.39292774076E+03  0.41705620034E+03  0.00000000000E+00 0. -1.
          1    1    1    2  502    0 -0.39506871277E+02 -0.88968078387E+02  0.26884780418E+04  0.26902398207E+04  0.00000000000E+00 0. -1.
         22    1    3    3    0    0  0.80501101355E+01 -0.26605628040E+02  0.42906766942E+02  0.51123911881E+02  0.00000000000E+00 0. -1.
         22    1    3    3    0    0 -0.10786661527E+03  0.10405582620E+03  0.25019104232E+03  0.29164769726E+03  0.00000000000E+00 0. -1.
</event>
<event>
 7    1  0.6330892E-006  0.1840459E+03  0.7818608E-02  0.1251148E+00
          2   -1    0    0  502    0  0.00000000000E+00  0.00000000000E+00  0.27566919353E+03  0.27566919353E+03  0.00000000000E+00 0. -1.
          1   -1    0    0  501    0 -0.00000000000E+00 -0.00000000000E+00 -0.15715576640E+04  0.15715576640E+04  0.00000000000E+00 0. -1.
         25    2    1    2    0    0 -0.11895527207E+03  0.27771042384E+02 -0.31575094338E+03  0.36089103363E+03  0.12498836891E+03 0.  0.
          2    1    1    2  501    0 -0.58517606495E+02  0.42236754082E+02 -0.11960418243E+04  0.11982171335E+04  0.00000000000E+00 0. -1.
          1    1    1    2  502    0  0.17747287857E+03 -0.70007796467E+02  0.21590429719E+03  0.28811869037E+03  0.00000000000E+00 0. -1.
         22    1    3    3    0    0 -0.11252637412E+03  0.69650952717E+02 -0.24312834853E+03  0.27681191077E+03  0.00000000000E+00 0.  1.
         22    1    3    3    0    0 -0.64288979577E+01 -0.41879910333E+02 -0.72622594847E+02  0.84079122859E+02  0.00000000000E+00 0.  1.
</event>
<event>
 7    1  0.6330892E-006  0.6395844E+02  0.7818608E-02  0.1430277E+00
          2   -1    0    0  502    0  0.00000000000E+00  0.00000000000E+00  0.18831780310E+04  0.18831780310E+04  0.00000000000E+00 0. -1.
          1   -1    0    0  501    0 -0.00000000000E+00 -0.00000000000E+00 -0.14569360717E+03  0.14569360717E+03  0.00000000000E+00 0. -1.
         25    2    1    2    0    0  0.32813602782E+02  0.52978412153E+02  0.13593441344E+03  0.19490247275E+03  0.12500145778E+03 0.  0.
          2    1    1    2  501    0  0.95057623132E+01 -0.64117993025E+02 -0.10686896942E+03  0.12498981227E+03  0.00000000000E+00 0. -1.
          1    1    1    2  502    0 -0.42319365095E+02  0.11139580872E+02  0.17084189798E+04  0.17089793532E+04  0.00000000000E+00 0. -1.
         22    1    3    3    0    0 -0.22558924352E+02 -0.15484359316E+02 -0.58696586272E+01  0.27984341045E+02  0.00000000000E+00 0. -1.
         22    1    3    3    0    0  0.55372527134E+02  0.68462771469E+02  0.14180407206E+03  0.16691813171E+03  0.00000000000E+00 0. -1.
</event>
<event>
 7    1  0.6330892E-006  0.5675964E+02  0.7818608E-02  0.1551278E+00
          2   -1    0    0  502    0  0.00000000000E+00  0.00000000000E+00  0.12711040558E+04  0.12711040558E+04  0.00000000000E+00 0. -1.
          1   -1    0    0  501    0 -0.00000000000E+00 -0.00000000000E+00 -0.74288585214E+02  0.74288585214E+02  0.00000000000E+00 0. -1.
         25    2    1    2    0    0 -0.37510032114E+02 -0.29722439240E+02  0.21416790607E+03  0.25255427694E+03  0.12500137961E+03 0.  0.
          2    1    1    2  501    0  0.54813225714E+02  0.17448770609E+02 -0.39940709869E+02  0.70030062214E+02  0.00000000000E+00 0. -1.
          1    1    1    2  502    0 -0.17303193600E+02  0.12273668631E+02  0.10225882744E+04  0.10228083018E+04  0.00000000000E+00 0. -1.
         22    1    3    3    0    0 -0.26654880044E+02 -0.39843574498E+02  0.11439615559E+02  0.49283444108E+02  0.00000000000E+00 0.  1.
         22    1    3    3    0    0 -0.10855152069E+02  0.10121135259E+02  0.20272829052E+03  0.20327083283E+03  0.00000000000E+00 0.  1.
</event>
<event>
 7    1  0.6330892E-006  0.9792625E+02  0.7818608E-02  0.1387357E+00
          2   -1    0    0  502    0  0.00000000000E+00  0.00000000000E+00  0.15577466559E+04  0.15577466559E+04  0.00000000000E+00 0. -1.
          1   -1    0    0  501    0 -0.00000000000E+00 -0.00000000000E+00 -0.12540355400E+03  0.12540355400E+03  0.00000000000E+00 0. -1.
         25    2    1    2    0    0  0.19387927275E+02  0.12899534552E+03  0.28750097278E+03  0.33955428592E+03  0.12499845138E+03 0.  0.
          2    1    1    2  501    0 -0.22143805387E+02 -0.33284478260E+02 -0.93431902992E+02  0.10162541565E+03  0.00000000000E+00 0. -1.
          1    1    1    2  502    0  0.27558781117E+01 -0.95710867256E+02  0.12382740321E+04  0.12419705083E+04  0.00000000000E+00 0. -1.
         22    1    3    3    0    0  0.40314287426E+02  0.23152135900E+02  0.18494046997E+03  0.19069410216E+03  0.00000000000E+00 0. -1.
         22    1    3    3    0    0 -0.20926360151E+02  0.10584320962E+03  0.10256050281E+03  0.14886018376E+03  0.00000000000E+00 0. -1.
</event>
<event>
 7    1  0.6330892E-006  0.5035539E+02  0.7818608E-02  0.1482713E+00
          2   -1    0    0  502    0  0.00000000000E+00  0.00000000000E+00  0.78756742657E+03  0.78756742657E+03  0.00000000000E+00 0. -1.
          1   -1    0    0  501    0 -0.00000000000E+00 -0.00000000000E+00 -0.24304555379E+03  0.24304555379E+03  0.00000000000E+00 0. -1.
         25    2    1    2    0    0 -0.61670506092E+02  0.12405451209E+02  0.22436795769E+03  0.26442622416E+03  0.12499240395E+03 0.  0.
          2    1    1    2  501    0  0.45383498636E+02  0.21817074065E+02 -0.21950085129E+03  0.22520273174E+03  0.00000000000E+00 0. -1.
          1    1    1    2  502    0  0.16287007456E+02 -0.34222525274E+02  0.53965476637E+03  0.54098402446E+03  0.00000000000E+00 0. -1.
         22    1    3    3    0    0 -0.23576429875E+02  0.10049406900E+02 -0.95983650275E+01  0.27367265773E+02  0.00000000000E+00 0. -1.
         22    1    3    3    0    0 -0.38094076217E+02  0.23560443088E+01  0.23396632271E+03  0.23705895839E+03  0.00000000000E+00 0. -1.
</event>
<event>
 7    1  0.6330892E-006  0.1147617E+03  0.7818608E-02  0.1317122E+00
          2   -1    0    0  502    0  0.00000000000E+00  0.00000000000E+00  0.31233882291E+04  0.31233882291E+04  0.00000000000E+00 0. -1.
          1   -1    0    0  501    0 -0.00000000000E+00 -0.00000000000E+00 -0.22594252285E+03  0.22594252285E+03  0.00000000000E+00 0. -1.
         25    2    1    2    0    0  0.13732398615E+03  0.15517537992E+02  0.91420300598E+03  0.93300124686E+03  0.12500207736E+03 0.  0.
          2    1    1    2  501    0 -0.30979184858E+02 -0.53714968785E+02 -0.21062028702E+03  0.21955845023E+03  0.00000000000E+00 0. -1.
          1    1    1    2  502    0 -0.10634480129E+03  0.38197430793E+02  0.21938629873E+04  0.21967710549E+04  0.00000000000E+00 0. -1.
         22    1    3    3    0    0 -0.14443873511E+02  0.30169620389E+02  0.14165751273E+03  0.14555302261E+03  0.00000000000E+00 0. -1.
         22    1    3    3    0    0  0.15176785966E+03 -0.14652082397E+02  0.77254549325E+03  0.78744822425E+03  0.00000000000E+00 0. -1.
</event>
<event>
 7    1  0.6330892E-006  0.2262464E+03  0.7818608E-02  0.1237003E+00
          2   -1    0    0  502    0  0.00000000000E+00  0.00000000000E+00  0.11214769953E+04  0.11214769953E+04  0.00000000000E+00 0. -1.
          1   -1    0    0  501    0 -0.00000000000E+00 -0.00000000000E+00 -0.18959947209E+03  0.18959947209E+03  0.00000000000E+00 0. -1.
         25    2    1    2    0    0 -0.98474448299E+02  0.18715105289E+03  0.11807062640E+03  0.27255854562E+03  0.12499901763E+03 0.  0.
          2    1    1    2  501    0 -0.63592905240E+02 -0.23252102147E+02 -0.86114739121E+02  0.10954663913E+03  0.00000000000E+00 0. -1.
          1    1    1    2  502    0  0.16206735354E+03 -0.16389895074E+03  0.89992163591E+03  0.92897128261E+03  0.00000000000E+00 0. -1.
         22    1    3    3    0    0 -0.20943145659E+02  0.51399939265E+02  0.10106812245E+03  0.11530539659E+03  0.00000000000E+00 0.  1.
         22    1    3    3    0    0 -0.77531302641E+02  0.13575111363E+03  0.17002503942E+02  0.15725314903E+03  0.00000000000E+00 0.  1.
</event>
<event>
 7    1  0.6330892E-006  0.1061503E+03  0.7818608E-02  0.1296122E+00
          2   -1    0    0  502    0  0.00000000000E+00  0.00000000000E+00  0.18498549393E+03  0.18498549393E+03  0.00000000000E+00 0. -1.
          1   -1    0    0  501    0 -0.00000000000E+00 -0.00000000000E+00 -0.16838444750E+04  0.16838444750E+04  0.00000000000E+00 0. -1.
         25    2    1    2    0    0 -0.74654301308E+02 -0.12382196145E+03 -0.87828459857E+02  0.21034054072E+03  0.12499664742E+03 0.  0.
          2    1    1    2  501    0  0.78574656551E+02  0.20458501806E+02 -0.15118601122E+04  0.15140388125E+04  0.00000000000E+00 0. -1.
          1    1    1    2  502    0 -0.39203552427E+01  0.10336345964E+03  0.10082959095E+03  0.14445061573E+03  0.00000000000E+00 0. -1.
         22    1    3    3    0    0  0.32793803472E+02 -0.40381192006E+02 -0.80708651123E+01  0.52642312617E+02  0.00000000000E+00 0.  1.
         22    1    3    3    0    0 -0.10744810478E+03 -0.83440769444E+02 -0.79757594745E+02  0.15769822810E+03  0.00000000000E+00 0.  1.
</event>
<event>
 7    1  0.6330892E-006  0.7698221E+02  0.7818608E-02  0.1337846E+00
          2   -1    0    0  502    0  0.00000000000E+00  0.00000000000E+00  0.25601585115E+03  0.25601585115E+03  0.00000000000E+00 0. -1.
          1   -1    0    0  501    0 -0.00000000000E+00 -0.00000000000E+00 -0.17980326237E+04  0.17980326237E+04  0.00000000000E+00 0. -1.
         25    2    1    2    0    0  0.18375294152E+02 -0.24237533806E+02 -0.78182044481E+03  0.79233467473E+03  0.12500367749E+03 0.  0.
          2    1    1    2  501    0 -0.11308032185E+02  0.10089465704E+03 -0.10024215783E+04  0.10075498122E+04  0.00000000000E+00 0. -1.
          1    1    1    2  502    0 -0.70672619671E+01 -0.76657123235E+02  0.24222525057E+03  0.25416398791E+03  0.00000000000E+00 0. -1.
         22    1    3    3    0    0 -0.42456176259E+02 -0.45380019033E+02 -0.45554222150E+03  0.45976144749E+03  0.00000000000E+00 0. -1.
         22    1    3    3    0    0  0.60831470411E+02  0.21142485226E+02 -0.32627822330E+03  0.33257322724E+03  0.00000000000E+00 0. -1.
</event>
<event>
 7    1  0.6330892E-006  0.8146042E+02  0.7818608E-02  0.1346201E+00
          2   -1    0    0  502    0  0.00000000000E+00  0.00000000000E+00  0.19815906315E+04  0.19815906315E+04  0.00000000000E+00 0. -1.
          1   -1    0    0  501    0 -0.00000000000E+00 -0.00000000000E+00 -0.59302176455E+02  0.59302176455E+02  0.00000000000E+00 0. -1.
         25    2    1    2    0    0 -0.13591159633E+03 -0.70931324010E+00  0.66124843983E+03  0.68654533995E+03  0.12499015754E+03 0.  0.
          2    1    1    2  501    0  0.63097339429E+02 -0.24487827789E+02 -0.20324587708E+02  0.70668357971E+02  0.00000000000E+00 0. -1.
          1    1    1    2  502    0  0.72814256906E+02  0.25197141029E+02  0.12813646029E+04  0.12836791101E+04  0.00000000000E+00 0. -1.
         22    1    3    3    0    0 -0.15367809580E+03 -0.23123617104E+02  0.57763009632E+03  0.59817070053E+03  0.00000000000E+00 0. -1.
         22    1    3    3    0    0  0.17766499464E+02  0.22414303864E+02  0.83618343510E+02  0.88374639418E+02  0.00000000000E+00 0. -1.
</event>
<event>
 7    1  0.6330892E-006  0.6293173E+02  0.7818608E-02  0.1441996E+00
          2   -1    0    0  502    0  0.00000000000E+00  0.00000000000E+00  0.15464367588E+04  0.15464367588E+04  0.00000000000E+00 0. -1.
          1   -1    0    0  501    0 -0.00000000000E+00 -0.00000000000E+00 -0.25850351381E+04  0.25850351381E+04  0.00000000000E+00 0. -1.
         25    2    1    2    0    0  0.10172745161E+03 -0.72772897200E+01  0.28331525556E+03  0.32602835666E+03  0.12500208782E+03 0.  0.
          2    1    1    2  501    0 -0.61454157541E+02  0.13331643508E+02 -0.25629589025E+04  0.25637302280E+04  0.00000000000E+00 0. -1.
          1    1    1    2  502    0 -0.40273294069E+02 -0.60543537877E+01  0.12410452676E+04  0.12417133122E+04  0.00000000000E+00 0. -1.
         22    1    3    3    0    0  0.55543910348E+02 -0.19577074773E+02  0.26111854586E+02  0.64422176177E+02  0.00000000000E+00 0.  1.
         22    1    3    3    0    0  0.46183541261E+02  0.12299785053E+02  0.25720340097E+03  0.26160618048E+03  0.00000000000E+00 0.  1.
</event>
<event>
 7    1  0.6330892E-006  0.9336273E+02  0.7818608E-02  0.1350065E+00
          2   -1    0    0  502    0  0.00000000000E+00  0.00000000000E+00  0.38676481337E+04  0.38676481337E+04  0.00000000000E+00 0. -1.
          1   -1    0    0  501    0 -0.00000000000E+00 -0.00000000000E+00 -0.58846173394E+03  0.58846173394E+03  0.00000000000E+00 0. -1.
         25    2    1    2    0    0  0.12570459325E+03  0.27336387674E+02  0.40547998261E+03  0.44338268765E+03  0.12500107423E+03 0.  0.
          2    1    1    2  501    0 -0.34912419122E+02 -0.45226253133E+02 -0.56745386912E+03  0.57032287746E+03  0.00000000000E+00 0. -1.
          1    1    1    2  502    0 -0.90792174125E+02  0.17889865459E+02  0.34411602862E+04  0.34424043025E+04  0.00000000000E+00 0. -1.
         22    1    3    3    0    0  0.13196390743E+03 -0.10238362540E+02  0.36272390758E+03  0.38611906203E+03  0.00000000000E+00 0.  1.
         22    1    3    3    0    0 -0.62593141831E+01  0.37574750214E+02  0.42756075028E+02  0.57263625623E+02  0.00000000000E+00 0.  1.
</event>
<event>
 7    1  0.6330892E-006  0.5563161E+02  0.7818608E-02  0.1474809E+00
          2   -1    0    0  502    0  0.00000000000E+00  0.00000000000E+00  0.98431449801E+03  0.98431449801E+03  0.00000000000E+00 0. -1.
          1   -1    0    0  501    0 -0.00000000000E+00 -0.00000000000E+00 -0.52259043749E+03  0.52259043749E+03  0.00000000000E+00 0. -1.
         25    2    1    2    0    0 -0.59361218431E+02  0.65269301616E+02  0.33444729706E+03  0.36778159232E+03  0.12499787658E+03 0.  0.
          2    1    1    2  501    0  0.17793051671E+02 -0.31616367052E+02 -0.50414092491E+03  0.50544461569E+03  0.00000000000E+00 0. -1.
          1    1    1    2  502    0  0.41568166761E+02 -0.33652934564E+02  0.63141768838E+03  0.63367872750E+03  0.00000000000E+00 0. -1.
         22    1    3    3    0    0 -0.92713412051E+02  0.59162239521E+02  0.19119073889E+03  0.22056710090E+03  0.00000000000E+00 0.  1.
         22    1    3    3    0    0  0.33352193619E+02  0.61070620948E+01  0.14325655817E+03  0.14721449142E+03  0.00000000000E+00 0.  1.
</event>
<event>
 7    1  0.6330892E-006  0.7976641E+02  0.7818608E-02  0.1335006E+00
          2   -1    0    0  502    0  0.00000000000E+00  0.00000000000E+00  0.43362465195E+03  0.43362465195E+03  0.00000000000E+00 0. -1.
          1   -1    0    0  501    0 -0.00000000000E+00 -0.00000000000E+00 -0.70512397596E+03  0.70512397596E+03  0.00000000000E+00 0. -1.
         25    2    1    2    0    0 -0.12054507284E+03 -0.30059479860E+02 -0.61741852859E+02  0.18674026835E+03  0.12500073805E+03 0.  0.
          2    1    1    2  501    0  0.50679459700E+02  0.60357414825E+02 -0.57425640105E+03  0.57963940455E+03  0.00000000000E+00 0. -1.
          1    1    1    2  502    0  0.69865613142E+02 -0.30297934965E+02  0.36449892990E+03  0.37236895501E+03  0.00000000000E+00 0. -1.
         22    1    3    3    0    0  0.82793179835E+01  0.25618846148E+01  0.26060217082E+02  0.27463526238E+02  0.00000000000E+00 0. -1.
         22    1    3    3    0    0 -0.12882439083E+03 -0.32621364475E+02 -0.87802069941E+02  0.15927674211E+03  0.00000000000E+00 0. -1.
</event>
<event>
 7    1  0.6330892E-006  0.2851020E+03  0.7818608E-02  0.1230304E+00
          2   -1    0    0  502    0  0.00000000000E+00  0.00000000000E+00  0.22288622548E+04  0.22288622548E+04  0.00000000000E+00 0. -1.
          1   -1    0    0  501    0 -0.00000000000E+00 -0.00000000000E+00 -0.32301569008E+04  0.32301569008E+04  0.00000000000E+00 0. -1.
         25    2    1    2    0    0  0.15147823421E+03 -0.17815041303E+03  0.10532503823E+03  0.28530993655E+03  0.12500068447E+03 0.  0.
          2    1    1    2  501    0 -0.20402538750E+03  0.20163470223E+03 -0.31332041800E+04  0.31463075732E+04  0.00000000000E+00 0. -1.
          1    1    1    2  502    0  0.52547153292E+02 -0.23484289207E+02  0.20265844957E+04  0.20274016458E+04  0.00000000000E+00 0. -1.
         22    1    3    3    0    0  0.15286341170E+03 -0.15275511096E+03  0.46258334864E+02  0.22100040747E+03  0.00000000000E+00 0.  1.
         22    1    3    3    0    0 -0.13851774902E+01 -0.25395302069E+02  0.59066703370E+02  0.64309529082E+02  0.00000000000E+00 0.  1.
</event>
<event>
 7    1  0.6330892E-006  0.1664253E+03  0.7818608E-02  0.1228839E+00
          2   -1    0    0  502    0  0.00000000000E+00  0.00000000000E+00  0.84290305300E+03  0.84290305300E+03  0.00000000000E+00 0. -1.
          1   -1    0    0  501    0 -0.00000000000E+00 -0.00000000000E+00 -0.11078316176E+04  0.11078316176E+04  0.00000000000E+00 0. -1.
         25    2    1    2    0    0  0.13905500417E+03  0.16794695466E+03 -0.73813715158E+03  0.77975791068E+03  0.12503387930E+03 0.  0.
          2    1    1    2  501    0 -0.47039905229E+02 -0.12852935830E+03 -0.33224231878E+03  0.35932924598E+03  0.00000000000E+00 0. -1.
          1    1    1    2  502    0 -0.92015098937E+02 -0.39417596359E+02  0.80545090574E+03  0.81164751395E+03  0.00000000000E+00 0. -1.
         22    1    3    3    0    0  0.15219447714E+03  0.17347819528E+03 -0.72311655414E+03  0.75904900631E+03  0.00000000000E+00 0. -1.
         22    1    3    3    0    0 -0.13139472975E+02 -0.55312406241E+01 -0.15020597438E+02  0.20708904372E+02  0.00000000000E+00 0. -1.
</event>
<event>
 7    1  0.6330892E-006  0.1258651E+03  0.7818608E-02  0.1296163E+00
          2   -1    0    0  502    0  0.00000000000E+00  0.00000000000E+00  0.24662217978E+03  0.24662217978E+03  0.00000000000E+00 0. -1.
          1   -1    0    0  501    0 -0.00000000000E+00 -0.00000000000E+00 -0.24433773420E+04  0.24433773420E+04  0.00000000000E+00 0. -1.
         25    2    1    2    0    0 -0.28940324833E+02 -0.66232430884E+02 -0.16281844891E+03  0.21762182948E+03  0.12500054423E+03 0.  0.
          2    1    1    2  501    0 -0.61754949639E+02 -0.29526655908E+02 -0.22327472839E+04  0.22337963047E+04  0.00000000000E+00 0. -1.
          1    1    1    2  502    0  0.90695274472E+02  0.95759086792E+02  0.19881057059E+03  0.23858138757E+03  0.00000000000E+00 0. -1.
         22    1    3    3    0    0 -0.30297385488E+02 -0.71530619584E+02 -0.27821630005E+02  0.82514266655E+02  0.00000000000E+00 0. -1.
         22    1    3    3    0    0  0.13570606550E+01  0.52981887000E+01 -0.13499681890E+03  0.13510756282E+03  0.00000000000E+00 0. -1.
</event>
<event>
 7    1  0.6330892E-006  0.1316084E+03  0.7818608E-02  0.1256810E+00
          2   -1    0    0  502    0  0.00000000000E+00  0.00000000000E+00  0.66995467014E+03  0.66995467014E+03  0.00000000000E+00 0. -1.
          1   -1    0    0  501    0 -0.00000000000E+00 -0.00000000000E+00 -0.14685698584E+04  0.14685698584E+04  0.00000000000E+00 0. -1.
         25    2    1    2    0    0 -0.16563090937E+03  0.15417122668E+02  0.21412679762E+03  0.29857664097E+03  0.12500575694E+03 0.  0.
          2    1    1    2  501    0  0.10037922620E+03 -0.85021717139E+02 -0.14177572478E+04  0.14238470055E+04  0.00000000000E+00 0. -1.
          1    1    1    2  502    0  0.65251683165E+02  0.69604594470E+02  0.40501526187E+03  0.41610088209E+03  0.00000000000E+00 0. -1.
         22    1    3    3    0    0 -0.18634986428E+03  0.17793182275E+02  0.19413396203E+03  0.26968660417E+03  0.00000000000E+00 0.  1.
         22    1    3    3    0    0  0.20718954912E+02 -0.23760596063E+01  0.19992835584E+02  0.28890036805E+02  0.00000000000E+00 0.  1.
</event>
<event>
 7    1  0.6330892E-006  0.1086116E+03  0.7818608E-02  0.1338647E+00
          2   -1    0    0  502    0  0.00000000000E+00  0.00000000000E+00  0.10781435699E+04  0.10781435699E+04  0.00000000000E+00 0. -1.
          1   -1    0    0  501    0 -0.00000000000E+00 -0.00000000000E+00 -0.78012761740E+03  0.78012761740E+03  0.00000000000E+00 0. -1.
         25    2    1    2    0    0 -0.34785952030E+02 -0.94262386429E+02 -0.11641285300E+03  0.19817034125E+03  0.12499628735E+03 0.  0.
          2    1    1    2  501    0  0.84283202242E+02  0.72221594524E+02 -0.61717443191E+03  0.62707567031E+03  0.00000000000E+00 0. -1.
          1    1    1    2  502    0 -0.49497250212E+02  0.22040791905E+02  0.10316032374E+04  0.10330251758E+04  0.00000000000E+00 0. -1.
         22    1    3    3    0    0 -0.44706183716E+02 -0.11416136794E+03 -0.57923235153E+02  0.13559705735E+03  0.00000000000E+00 0.  1.
         22    1    3    3    0    0  0.99202316867E+01  0.19898981506E+02 -0.58489617846E+02  0.62573283896E+02  0.00000000000E+00 0.  1.
</event>
<event>
 7    1  0.6330892E-006  0.7416916E+02  0.7818608E-02  0.1382343E+00
          2   -1    0    0  502    0  0.00000000000E+00  0.00000000000E+00  0.14709812647E+04  0.14709812647E+04  0.00000000000E+00 0. -1.
          1   -1    0    0  501    0 -0.00000000000E+00 -0.00000000000E+00 -0.19102862348E+03  0.19102862348E+03  0.00000000000E+00 0. -1.
         25    2    1    2    0    0 -0.82803090402E+01  0.67870853338E+02  0.18394776377E+03  0.23265952517E+03  0.12497463186E+03 0.  0.
          2    1    1    2  501    0  0.58981496244E+02 -0.46632672351E+02 -0.15755983542E+03  0.17458099772E+03  0.00000000000E+00 0. -1.
          1    1    1    2  502    0 -0.50701187203E+02 -0.21238180987E+02  0.12535647128E+04  0.12547693652E+04  0.00000000000E+00 0. -1.
         22    1    3    3    0    0 -0.34102951813E+02 -0.23303552147E+02  0.90943517979E+02  0.99883884223E+02  0.00000000000E+00 0. -1.
         22    1    3    3    0    0  0.25822642772E+02  0.91174405485E+02  0.93004245787E+02  0.13277564095E+03  0.00000000000E+00 0. -1.
</event>
<event>
 7    1  0.6330892E-006  0.4947056E+02  0.7818608E-02  0.1479842E+00
          2   -1    0    0  502    0  0.00000000000E+00  0.00000000000E+00  0.74565320368E+03  0.74565320368E+03  0.00000000000E+00 0. -1.
          1   -1    0    0  501    0 -0.00000000000E+00 -0.00000000000E+00 -0.15650999468E+03  0.15650999468E+03  0.00000000000E+00 0. -1.
         25    2    1    2    0    0 -0.81061317221E+02  0.20432520599E+02  0.38379641687E+02  0.15520359773E+03  0.12500693903E+03 0.  0.
          2    1    1    2  501    0  0.41763603700E+02 -0.22772096840E+02 -0.91693278742E+02  0.10329774613E+03  0.00000000000E+00 0. -1.
          1    1    1    2  502    0  0.39297713521E+02  0.23395762410E+01  0.64245684606E+03  0.64366185451E+03  0.00000000000E+00 0. -1.
         22    1    3    3    0    0 -0.36933643463E+02 -0.18316166952E+02  0.75292562381E+02  0.85840234978E+02  0.00000000000E+00 0. -1.
         22    1    3    3    0    0 -0.44127673758E+02  0.38748687550E+02 -0.36912920694E+02  0.69363362752E+02  0.00000000000E+00 0. -1.
</event>
<event>
 7    1  0.6330892E-006  0.8780816E+02  0.7818608E-02  0.1463639E+00
          2   -1    0    0  502    0  0.00000000000E+00  0.00000000000E+00  0.20921775673E+04  0.20921775673E+04  0.00000000000E+00 0. -1.
          1   -1    0    0  501    0 -0.00000000000E+00 -0.00000000000E+00 -0.11844757329E+03  0.11844757329E+03  0.00000000000E+00 0. -1.
         25    2    1    2    0    0  0.65887474409E+02  0.22862676847E+02  0.79041227184E+03  0.80326894568E+03  0.12500231336E+03 0.  0.
          2    1    1    2  501    0 -0.87590844185E+02 -0.10653596017E+02 -0.94503381519E+02  0.12929247546E+03  0.00000000000E+00 0. -1.
          1    1    1    2  502    0  0.21703369776E+02 -0.12209080830E+02  0.12778211036E+04  0.12780637194E+04  0.00000000000E+00 0. -1.
         22    1    3    3    0    0  0.37643054456E+02  0.40586020385E+02  0.12138439348E+03  0.13341062769E+03  0.00000000000E+00 0.  1.
         22    1    3    3    0    0  0.28244419953E+02 -0.17723343538E+02  0.66902787836E+03  0.66985831799E+03  0.00000000000E+00 0.  1.
</event>
<event>
 7    1  0.6330892E-006  0.1167258E+03  0.7818608E-02  0.1409383E+00
          2   -1    0    0  502    0  0.00000000000E+00  0.00000000000E+00  0.10113509687E+04  0.10113509687E+04  0.00000000000E+00 0. -1.
          1   -1    0    0  501    0 -0.00000000000E+00 -0.00000000000E+00 -0.80907822107E+03  0.80907822107E+03  0.00000000000E+00 0. -1.
         25    2    1    2    0    0  0.38083096072E+02 -0.13632846260E+03 -0.21411111970E+02  0.19005154053E+03  0.12500152168E+03 0.  0.
          2    1    1    2  501    0 -0.21948140968E+02  0.11325012264E+03 -0.69840051579E+03  0.70786339899E+03  0.00000000000E+00 0. -1.
          1    1    1    2  502    0 -0.16134955104E+02  0.23078339966E+02  0.92208437535E+03  0.92251425020E+03  0.00000000000E+00 0. -1.
         22    1    3    3    0    0 -0.30454172312E+02 -0.10998925288E+03 -0.21702124262E+01  0.11414815891E+03  0.00000000000E+00 0. -1.
         22    1    3    3    0    0  0.68537268385E+02 -0.26339209718E+02 -0.19240899544E+02  0.75903381621E+02  0.00000000000E+00 0. -1.
</event>
<event>
 7    1  0.6330892E-006  0.1094233E+03  0.7818608E-02  0.1347062E+00
          2   -1    0    0  502    0  0.00000000000E+00  0.00000000000E+00  0.21242855504E+04  0.21242855504E+04  0.00000000000E+00 0. -1.
          1   -1    0    0  501    0 -0.00000000000E+00 -0.00000000000E+00 -0.67548541537E+02  0.67548541537E+02  0.00000000000E+00 0. -1.
         25    2    1    2    0    0 -0.81010401450E+01 -0.89457912144E+02  0.10035987760E+03  0.18375294316E+03  0.12499877676E+03 0.  0.
          2    1    1    2  501    0  0.37368487584E+02  0.13001652305E+03  0.15387753126E+03  0.20488776136E+03  0.00000000000E+00 0. -1.
          1    1    1    2  502    0 -0.29267447439E+02 -0.40558610902E+02  0.18024996000E+04  0.18031933874E+04  0.00000000000E+00 0. -1.
         22    1    3    3    0    0  0.25473342580E+02  0.14916526274E+02 -0.69605328550E+01  0.30328912871E+02  0.00000000000E+00 0.  1.
         22    1    3    3    0    0 -0.33574382725E+02 -0.10437443842E+03  0.10732041045E+03  0.15342403029E+03  0.00000000000E+00 0.  1.
</event>
<event>
 7    1  0.6330892E-006  0.5039918E+02  0.7818608E-02  0.1490205E+00
          2   -1    0    0  502    0  0.00000000000E+00  0.00000000000E+00  0.30800400914E+04  0.30800400914E+04  0.00000000000E+00 0. -1.
          1   -1    0    0  501    0 -0.00000000000E+00 -0.00000000000E+00 -0.11016146677E+03  0.11016146677E+03  0.00000000000E+00 0. -1.
         25    2    1    2    0    0  0.19589251325E+02  0.40004993106E+00  0.81449532979E+02  0.15047562472E+03  0.12499995362E+03 0.  0.
          2    1    1    2  501    0  0.23189941145E+02 -0.27447772791E+02 -0.71152857305E+02  0.79711245782E+02  0.00000000000E+00 0. -1.
          1    1    1    2  502    0 -0.42779192470E+02  0.27047722860E+02  0.29595819489E+04  0.29600146876E+04  0.00000000000E+00 0. -1.
         22    1    3    3    0    0 -0.35279170795E+02  0.13098060009E+02 -0.13583108329E+02  0.40008497846E+02  0.00000000000E+00 0. -1.
         22    1    3    3    0    0  0.54868422120E+02 -0.12698010078E+02  0.95032641309E+02  0.11046712687E+03  0.00000000000E+00 0. -1.
</event>
<event>
 7    1  0.6330892E-006  0.1722447E+03  0.7818608E-02  0.1328332E+00
          2   -1    0    0  502    0  0.00000000000E+00  0.00000000000E+00  0.52689835289E+03  0.52689835289E+03  0.00000000000E+00 0. -1.
          1   -1    0    0  501    0 -0.00000000000E+00 -0.00000000000E+00 -0.77289614832E+03  0.77289614832E+03  0.00000000000E+00 0. -1.
         25    2    1    2    0    0 -0.12167381787E+03 -0.15881590572E+03  0.58012197289E+02  0.24293392728E+03  0.12499787248E+03 0.  0.
          2    1    1    2  501    0  0.33052581357E+02  0.17485721944E+02 -0.66139951295E+03  0.66245568858E+03  0.00000000000E+00 0. -1.
          1    1    1    2  502    0  0.88621236517E+02  0.14133018378E+03  0.35738952024E+03  0.39440488534E+03  0.00000000000E+00 0. -1.
         22    1    3    3    0    0 -0.81762890837E+02 -0.17282214649E+03  0.33661975849E+02  0.19412829071E+03  0.00000000000E+00 0.  1.
         22    1    3    3    0    0 -0.39910927037E+02  0.14006240766E+02  0.24350221440E+02  0.48805636575E+02  0.00000000000E+00 0.  1.
</event>
<event>
 7    1  0.6330892E-006  0.1101304E+03  0.7818608E-02  0.1313933E+00
          2   -1    0    0  502    0  0.00000000000E+00  0.00000000000E+00  0.44357403338E+03  0.44357403338E+03  0.00000000000E+00 0. -1.
          1   -1    0    0  501    0 -0.00000000000E+00 -0.00000000000E+00 -0.57583257443E+03  0.57583257443E+03  0.00000000000E+00 0. -1.
         25    2    1    2    0    0  0.35338299225E+00 -0.69849163851E+02 -0.21724462277E+03  0.26019288836E+03  0.12500432976E+03 0.  0.
          2    1    1    2  501    0 -0.73486703061E+01  0.13597625104E+03 -0.32054295350E+03  0.34826904663E+03  0.00000000000E+00 0. -1.
          1    1    1    2  502    0  0.69952873139E+01 -0.66127087193E+02  0.40552903523E+03  0.41094467282E+03  0.00000000000E+00 0. -1.
         22    1    3    3    0    0  0.28478769398E+02  0.27299791847E+02 -0.84983757302E+02  0.93693958964E+02  0.00000000000E+00 0.  1.
         22    1    3    3    0    0 -0.28125386406E+02 -0.97148955698E+02 -0.13226086547E+03  0.16649892939E+03  0.00000000000E+00 0.  1.
</event>
<event>
 7    1  0.6330892E-006  0.4961089E+02  0.7818608E-02  0.1514762E+00
          2   -1    0    0  502    0  0.00000000000E+00  0.00000000000E+00  0.11266769138E+04  0.11266769138E+04  0.00000000000E+00 0. -1.
          1   -1    0    0  501    0 -0.00000000000E+00 -0.00000000000E+00 -0.38806848843E+03  0.38806848843E+03  0.00000000000E+00 0. -1.
         25    2    1    2    0    0 -0.14347192872E+02  0.15028315239E+02 -0.44114005197E+02  0.13416822751E+03  0.12499350230E+03 0.  0.
          2    1    1    2  501    0  0.41489418089E+02 -0.29698775047E+02 -0.29652802908E+03  0.30088579408E+03  0.00000000000E+00 0. -1.
          1    1    1    2  502    0 -0.27142225218E+02  0.14670459807E+02  0.10792504596E+04  0.10796913806E+04  0.00000000000E+00 0. -1.
         22    1    3    3    0    0 -0.14178045190E+02 -0.29424984131E+02  0.32190375609E+02  0.45859207781E+02  0.00000000000E+00 0. -1.
         22    1    3    3    0    0 -0.16914768204E+00  0.44453299370E+02 -0.76304380806E+02  0.88309019732E+02  0.00000000000E+00 0. -1.
</event>
<event>
 7    1  0.6330892E-006  0.2101986E+03  0.7818608E-02  0.1269566E+00
          2   -1    0    0  502    0  0.00000000000E+00  0.00000000000E+00  0.22294617822E+04  0.22294617822E+04  0.00000000000E+00 0. -1.
          1   -1    0    0  501    0 -0.00000000000E+00 -0.00000000000E+00 -0.78784783790E+02  0.78784783790E+02  0.00000000000E+00 0. -1.
         25    2    1    2    0    0  0.22876551096E+03 -0.64552005750E+02  0.12041760720E+04  0.12337599601E+04  0.12499202482E+03 0.  0.
          2    1    1    2  501    0 -0.51235913445E+02 -0.12471027711E+02 -0.41879863091E+02  0.67339203227E+02  0.00000000000E+00 0. -1.
          1    1    1    2  502    0 -0.17752959751E+03  0.77023033462E+02  0.98838078948E+03  0.10071474027E+04  0.00000000000E+00 0. -1.
         22    1    3    3    0    0  0.22417263259E+03 -0.21443130775E+02  0.10136118734E+04  0.10383266379E+04  0.00000000000E+00 0. -1.
         22    1    3    3    0    0  0.45928783721E+01 -0.43108874976E+02  0.19056419866E+03  0.19543332224E+03  0.00000000000E+00 0. -1.
</event>
<event>
 7    1  0.6330892E-006  0.5209441E+02  0.7818608E-02  0.1556202E+00
          2   -1    0    0  502    0  0.00000000000E+00  0.00000000000E+00  0.84508318820E+02  0.84508318820E+02  0.00000000000E+00 0. -1.
          1   -1    0    0  501    0 -0.00000000000E+00 -0.00000000000E+00 -0.85630078924E+03  0.85630078924E+03  0.00000000000E+00 0. -1.
         25    2    1    2    0    0  0.20421976191E+01  0.57476325576E+02 -0.47215604330E+03  0.49179681766E+03  0.12500032828E+03 0.  0.
          2    1    1    2  501    0 -0.20590239768E+02 -0.88154862693E+01 -0.36486154925E+03  0.36554838379E+03  0.00000000000E+00 0. -1.
          1    1    1    2  502    0  0.18548042149E+02 -0.48660839306E+02  0.65225122126E+02  0.83463906606E+02  0.00000000000E+00 0. -1.
         22    1    3    3    0    0  0.28364749983E+02 -0.30737459395E+02 -0.99390729749E+02  0.10783259068E+03  0.00000000000E+00 0. -1.
         22    1    3    3    0    0 -0.26322552364E+02  0.88213784971E+02 -0.37276531355E+03  0.38396422699E+03  0.00000000000E+00 0. -1.
</event>
<event>
 7    1  0.6330892E-006  0.8800054E+02  0.7818608E-02  0.1463705E+00
          2   -1    0    0  502    0  0.00000000000E+00  0.00000000000E+00  0.13081057572E+04  0.13081057572E+04  0.00000000000E+00 0. -1.
          1   -1    0    0  501    0 -0.00000000000E+00 -0.00000000000E+00 -0.62857843501E+02  0.62857843501E+02  0.00000000000E+00 0. -1.
         25    2    1    2    0    0  0.96668568105E+02  0.52525001637E+02  0.50496931448E+03  0.53171663604E+03  0.12499953848E+03 0.  0.
          2    1    1    2  501    0 -0.72423704690E+02 -0.47141135427E+02 -0.11395490233E+02  0.87162703309E+02  0.00000000000E+00 0. -1.
          1    1    1    2  502    0 -0.24244863415E+02 -0.53838662092E+01  0.75167408944E+03  0.75208426134E+03  0.00000000000E+00 0. -1.
         22    1    3    3    0    0  0.31153706737E+02  0.31152946564E+02  0.42004775185E+03  0.42235195437E+03  0.00000000000E+00 0.  1.
         22    1    3    3    0    0  0.65514861368E+02  0.21372055072E+02  0.84921562628E+02  0.10936468167E+03  0.00000000000E+00 0.  1.
</event>
<event>
 7    1  0.6330892E-006  0.5709383E+02  0.7818608E-02  0.1472434E+00
          2   -1    0    0  502    0  0.00000000000E+00  0.00000000000E+00  0.18906193942E+04  0.18906193942E+04  0.00000000000E+00 0. -1.
          1   -1    0    0  501    0 -0.00000000000E+00 -0.00000000000E+00 -0.11768416631E+03  0.11768416631E+03  0.00000000000E+00 0. -1.
         25    2    1    2    0    0  0.56404686927E+02  0.51175148385E+02  0.29957998272E+03  0.33342709375E+03  0.12500030512E+03 0.  0.
          2    1    1    2  501    0 -0.54720743842E+02 -0.15260947590E+02 -0.92530589790E+02  0.10857792766E+03  0.00000000000E+00 0. -1.
          1    1    1    2  502    0 -0.16839430856E+01 -0.35914200795E+02  0.15658858350E+04  0.15662985391E+04  0.00000000000E+00 0. -1.
         22    1    3    3    0    0  0.73072615760E+02  0.30896038050E+02  0.29657800590E+03  0.30700600308E+03  0.00000000000E+00 0.  1.
         22    1    3    3    0    0 -0.16667928833E+02  0.20279110335E+02  0.30019768220E+01  0.26421090674E+02  0.00000000000E+00 0.  1.
</event>
<event>
 7    1  0.6330892E-006  0.9716327E+02  0.7818608E-02  0.1430451E+00
          2   -1    0    0  502    0  0.00000000000E+00  0.00000000000E+00  0.80080301592E+03  0.80080301592E+03  0.00000000000E+00 0. -1.
          1   -1    0    0  501    0 -0.00000000000E+00 -0.00000000000E+00 -0.76010333825E+03  0.76010333825E+03  0.00000000000E+00 0. -1.
         25    2    1    2    0    0 -0.37356270194E+02  0.86472836269E+02  0.57983687241E+03  0.60059811334E+03  0.12503700577E+03 0.  0.
          2    1    1    2  501    0  0.63205082268E+02 -0.73846140751E+02 -0.74557054304E+03  0.75188002340E+03  0.00000000000E+00 0. -1.
          1    1    1    2  502    0 -0.25848812074E+02 -0.12626695519E+02  0.20643334831E+03  0.20842821742E+03  0.00000000000E+00 0. -1.
         22    1    3    3    0    0 -0.13194096679E+02  0.70870062359E+02  0.12089600273E+03  0.14075685916E+03  0.00000000000E+00 0. -1.
         22    1    3    3    0    0 -0.24162173515E+02  0.15602773910E+02  0.45894086968E+03  0.45984125418E+03  0.00000000000E+00 0. -1.
</event>
<event>
 7    1  0.6330892E-006  0.1624712E+03  0.7818608E-02  0.1248140E+00
          2   -1    0    0  502    0  0.00000000000E+00  0.00000000000E+00  0.26740721128E+04  0.26740721128E+04  0.00000000000E+00 0. -1.
          1   -1    0    0  501    0 -0.00000000000E+00 -0.00000000000E+00 -0.15751610614E+04  0.15751610614E+04  0.00000000000E+00 0. -1.
         25    2    1    2    0    0  0.29255127548E+02  0.11833462985E+03  0.20500734816E+03  0.26928044438E+03  0.12499999128E+03 0.  0.
          2    1    1    2  501    0 -0.72187755346E+02  0.43432872469E+02 -0.15389973835E+04  0.15413015385E+04  0.00000000000E+00 0. -1.
          1    1    1    2  502    0  0.42932627798E+02 -0.16176750232E+03  0.24329010867E+04  0.24386511913E+04  0.00000000000E+00 0. -1.
         22    1    3    3    0    0  0.32416820873E+02  0.12706036611E+03  0.10272038737E+03  0.16657330186E+03  0.00000000000E+00 0.  1.
         22    1    3    3    0    0 -0.31616933251E+01 -0.87257362634E+01  0.10228696079E+03  0.10270714252E+03  0.00000000000E+00 0.  1.
</event>
<event>
 7    1  0.6330892E-006  0.9530840E+02  0.7818608E-02  0.1324815E+00
          2   -1    0    0  502    0  0.00000000000E+00  0.00000000000E+00  0.13939418121E+04  0.13939418121E+04  0.00000000000E+00 0. -1.
          1   -1    0    0  501    0 -0.00000000000E+00 -0.00000000000E+00 -0.37580267436E+04  0.37580267436E+04  0.00000000000E+00 0. -1.
         25    2    1    2    0    0  0.24443566812E+02 -0.68622692074E+02  0.22002833666E+03  0.26332996099E+03  0.12499455028E+03 0.  0.
          2    1    1    2  501    0  0.43311155934E+02  0.85026955769E+02 -0.37347115545E+04  0.37359303841E+04  0.00000000000E+00 0. -1.
          1    1    1    2  502    0 -0.67754722746E+02 -0.16404263696E+02  0.11505982863E+04  0.11527082106E+04  0.00000000000E+00 0. -1.
         22    1    3    3    0    0  0.56705660715E+02 -0.72418666438E+02  0.87753405776E+02  0.12712456659E+03  0.00000000000E+00 0. -1.
         22    1    3    3    0    0 -0.32262093903E+02  0.37959743643E+01  0.13227493088E+03  0.13620539440E+03  0.00000000000E+00 0. -1.
</event>
<event>
 7    1  0.6330892E-006  0.6844093E+02  0.7818608E-02  0.1460820E+00
          2   -1    0    0  502    0  0.00000000000E+00  0.00000000000E+00  0.38162812270E+02  0.38162812270E+02  0.00000000000E+00 0. -1.
          1   -1    0    0  501    0 -0.00000000000E+00 -0.00000000000E+00 -0.88340592949E+03  0.88340592949E+03  0.00000000000E+00 0. -1.
         25    2    1    2    0    0 -0.83827352371E+02 -0.30430184242E+02 -0.22343478449E+03  0.27111056760E+03  0.12499926330E+03 0.  0.
          2    1    1    2  501    0  0.21020439360E+02  0.24927434509E+02 -0.56393213530E+03  0.56487404710E+03  0.00000000000E+00 0. -1.
          1    1    1    2  502    0  0.62806913011E+02  0.55027497332E+01 -0.57876197432E+02  0.85584127066E+02  0.00000000000E+00 0. -1.
         22    1    3    3    0    0 -0.10985656514E+03 -0.29998932147E+02 -0.21576205141E+03  0.24397062050E+03  0.00000000000E+00 0. -1.
         22    1    3    3    0    0  0.26029212773E+02 -0.43125209566E+00 -0.76727330818E+01  0.27139947106E+02  0.00000000000E+00 0. -1.
</event>
<event>
 7    1  0.6330892E-006  0.6417337E+02  0.7818608E-02  0.1409122E+00
          2   -1    0    0  502    0  0.00000000000E+00  0.00000000000E+00  0.15011853895E+03  0.15011853895E+03  0.00000000000E+00 0. -1.
          1   -1    0    0  501    0 -0.00000000000E+00 -0.00000000000E+00 -0.12832694462E+04  0.12832694462E+04  0.00000000000E+00 0. -1.
         25    2    1    2    0    0  0.24652116174E+02 -0.55567267927E+02 -0.12235678212E+03  0.18518398767E+03  0.12500591611E+03 0.  0.
          2    1    1    2  501    0  0.37534775819E+02  0.35003970612E+02 -0.11198312136E+04  0.11210067280E+04  0.00000000000E+00 0. -1.
          1    1    1    2  502    0 -0.62186891993E+02  0.20563297315E+02  0.10903708838E+03  0.12719726953E+03  0.00000000000E+00 0. -1.
         22    1    3    3    0    0  0.35521128522E+01 -0.26629278419E+02  0.23070593916E+02  0.35411696916E+02  0.00000000000E+00 0. -1.
         22    1    3    3    0    0  0.21100003322E+02 -0.28937989508E+02 -0.14542737604E+03  0.14977229076E+03  0.00000000000E+00 0. -1.
</event>
<event>
 7    1  0.6330892E-006  0.2478642E+03  0.7818608E-02  0.1270460E+00
          2   -1    0    0  502    0  0.00000000000E+00  0.00000000000E+00  0.20814188805E+03  0.20814188805E+03  0.00000000000E+00 0. -1.
          1   -1    0    0  501    0 -0.00000000000E+00 -0.00000000000E+00 -0.10959301553E+04  0.10959301553E+04  0.00000000000E+00 0. -1.
         25    2    1    2    0    0 -0.25660388804E+03 -0.88617635353E+02 -0.41477468477E+03  0.51123505976E+03  0.12499842617E+03 0.  0.
          2    1    1    2  501    0  0.21435893459E+03  0.10206598367E+03 -0.60696122873E+03  0.65174316340E+03  0.00000000000E+00 0. -1.
          1    1    1    2  502    0  0.42244953450E+02 -0.13448348321E+02  0.13394764624E+03  0.14109382020E+03  0.00000000000E+00 0. -1.
         22    1    3    3    0    0 -0.80338039142E+02  0.22992459461E+02 -0.17133927274E+03  0.19063053299E+03  0.00000000000E+00 0. -1.
         22    1    3    3    0    0 -0.17626584890E+03 -0.11161009481E+03 -0.24343541203E+03  0.32060452677E+03  0.00000000000E+00 0. -1.
</event>
<event>
 7    1  0.6330892E-006  0.1790268E+03  0.7818608E-02  0.1180944E+00
          2   -1    0    0  502    0  0.00000000000E+00  0.00000000000E+00  0.35933675111E+04  0.35933675111E+04  0.00000000000E+00 0. -1.
          1   -1    0    0  501    0 -0.00000000000E+00 -0.00000000000E+00 -0.18529088308E+04  0.18529088308E+04  0.00000000000E+00 0. -1.
         25    2    1    2    0    0 -0.65258065229E+01  0.84416439253E+02  0.28778205417E+02  0.15368793603E+03  0.12499230059E+03 0.  0.
          2    1    1    2  501    0 -0.15588291957E+03  0.24619839786E+01 -0.17846315452E+04  0.17914282844E+04  0.00000000000E+00 0. -1.
          1    1    1    2  502    0  0.16240872610E+03 -0.86878423232E+02  0.34963120201E+04  0.35011601215E+04  0.00000000000E+00 0. -1.
         22    1    3    3    0    0  0.47375773797E+02  0.28768504452E+02  0.48603664361E+02  0.73718430399E+02  0.00000000000E+00 0.  1.
         22    1    3    3    0    0 -0.53901580320E+02  0.55647934802E+02 -0.19825458944E+02  0.79969505632E+02  0.00000000000E+00 0.  1.
</event>
<event>
 7    1  0.6330892E-006  0.8887171E+02  0.7818608E-02  0.1335236E+00
          2   -1    0    0  502    0  0.00000000000E+00  0.00000000000E+00  0.12436648590E+04  0.12436648590E+04  0.00000000000E+00 0. -1.
          1   -1    0    0  501    0 -0.00000000000E+00 -0.00000000000E+00 -0.32574470530E+02  0.32574470530E+02  0.00000000000E+00 0. -1.
         25    2    1    2    0    0  0.79042930205E+01 -0.58637922323E+02  0.28399921752E+03  0.31588186885E+03  0.12499966294E+03 0.  0.
          2    1    1    2  501    0  0.68208746676E+02 -0.76043530052E+00  0.69618876759E+02  0.97466914315E+02  0.00000000000E+00 0. -1.
          1    1    1    2  502    0 -0.76113039696E+02  0.59398357624E+02  0.85747229417E+03  0.86289054634E+03  0.00000000000E+00 0. -1.
         22    1    3    3    0    0  0.28025967648E+02 -0.90982052371E+01  0.25168859747E+03  0.25340754191E+03  0.00000000000E+00 0.  1.
         22    1    3    3    0    0 -0.20121674628E+02 -0.49539717086E+02  0.32310620056E+02  0.62474326945E+02  0.00000000000E+00 0.  1.
</event>
<event>
 7    1  0.6330892E-006  0.3829968E+02  0.7818608E-02  0.1526697E+00
          2   -1    0    0  502    0  0.00000000000E+00  0.00000000000E+00  0.72874117170E+01  0.72874117170E+01  0.00000000000E+00 0. -1.
          1   -1    0    0  501    0 -0.00000000000E+00 -0.00000000000E+00 -0.16052644410E+04  0.16052644410E+04  0.00000000000E+00 0. -1.
         25    2    1    2    0    0  0.14628373519E+02 -0.17283064219E+02 -0.83261520188E+03  0.84225027030E+03  0.12499899915E+03 0.  0.
          2    1    1    2  501    0  0.32520071439E+02  0.17442587086E+02 -0.43948933570E+03  0.44103591133E+03  0.00000000000E+00 0. -1.
          1    1    1    2  502    0 -0.47148444958E+02 -0.15952286650E+00 -0.32587249172E+03  0.32926567111E+03  0.00000000000E+00 0. -1.
         22    1    3    3    0    0 -0.36328286718E+02 -0.62175098400E+01 -0.67951411205E+03  0.68051291708E+03  0.00000000000E+00 0.  1.
         22    1    3    3    0    0  0.50956660237E+02 -0.11065554379E+02 -0.15310108983E+03  0.16173735321E+03  0.00000000000E+00 0.  1.
</event>
<event>
 7    1  0.6330892E-006  0.7643176E+02  0.7818608E-02  0.1363883E+00
          2   -1    0    0  502    0  0.00000000000E+00  0.00000000000E+00  0.17621588799E+04  0.17621588799E+04  0.00000000000E+00 0. -1.
          1   -1    0    0  501    0 -0.00000000000E+00 -0.00000000000E+00 -0.23093582049E+02  0.23093582049E+02  0.00000000000E+00 0. -1.
         25    2    1    2    0    0  0.50690871918E+02  0.10788856268E+03  0.10587503899E+04  0.10727476172E+04  0.12500222268E+03 0.  0.
          2    1    1    2  501    0 -0.17723557901E+01 -0.62080382665E+02  0.53075540820E+02  0.81695337629E+02  0.00000000000E+00 0. -1.
          1    1    1    2  502    0 -0.48918516128E+02 -0.45808180014E+02  0.62723936707E+03  0.63080950704E+03  0.00000000000E+00 0. -1.
         22    1    3    3    0    0  0.58502630826E+02  0.11569733742E+02  0.20358951233E+03  0.21214406917E+03  0.00000000000E+00 0.  1.
         22    1    3    3    0    0 -0.78117589081E+01  0.96318828937E+02  0.85516087758E+03  0.86060354806E+03  0.00000000000E+00 0.  1.
</event>
<event>
 7    1  0.6330892E-006  0.6054308E+02  0.7818608E-02  0.1461120E+00
          2   -1    0    0  502    0  0.00000000000E+00  0.00000000000E+00  0.52771233124E+03  0.52771233124E+03  0.00000000000E+00 0. -1.
          1   -1    0    0  501    0 -0.00000000000E+00 -0.00000000000E+00 -0.18265363291E+03  0.18265363291E+03  0.00000000000E+00 0. -1.
         25    2    1    2    0    0  0.21317085887E+02  0.83406063002E+02  0.18920231227E+03  0.24255415520E+03  0.12499605489E+03 0.  0.
          2    1    1    2  501    0  0.67384454897E+01 -0.59621242571E+02 -0.14906114928E+03  0.16068393025E+03  0.00000000000E+00 0. -1.
          1    1    1    2  502    0 -0.28055531377E+02 -0.23784820431E+02  0.30491753534E+03  0.30712787871E+03  0.00000000000E+00 0. -1.
         22    1    3    3    0    0  0.22501886249E+02  0.35142053103E+02 -0.53779441427E+01  0.42073995107E+02  0.00000000000E+00 0. -1.
         22    1    3    3    0    0 -0.11848003618E+01  0.48264009899E+02  0.19458025641E+03  0.20048016009E+03  0.00000000000E+00 0. -1.
</event>
<event>
 7    1  0.6330892E-006  0.7119787E+02  0.7818608E-02  0.1413659E+00
          2   -1    0    0  502    0  0.00000000000E+00  0.00000000000E+00  0.29867833710E+04  0.29867833710E+04  0.00000000000E+00 0. -1.
          1   -1    0    0  501    0 -0.00000000000E+00 -0.00000000000E+00 -0.36321684525E+03  0.36321684525E+03  0.00000000000E+00 0. -1.
         25    2    1    2    0    0  0.72077706283E+02  0.85788278968E+01  0.10078636143E+04  0.10181762771E+04  0.12500029644E+03 0.  0.
          2    1    1    2  501    0 -0.18639624308E+02  0.40578083298E+02 -0.35599744052E+03  0.35878711529E+03  0.00000000000E+00 0. -1.
          1    1    1    2  502    0 -0.53438081975E+02 -0.49156911195E+02  0.19717003519E+04  0.19730368239E+04  0.00000000000E+00 0. -1.
         22    1    3    3    0    0  0.46668988680E+02 -0.10220046101E+02  0.11210833604E+03  0.12186354195E+03  0.00000000000E+00 0. -1.
         22    1    3    3    0    0  0.25408717604E+02  0.18798873998E+02  0.89575527829E+03  0.89631273515E+03  0.00000000000E+00 0. -1.
</event>
<event>
 7    1  0.6330892E-006  0.1690837E+03  0.7818608E-02  0.1223841E+00
          2   -1    0    0  502    0  0.00000000000E+00  0.00000000000E+00  0.32256349139E+03  0.32256349139E+03  0.00000000000E+00 0. -1.
          1   -1    0    0  501    0 -0.00000000000E+00 -0.00000000000E+00 -0.34108051418E+03  0.34108051418E+03  0.00000000000E+00 0. -1.
         25    2    1    2    0    0  0.74717847735E+02 -0.22381725757E+03 -0.11866959046E+02  0.26728589136E+03  0.12499600572E+03 0.  0.
          2    1    1    2  501    0  0.26097233925E+01  0.15460386996E+03 -0.15261772551E+03  0.21725868775E+03  0.00000000000E+00 0. -1.
          1    1    1    2  502    0 -0.77327571128E+02  0.69213387610E+02  0.14596766176E+03  0.17909942647E+03  0.00000000000E+00 0. -1.
         22    1    3    3    0    0 -0.26821832177E+02 -0.49880112368E+02  0.26055923941E+02  0.62340576382E+02  0.00000000000E+00 0.  1.
         22    1    3    3    0    0  0.10153967991E+03 -0.17393714520E+03 -0.37922882988E+02  0.20494531498E+03  0.00000000000E+00 0.  1.
</event>
<event>
 7    1  0.6330892E-006  0.8380383E+02  0.7818608E-02  0.1412331E+00
          2   -1    0    0  502    0  0.00000000000E+00  0.00000000000E+00  0.68059347956E+03  0.68059347956E+03  0.00000000000E+00 0. -1.
          1   -1    0    0  501    0 -0.00000000000E+00 -0.00000000000E+00 -0.54367485530E+02  0.54367485530E+02  0.00000000000E+00 0. -1.
         25    2    1    2    0    0  0.10761039570E+03  0.15258309792E+02  0.41659087589E+03  0.44831268743E+03  0.12499397809E+03 0.  0.
          2    1    1    2  501    0 -0.74182322633E+02 -0.34015151928E+02  0.86791811574E+01  0.82069334940E+02  0.00000000000E+00 0. -1.
          1    1    1    2  502    0 -0.33428073062E+02  0.18756842136E+02  0.20095593699E+03  0.20457894272E+03  0.00000000000E+00 0. -1.
         22    1    3    3    0    0  0.52192264350E+02 -0.44505988578E+02  0.99067287407E+02  0.12049540618E+03  0.00000000000E+00 0.  1.
         22    1    3    3    0    0  0.55418131345E+02  0.59764298370E+02  0.31752358848E+03  0.32781728124E+03  0.00000000000E+00 0.  1.
</event>
<event>
 7    1  0.7587764E-006  0.5000422E+02  0.7818608E-02  0.1567589E+00
          2   -1    0    0  502    0  0.00000000000E+00  0.00000000000E+00  0.16930656655E+04  0.16930656655E+04  0.00000000000E+00 0. -1.
          1   -1    0    0  501    0 -0.00000000000E+00 -0.00000000000E+00 -0.12971058087E+04  0.12971058087E+04  0.00000000000E+00 0. -1.
         25    2    1    2    0    0 -0.11782154421E+02  0.66700787920E+02 -0.33861395055E+03  0.36725027618E+03  0.12500217428E+03 0.  0.
          2    1    1    2  501    0 -0.72351686627E+01 -0.20472447163E+02 -0.94367667158E+03  0.94392644271E+03  0.00000000000E+00 0. -1.
          1    1    1    2  502    0  0.19017323084E+02 -0.46228340757E+02  0.16782504790E+04  0.16789947553E+04  0.00000000000E+00 0. -1.
         22    1    3    3    0    0  0.31698026771E+02  0.76885133314E+02 -0.13313454303E+03  0.15697418633E+03  0.00000000000E+00 0.  1.
         22    1    3    3    0    0 -0.43480181192E+02 -0.10184345394E+02 -0.20547940753E+03  0.21027608986E+03  0.00000000000E+00 0.  1.
</event>
<event>
 7    1  0.6330892E-006  0.5110172E+02  0.7818608E-02  0.1469603E+00
          2   -1    0    0  502    0  0.00000000000E+00  0.00000000000E+00  0.15780884182E+04  0.15780884182E+04  0.00000000000E+00 0. -1.
          1   -1    0    0  501    0 -0.00000000000E+00 -0.00000000000E+00 -0.40238081890E+02  0.40238081890E+02  0.00000000000E+00 0. -1.
         25    2    1    2    0    0 -0.58480902095E+02  0.59819360124E+02  0.28557480615E+03  0.32276019663E+03  0.12499121117E+03 0.  0.
          2    1    1    2  501    0  0.38703972343E+02 -0.13500538661E+02 -0.12687949313E+01  0.41010631058E+02  0.00000000000E+00 0. -1.
          1    1    1    2  502    0  0.19776929753E+02 -0.46318821463E+02  0.12535443251E+04  0.12545556724E+04  0.00000000000E+00 0. -1.
         22    1    3    3    0    0 -0.56761504486E+02 -0.22007723445E+02  0.17431024165E+03  0.18463550208E+03  0.00000000000E+00 0.  1.
         22    1    3    3    0    0 -0.17193976092E+01  0.81827083569E+02  0.11126456449E+03  0.13812469455E+03  0.00000000000E+00 0.  1.
</event>
<event>
 7    1  0.6330892E-006  0.2276772E+03  0.7818608E-02  0.1274867E+00
          2   -1    0    0  502    0  0.00000000000E+00  0.00000000000E+00  0.56774330188E+03  0.56774330188E+03  0.00000000000E+00 0. -1.
          1   -1    0    0  501    0 -0.00000000000E+00 -0.00000000000E+00 -0.68159450273E+03  0.68159450273E+03  0.00000000000E+00 0. -1.
         25    2    1    2    0    0 -0.21312886649E+03 -0.11578424549E+03  0.11504304708E+03  0.29612470277E+03  0.12500012668E+03 0.  0.
          2    1    1    2  501    0  0.21554394028E+03  0.69587524648E+02 -0.56772495482E+03  0.61123910060E+03  0.00000000000E+00 0. -1.
          1    1    1    2  502    0 -0.24150737820E+01  0.46196720837E+02  0.33883070689E+03  0.34197400125E+03  0.00000000000E+00 0. -1.
         22    1    3    3    0    0 -0.10433127556E+03  0.10293381278E+01  0.82965682614E+02  0.13330183453E+03  0.00000000000E+00 0. -1.
         22    1    3    3    0    0 -0.10879759093E+03 -0.11681358361E+03  0.32077364468E+02  0.16282286823E+03  0.00000000000E+00 0. -1.
</event>
<event>
 7    1  0.6330892E-006  0.4903841E+02  0.7818608E-02  0.1455389E+00
          2   -1    0    0  502    0  0.00000000000E+00  0.00000000000E+00  0.43485852422E+04  0.43485852422E+04  0.00000000000E+00 0. -1.
          1   -1    0    0  501    0 -0.00000000000E+00 -0.00000000000E+00 -0.15993141150E+02  0.15993141150E+02  0.00000000000E+00 0. -1.
         25    2    1    2    0    0  0.23744937603E+02 -0.16056832738E+02  0.78487130570E+03  0.79527932081E+03  0.12499835059E+03 0.  0.
          2    1    1    2  501    0 -0.33646098552E+02 -0.33308956109E+02  0.42216672004E+02  0.63433381590E+02  0.00000000000E+00 0. -1.
          1    1    1    2  502    0  0.99011609487E+01  0.49365788847E+02  0.35055041233E+04  0.35058656809E+04  0.00000000000E+00 0. -1.
         22    1    3    3    0    0 -0.37160719325E+02 -0.10685178067E+02  0.93085844345E+02  0.10079715526E+03  0.00000000000E+00 0. -1.
         22    1    3    3    0    0  0.60905656928E+02 -0.53716546714E+01  0.69178546136E+03  0.69448216555E+03  0.00000000000E+00 0. -1.
</event>
<event>
 7    1  0.6330892E-006  0.1008609E+03  0.7818608E-02  0.1458543E+00
          2   -1    0    0  502    0  0.00000000000E+00  0.00000000000E+00  0.56558917349E+02  0.56558917349E+02  0.00000000000E+00 0. -1.
          1   -1    0    0  501    0 -0.00000000000E+00 -0.00000000000E+00 -0.22754704703E+04  0.22754704703E+04  0.00000000000E+00 0. -1.
         25    2    1    2    0    0  0.41229952820E+02 -0.82621923897E+02 -0.73217296375E+02  0.17179156846E+03  0.12500111675E+03 0.  0.
          2    1    1    2  501    0 -0.63394707070E+02  0.78778872781E+02 -0.21309348880E+04  0.21333327205E+04  0.00000000000E+00 0. -1.
          1    1    1    2  502    0  0.22164754250E+02  0.38430511161E+01 -0.14759368623E+02  0.26905098680E+02  0.00000000000E+00 0. -1.
         22    1    3    3    0    0  0.28712680242E+02  0.15707371629E+02 -0.64447535457E+02  0.72281563048E+02  0.00000000000E+00 0.  1.
         22    1    3    3    0    0  0.12517272578E+02 -0.98329295526E+02 -0.87697609184E+01  0.99510005417E+02  0.00000000000E+00 0.  1.
</event>
<event>
 7    1  0.6330892E-006  0.4993855E+02  0.7818608E-02  0.1544622E+00
          2   -1    0    0  502    0  0.00000000000E+00  0.00000000000E+00  0.70011901175E+03  0.70011901175E+03  0.00000000000E+00 0. -1.
          1   -1    0    0  501    0 -0.00000000000E+00 -0.00000000000E+00 -0.16270688199E+03  0.16270688199E+03  0.00000000000E+00 0. -1.
         25    2    1    2    0    0  0.27569478854E+02  0.14577803466E+02  0.28264636042E+03  0.31062442155E+03  0.12500391068E+03 0.  0.
          2    1    1    2  501    0  0.24260549463E+02 -0.66974441143E+01 -0.14593315536E+03  0.14808752767E+03  0.00000000000E+00 0. -1.
          1    1    1    2  502    0 -0.51830028317E+02 -0.78803593512E+01  0.40069892471E+03  0.40411394453E+03  0.00000000000E+00 0. -1.
         22    1    3    3    0    0  0.21507501609E+02  0.61761770951E+02  0.23241693535E+03  0.24144299703E+03  0.00000000000E+00 0. -1.
         22    1    3    3    0    0  0.60619772454E+01 -0.47183967485E+02  0.50229425064E+02  0.69181424516E+02  0.00000000000E+00 0. -1.
</event>
<event>
 7    1  0.6330892E-006  0.4750525E+02  0.7818608E-02  0.1470347E+00
          2   -1    0    0  502    0  0.00000000000E+00  0.00000000000E+00  0.15774728873E+04  0.15774728873E+04  0.00000000000E+00 0. -1.
          1   -1    0    0  501    0 -0.00000000000E+00 -0.00000000000E+00 -0.78523001857E+03  0.78523001857E+03  0.00000000000E+00 0. -1.
         25    2    1    2    0    0  0.15824963487E+02 -0.88098628168E+02  0.70093751361E+03  0.71760146492E+03  0.12500666670E+03 0.  0.
          2    1    1    2  501    0 -0.17146922515E+02  0.44258462155E+02 -0.77561818509E+03  0.77706910727E+03  0.00000000000E+00 0. -1.
          1    1    1    2  502    0  0.13219590286E+01  0.43840166012E+02  0.86692354021E+03  0.86803233367E+03  0.00000000000E+00 0. -1.
         22    1    3    3    0    0 -0.22934879834E+02 -0.89653110659E+02  0.62991265568E+03  0.63667389042E+03  0.00000000000E+00 0.  1.
         22    1    3    3    0    0  0.38759843321E+02  0.15544824913E+01  0.71024857933E+02  0.80927574500E+02  0.00000000000E+00 0.  1.
</event>
<event>
 7    1  0.6330892E-006  0.3610186E+02  0.7818608E-02  0.1598760E+00
          2   -1    0    0  502    0  0.00000000000E+00  0.00000000000E+00  0.37149877556E+03  0.37149877556E+03  0.00000000000E+00 0. -1.
          1   -1    0    0  501    0 -0.00000000000E+00 -0.00000000000E+00 -0.40254098371E+03  0.40254098371E+03  0.00000000000E+00 0. -1.
         25    2    1    2    0    0  0.45113400417E+02  0.22384376975E+02 -0.49877457032E+02  0.14370210316E+03  0.12500501791E+03 0.  0.
          2    1    1    2  501    0 -0.35898674887E+02  0.67110670020E+00 -0.30421910359E+03  0.30633058651E+03  0.00000000000E+00 0. -1.
          1    1    1    2  502    0 -0.92147255294E+01 -0.23055483675E+02  0.32305435248E+03  0.32400706960E+03  0.00000000000E+00 0. -1.
         22    1    3    3    0    0 -0.31301832401E+02 -0.28532092476E+02 -0.95800678230E+01  0.43424218038E+02  0.00000000000E+00 0.  1.
         22    1    3    3    0    0  0.76415232817E+02  0.50916469451E+02 -0.40297389209E+02  0.10027788512E+03  0.00000000000E+00 0.  1.
</event>
<event>
 7    1  0.6330892E-006  0.6155766E+02  0.7818608E-02  0.1412358E+00
          2   -1    0    0  502    0  0.00000000000E+00  0.00000000000E+00  0.54091951921E+03  0.54091951921E+03  0.00000000000E+00 0. -1.
          1   -1    0    0  501    0 -0.00000000000E+00 -0.00000000000E+00 -0.28867252819E+03  0.28867252819E+03  0.00000000000E+00 0. -1.
         25    2    1    2    0    0  0.10304354635E+03 -0.34548424773E+02  0.17890423043E+03  0.24381093543E+03  0.12500192986E+03 0.  0.
          2    1    1    2  501    0 -0.45974859445E+02  0.24662526152E+02 -0.25097085331E+03  0.25633629690E+03  0.00000000000E+00 0. -1.
          1    1    1    2  502    0 -0.57068686907E+02  0.98858986211E+01  0.32431361390E+03  0.32944481507E+03  0.00000000000E+00 0. -1.
         22    1    3    3    0    0 -0.93094959622E+01  0.22384292397E+02  0.80214186770E+02  0.83797607486E+02  0.00000000000E+00 0.  1.
         22    1    3    3    0    0  0.11235304231E+03 -0.56932717170E+02  0.98690043659E+02  0.16001332794E+03  0.00000000000E+00 0.  1.
</event>
<event>
 7    1  0.6330892E-006  0.3690483E+02  0.7818608E-02  0.1603695E+00
          2   -1    0    0  502    0  0.00000000000E+00  0.00000000000E+00  0.28509623457E+03  0.28509623457E+03  0.00000000000E+00 0. -1.
          1   -1    0    0  501    0 -0.00000000000E+00 -0.00000000000E+00 -0.92794480327E+03  0.92794480327E+03  0.00000000000E+00 0. -1.
         25    2    1    2    0    0 -0.57687988463E+02  0.62099017515E+01  0.68032253540E+02  0.15368688950E+03  0.12499922236E+03 0.  0.
          2    1    1    2  501    0  0.23200559652E+02  0.42078818765E+01 -0.88309615244E+03  0.88341088215E+03  0.00000000000E+00 0. -1.
          1    1    1    2  502    0  0.34487428812E+02 -0.10417783628E+02  0.17221533020E+03  0.17594326619E+03  0.00000000000E+00 0. -1.
         22    1    3    3    0    0 -0.31927666515E+02 -0.81440925327E+01  0.10288484801E+03  0.10803237516E+03  0.00000000000E+00 0.  1.
         22    1    3    3    0    0 -0.25760321949E+02  0.14353994284E+02 -0.34852594471E+02  0.45654514346E+02  0.00000000000E+00 0.  1.
</event>
<event>
 7    1  0.6330892E-006  0.1032427E+03  0.7818608E-02  0.1301902E+00
          2   -1    0    0  502    0  0.00000000000E+00  0.00000000000E+00  0.13577940948E+04  0.13577940948E+04  0.00000000000E+00 0. -1.
          1   -1    0    0  501    0 -0.00000000000E+00 -0.00000000000E+00 -0.28121107433E+03  0.28121107433E+03  0.00000000000E+00 0. -1.
         25    2    1    2    0    0 -0.15527189194E+03 -0.17898282102E+02  0.20253977257E+03  0.28473936317E+03  0.12499774611E+03 0.  0.
          2    1    1    2  501    0  0.70153370722E+02 -0.36635215028E+02 -0.23121978438E+03  0.24438949056E+03  0.00000000000E+00 0. -1.
          1    1    1    2  502    0  0.85118521221E+02  0.54533497129E+02  0.11052630323E+04  0.11098763154E+04  0.00000000000E+00 0. -1.
         22    1    3    3    0    0 -0.18707189526E+02 -0.13259834043E+02  0.12610111874E+03  0.12816892871E+03  0.00000000000E+00 0. -1.
         22    1    3    3    0    0 -0.13656470242E+03 -0.46384480585E+01  0.76438653832E+02  0.15657043446E+03  0.00000000000E+00 0. -1.
</event>
<event>
 7    1  0.6330892E-006  0.1541112E+03  0.7818608E-02  0.1300510E+00
          2   -1    0    0  502    0  0.00000000000E+00  0.00000000000E+00  0.80684687080E+03  0.80684687080E+03  0.00000000000E+00 0. -1.
          1   -1    0    0  501    0 -0.00000000000E+00 -0.00000000000E+00 -0.13707819754E+03  0.13707819754E+03  0.00000000000E+00 0. -1.
         25    2    1    2    0    0  0.12474619582E+03  0.42820682934E+02  0.20360730192E+03  0.27290360016E+03  0.12500086931E+03 0.  0.
          2    1    1    2  501    0 -0.16147551719E+03 -0.36420049492E+01 -0.36425957710E+02  0.16557311753E+03  0.00000000000E+00 0. -1.
          1    1    1    2  502    0  0.36729321371E+02 -0.39178677985E+02  0.50258732905E+03  0.50544835066E+03  0.00000000000E+00 0. -1.
         22    1    3    3    0    0 -0.10243722132E+02 -0.37748713399E+01  0.89352057386E+02  0.90016518795E+02  0.00000000000E+00 0. -1.
         22    1    3    3    0    0  0.13498991795E+03  0.46595554274E+02  0.11425524453E+03  0.18288708136E+03  0.00000000000E+00 0. -1.
</event>
<event>
 7    1  0.6330892E-006  0.1037702E+03  0.7818608E-02  0.1278823E+00
          2   -1    0    0  502    0  0.00000000000E+00  0.00000000000E+00  0.39546603099E+03  0.39546603099E+03  0.00000000000E+00 0. -1.
          1   -1    0    0  501    0 -0.00000000000E+00 -0.00000000000E+00 -0.10125332380E+04  0.10125332380E+04  0.00000000000E+00 0. -1.
         25    2    1    2    0    0 -0.11051376205E+03 -0.40465998035E+02 -0.67458855882E+03  0.69609338008E+03  0.12500192599E+03 0.  0.
          2    1    1    2  501    0  0.37481121990E+02  0.10540431632E+03 -0.31107230290E+03  0.33057659027E+03  0.00000000000E+00 0. -1.
          1    1    1    2  502    0  0.73032640058E+02 -0.64938318289E+02  0.36859365472E+03  0.38132929863E+03  0.00000000000E+00 0. -1.
         22    1    3    3    0    0 -0.10620259150E+03 -0.62755675413E+02 -0.65371783367E+03  0.66525504230E+03  0.00000000000E+00 0.  1.
         22    1    3    3    0    0 -0.43111705456E+01  0.22289677378E+02 -0.20870725146E+02  0.30838337783E+02  0.00000000000E+00 0.  1.
</event>
<event>
 7    1  0.6330892E-006  0.1166777E+03  0.7818608E-02  0.1269112E+00
          2   -1    0    0  502    0  0.00000000000E+00  0.00000000000E+00  0.11574338932E+03  0.11574338932E+03  0.00000000000E+00 0. -1.
          1   -1    0    0  501    0 -0.00000000000E+00 -0.00000000000E+00 -0.39971475636E+04  0.39971475636E+04  0.00000000000E+00 0. -1.
         25    2    1    2    0    0  0.65539733526E+02  0.13415020810E+03 -0.24685299265E+04  0.24761979897E+04  0.12499900464E+03 0.  0.
          2    1    1    2  501    0 -0.93129742152E+02 -0.20764116766E+02 -0.14924191208E+04  0.14954661914E+04  0.00000000000E+00 0. -1.
          1    1    1    2  502    0  0.27590008626E+02 -0.11338609133E+03  0.79544872974E+02  0.14122677190E+03  0.00000000000E+00 0. -1.
         22    1    3    3    0    0 -0.52135216200E+00 -0.22592975384E+01 -0.97394694255E+03  0.97394970257E+03  0.00000000000E+00 0. -1.
         22    1    3    3    0    0  0.66061085688E+02  0.13640950564E+03 -0.14945829839E+04  0.15022482871E+04  0.00000000000E+00 0. -1.
</event>
<event>
 7    1  0.6330892E-006  0.1350254E+03  0.7818608E-02  0.1307906E+00
          2   -1    0    0  502    0  0.00000000000E+00  0.00000000000E+00  0.73617357304E+03  0.73617357304E+03  0.00000000000E+00 0. -1.
          1   -1    0    0  501    0 -0.00000000000E+00 -0.00000000000E+00 -0.14436973051E+04  0.14436973051E+04  0.00000000000E+00 0. -1.
         25    2    1    2    0    0 -0.29358757333E+02  0.16328631482E+03  0.22138108085E+03  0.30357791079E+03  0.12500243086E+03 0.  0.
          2    1    1    2  501    0 -0.30667656508E+02 -0.48379191615E+02 -0.13931292328E+04  0.13943063188E+04  0.00000000000E+00 0. -1.
          1    1    1    2  502    0  0.60026413841E+02 -0.11490712320E+03  0.46422441992E+03  0.48198664854E+03  0.00000000000E+00 0. -1.
         22    1    3    3    0    0 -0.65992273654E+02  0.12537010096E+03  0.10671456071E+03  0.17737147422E+03  0.00000000000E+00 0.  1.
         22    1    3    3    0    0  0.36633516321E+02  0.37916213855E+02  0.11466652014E+03  0.12620643657E+03  0.00000000000E+00 0.  1.
</event>
<event>
 7    1  0.6330892E-006  0.7041578E+02  0.7818608E-02  0.1382075E+00
          2   -1    0    0  502    0  0.00000000000E+00  0.00000000000E+00  0.17889172453E+04  0.17889172453E+04  0.00000000000E+00 0. -1.
          1   -1    0    0  501    0 -0.00000000000E+00 -0.00000000000E+00 -0.46308755879E+02  0.46308755879E+02  0.00000000000E+00 0. -1.
         25    2    1    2    0    0 -0.39196870144E+02 -0.67378030988E+02  0.67155762104E+03  0.68752531625E+03  0.12500091368E+03 0.  0.
          2    1    1    2  501    0 -0.30800589762E+02  0.49176802331E+02 -0.14445748184E+02  0.59797272996E+02  0.00000000000E+00 0. -1.
          1    1    1    2  502    0  0.69997459906E+02  0.18201228657E+02  0.10854966166E+04  0.10879034119E+04  0.00000000000E+00 0. -1.
         22    1    3    3    0    0  0.35584332036E+02  0.11536333095E+02  0.13642470938E+03  0.14146035840E+03  0.00000000000E+00 0. -1.
         22    1    3    3    0    0 -0.74781202180E+02 -0.78914364083E+02  0.53513291166E+03  0.54606495786E+03  0.00000000000E+00 0. -1.
</event>
<event>
 7    1  0.6330892E-006  0.1171760E+03  0.7818608E-02  0.1312816E+00
          2   -1    0    0  502    0  0.00000000000E+00  0.00000000000E+00  0.29718655025E+03  0.29718655025E+03  0.00000000000E+00 0. -1.
          1   -1    0    0  501    0 -0.00000000000E+00 -0.00000000000E+00 -0.12265487825E+04  0.12265487825E+04  0.00000000000E+00 0. -1.
         25    2    1    2    0    0 -0.11200711765E+03  0.29528644527E+02 -0.39315147669E+03  0.42849400607E+03  0.12498597667E+03 0.  0.
          2    1    1    2  501    0  0.84586509717E+02 -0.86394046561E+02 -0.80760270490E+03  0.81660329283E+03  0.00000000000E+00 0. -1.
          1    1    1    2  502    0  0.27420607932E+02  0.56865402034E+02  0.27139194939E+03  0.27863803380E+03  0.00000000000E+00 0. -1.
         22    1    3    3    0    0 -0.82235017377E+02 -0.41671110985E+02 -0.19020230767E+03  0.21136697333E+03  0.00000000000E+00 0. -1.
         22    1    3    3    0    0 -0.29772100272E+02  0.71199755512E+02 -0.20294916902E+03  0.21712703274E+03  0.00000000000E+00 0. -1.
</event>
<event>
 7    1  0.6330892E-006  0.2543619E+03  0.7818608E-02  0.1188653E+00
          2   -1    0    0  502    0  0.00000000000E+00  0.00000000000E+00  0.23316995528E+03  0.23316995528E+03  0.00000000000E+00 0. -1.
          1   -1    0    0  501    0 -0.00000000000E+00 -0.00000000000E+00 -0.89593906575E+03  0.89593906575E+03  0.00000000000E+00 0. -1.
         25    2    1    2    0    0 -0.75820608356E+02  0.22254847734E+03 -0.11089823188E+03  0.28844594153E+03  0.12500421566E+03 0.  0.
          2    1    1    2  501    0 -0.99943275946E+02 -0.12266835804E+02 -0.55752033393E+03  0.56654042787E+03  0.00000000000E+00 0. -1.
          1    1    1    2  502    0  0.17576388430E+03 -0.21028164153E+03  0.56494553422E+01  0.27412265163E+03  0.00000000000E+00 0. -1.
         22    1    3    3    0    0 -0.88335174170E+02  0.70212235829E+02 -0.37680645234E+02  0.11896508766E+03  0.00000000000E+00 0.  1.
         22    1    3    3    0    0  0.12514565814E+02  0.15233624151E+03 -0.73217586651E+02  0.16948085387E+03  0.00000000000E+00 0.  1.
</event>
<event>
 7    1  0.6330892E-006  0.6239761E+02  0.7818608E-02  0.1475083E+00
          2   -1    0    0  502    0  0.00000000000E+00  0.00000000000E+00  0.28584991762E+03  0.28584991762E+03  0.00000000000E+00 0. -1.
          1   -1    0    0  501    0 -0.00000000000E+00 -0.00000000000E+00 -0.28939955140E+03  0.28939955140E+03  0.00000000000E+00 0. -1.
         25    2    1    2    0    0  0.77891834575E+02 -0.45080452693E+02 -0.47662629842E+01  0.15409833509E+03  0.12499677798E+03 0.  0.
          2    1    1    2  501    0 -0.46049366553E+02  0.39768648155E+02 -0.20427252946E+03  0.21314163326E+03  0.00000000000E+00 0. -1.
          1    1    1    2  502    0 -0.31842468022E+02  0.53118045383E+01  0.20548915867E+03  0.20800950067E+03  0.00000000000E+00 0. -1.
         22    1    3    3    0    0  0.83916425647E+02 -0.12763548854E+02  0.43750429570E+02  0.95493323119E+02  0.00000000000E+00 0.  1.
         22    1    3    3    0    0 -0.60245910722E+01 -0.32316903840E+02 -0.48516692555E+02  0.58605011968E+02  0.00000000000E+00 0.  1.
</event>
<event>
 7    1  0.6330892E-006  0.2101845E+03  0.7818608E-02  0.1160289E+00
          2   -1    0    0  502    0  0.00000000000E+00  0.00000000000E+00  0.18987651800E+04  0.18987651800E+04  0.00000000000E+00 0. -1.
          1   -1    0    0  501    0 -0.00000000000E+00 -0.00000000000E+00 -0.31845067525E+03  0.31845067525E+03  0.00000000000E+00 0. -1.
         25    2    1    2    0    0 -0.19811269456E+03 -0.77064068285E+02  0.14310386934E+04  0.14521318383E+04  0.12501049264E+03 0.  0.
          2    1    1    2  501    0  0.79609665950E+02  0.19633966698E+03 -0.25246163124E+03  0.32958130862E+03  0.00000000000E+00 0. -1.
          1    1    1    2  502    0  0.11850302860E+03 -0.11927559870E+03  0.40173744260E+03  0.43550270839E+03  0.00000000000E+00 0. -1.
         22    1    3    3    0    0 -0.62021323242E+02  0.23482265495E+02  0.62601676098E+03  0.62951969497E+03  0.00000000000E+00 0.  1.
         22    1    3    3    0    0 -0.13609137131E+03 -0.10054633378E+03  0.80502193245E+03  0.82261214330E+03  0.00000000000E+00 0.  1.
</event>
<event>
 7    1  0.6330892E-006  0.5739606E+02  0.7818608E-02  0.1453972E+00
          2   -1    0    0  502    0  0.00000000000E+00  0.00000000000E+00  0.19153366093E+04  0.19153366093E+04  0.00000000000E+00 0. -1.
          1   -1    0    0  501    0 -0.00000000000E+00 -0.00000000000E+00 -0.21332516641E+03  0.21332516641E+03  0.00000000000E+00 0. -1.
         25    2    1    2    0    0 -0.34393460486E+02  0.80159000287E+02 -0.46343858544E+02  0.15931705097E+03  0.12500317617E+03 0.  0.
          2    1    1    2  501    0  0.37503372795E+02 -0.39405048537E+02 -0.10356004949E+03  0.11697839404E+03  0.00000000000E+00 0. -1.
          1    1    1    2  502    0 -0.31099123089E+01 -0.40753951750E+02  0.18519153509E+04  0.18523663307E+04  0.00000000000E+00 0. -1.
         22    1    3    3    0    0  0.74892632827E+01  0.92793153512E+02 -0.63107049790E+02  0.11246847619E+03  0.00000000000E+00 0.  1.
         22    1    3    3    0    0 -0.41882723769E+02 -0.12634153225E+02  0.16763191246E+02  0.46848574778E+02  0.00000000000E+00 0.  1.
</event>
<event>
 7    1  0.6330892E-006  0.9603436E+02  0.7818608E-02  0.1451800E+00
          2   -1    0    0  502    0  0.00000000000E+00  0.00000000000E+00  0.24008656598E+02  0.24008656598E+02  0.00000000000E+00 0. -1.
          1   -1    0    0  501    0 -0.00000000000E+00 -0.00000000000E+00 -0.32207713328E+04  0.32207713328E+04  0.00000000000E+00 0. -1.
         25    2    1    2    0    0 -0.77878536532E+02 -0.24464146619E+01 -0.73911133421E+03  0.75364566081E+03  0.12500066518E+03 0.  0.
          2    1    1    2  501    0  0.96874192724E+02  0.18421835302E+02 -0.24636311099E+04  0.24656038244E+04  0.00000000000E+00 0. -1.
          1    1    1    2  502    0 -0.18995656191E+02 -0.15975420641E+02  0.59797679287E+01  0.25530504172E+02  0.00000000000E+00 0. -1.
         22    1    3    3    0    0 -0.42472999699E+02 -0.59016735910E+02 -0.26248336877E+03  0.27236822447E+03  0.00000000000E+00 0.  1.
         22    1    3    3    0    0 -0.35405536833E+02  0.56570321248E+02 -0.47662796544E+03  0.48127743633E+03  0.00000000000E+00 0.  1.
</event>
<event>
 7    1  0.6330892E-006  0.7503058E+02  0.7818608E-02  0.1431717E+00
          2   -1    0    0  502    0  0.00000000000E+00  0.00000000000E+00  0.30410444662E+03  0.30410444662E+03  0.00000000000E+00 0. -1.
          1   -1    0    0  501    0 -0.00000000000E+00 -0.00000000000E+00 -0.51613425782E+03  0.51613425782E+03  0.00000000000E+00 0. -1.
         25    2    1    2    0    0 -0.36753816517E+02 -0.44611176021E+02  0.12715042416E+03  0.18743937431E+03  0.12500115449E+03 0.  0.
          2    1    1    2  501    0  0.12215538301E+02 -0.34818040281E+02 -0.47344523629E+03  0.47488093989E+03  0.00000000000E+00 0. -1.
          1    1    1    2  502    0  0.24538278216E+02  0.79429216302E+02  0.13426500093E+03  0.15791839024E+03  0.00000000000E+00 0. -1.
         22    1    3    3    0    0 -0.34011227089E+02  0.17566116336E+02 -0.75849481739E+01  0.39023883072E+02  0.00000000000E+00 0.  1.
         22    1    3    3    0    0 -0.27425894287E+01 -0.62177292357E+02  0.13473537233E+03  0.14841549124E+03  0.00000000000E+00 0.  1.
</event>
<event>
 7    1  0.6330892E-006  0.5433945E+02  0.7818608E-02  0.1473412E+00
          2   -1    0    0  502    0  0.00000000000E+00  0.00000000000E+00  0.24892845760E+04  0.24892845760E+04  0.00000000000E+00 0. -1.
          1   -1    0    0  501    0 -0.00000000000E+00 -0.00000000000E+00 -0.95820154955E+02  0.95820154955E+02  0.00000000000E+00 0. -1.
         25    2    1    2    0    0  0.37476804814E+02 -0.38716864924E+02  0.35300541780E+03  0.37833757131E+03  0.12499194509E+03 0.  0.
          2    1    1    2  501    0 -0.34688867718E+01  0.54550537260E+02 -0.73986993357E+02  0.91988420341E+02  0.00000000000E+00 0. -1.
          1    1    1    2  502    0 -0.34007918042E+02 -0.15833672336E+02  0.21144459966E+04  0.21147787393E+04  0.00000000000E+00 0. -1.
         22    1    3    3    0    0  0.15205748421E+02 -0.65164546978E+02  0.33021443754E+03  0.33692611613E+03  0.00000000000E+00 0.  1.
         22    1    3    3    0    0  0.22271056394E+02  0.26447682054E+02  0.22790980256E+02  0.41411455178E+02  0.00000000000E+00 0.  1.
</event>
<event>
 7    1  0.6330892E-006  0.4652114E+02  0.7818608E-02  0.1570438E+00
          2   -1    0    0  502    0  0.00000000000E+00  0.00000000000E+00  0.14193561733E+04  0.14193561733E+04  0.00000000000E+00 0. -1.
          1   -1    0    0  501    0 -0.00000000000E+00 -0.00000000000E+00 -0.36549732443E+02  0.36549732443E+02  0.00000000000E+00 0. -1.
         25    2    1    2    0    0 -0.36434157751E+02  0.51658452440E+02  0.26018768086E+03  0.29550166481E+03  0.12501024387E+03 0.  0.
          2    1    1    2  501    0  0.21483175228E+02 -0.80051496549E+01 -0.11291192718E+02  0.25555826573E+02  0.00000000000E+00 0. -1.
          1    1    1    2  502    0  0.14950982523E+02 -0.43653302785E+02  0.11339099527E+04  0.11348484144E+04  0.00000000000E+00 0. -1.
         22    1    3    3    0    0 -0.58432130169E+02  0.29547384777E+02  0.48386560343E+02  0.81416343599E+02  0.00000000000E+00 0. -1.
         22    1    3    3    0    0  0.21997972418E+02  0.22111067663E+02  0.21180112052E+03  0.21408532121E+03  0.00000000000E+00 0. -1.
</event>
<event>
 7    1  0.6330892E-006  0.1164829E+03  0.7818608E-02  0.1358634E+00
          2   -1    0    0  502    0  0.00000000000E+00  0.00000000000E+00  0.33533876655E+03  0.33533876655E+03  0.00000000000E+00 0. -1.
          1   -1    0    0  501    0 -0.00000000000E+00 -0.00000000000E+00 -0.13130266574E+04  0.13130266574E+04  0.00000000000E+00 0. -1.
         25    2    1    2    0    0  0.96044080623E+02  0.49132387203E+02 -0.27749127234E+03  0.32289792832E+03  0.12499283576E+03 0.  0.
          2    1    1    2  501    0  0.20422240550E+02 -0.37369608565E+02 -0.10014061606E+04  0.10023112561E+04  0.00000000000E+00 0. -1.
          1    1    1    2  502    0 -0.11646632117E+03 -0.11762778637E+02  0.30120954208E+03  0.32315623957E+03  0.00000000000E+00 0. -1.
         22    1    3    3    0    0  0.90948048395E+02 -0.69872998700E+01 -0.23572052610E+03  0.25275390460E+03  0.00000000000E+00 0.  1.
         22    1    3    3    0    0  0.50960322281E+01  0.56119687073E+02 -0.41770746238E+02  0.70144023715E+02  0.00000000000E+00 0.  1.
</event>
<event>
 7    1  0.6330892E-006  0.8080637E+02  0.7818608E-02  0.1367858E+00
          2   -1    0    0  502    0  0.00000000000E+00  0.00000000000E+00  0.10195636170E+04  0.10195636170E+04  0.00000000000E+00 0. -1.
          1   -1    0    0  501    0 -0.00000000000E+00 -0.00000000000E+00 -0.13235617223E+03  0.13235617223E+03  0.00000000000E+00 0. -1.
         25    2    1    2    0    0  0.98066499211E+02 -0.81461829063E+02  0.90642574764E+02  0.20024775465E+03  0.12502007447E+03 0.  0.
          2    1    1    2  501    0 -0.54869549493E+02  0.14800384425E+02 -0.65064284060E+02  0.86389119112E+02  0.00000000000E+00 0. -1.
          1    1    1    2  502    0 -0.43196949718E+02  0.66661444639E+02  0.86162915407E+03  0.86528291548E+03  0.00000000000E+00 0. -1.
         22    1    3    3    0    0  0.80795242920E+02 -0.99262904964E+02  0.25446778711E+02  0.13049342561E+03  0.00000000000E+00 0. -1.
         22    1    3    3    0    0  0.17271256291E+02  0.17801075901E+02  0.65195796054E+02  0.69754329042E+02  0.00000000000E+00 0. -1.
</event>
<event>
 7    1  0.6330892E-006  0.9639476E+02  0.7818608E-02  0.1315745E+00
          2   -1    0    0  502    0  0.00000000000E+00  0.00000000000E+00  0.12642577927E+03  0.12642577927E+03  0.00000000000E+00 0. -1.
          1   -1    0    0  501    0 -0.00000000000E+00 -0.00000000000E+00 -0.20254201332E+04  0.20254201332E+04  0.00000000000E+00 0. -1.
         25    2    1    2    0    0  0.46389684032E+02 -0.73041818693E+01 -0.29266379328E+03  0.32168627570E+03  0.12499844086E+03 0.  0.
          2    1    1    2  501    0 -0.65157417047E+02  0.79651082967E+02 -0.17040384232E+04  0.17071428563E+04  0.00000000000E+00 0. -1.
          1    1    1    2  502    0  0.18767733016E+02 -0.72346901097E+02  0.97707862498E+02  0.12301678054E+03  0.00000000000E+00 0. -1.
         22    1    3    3    0    0 -0.14224276929E+02  0.25008534283E+02 -0.21932393393E+03  0.22120294943E+03  0.00000000000E+00 0. -1.
         22    1    3    3    0    0  0.60613960961E+02 -0.32312716153E+02 -0.73339859356E+02  0.10048332627E+03  0.00000000000E+00 0. -1.
</event>
<event>
 7    1  0.6330892E-006  0.6909485E+02  0.7818608E-02  0.1479707E+00
          2   -1    0    0  502    0  0.00000000000E+00  0.00000000000E+00  0.12225330629E+03  0.12225330629E+03  0.00000000000E+00 0. -1.
          1   -1    0    0  501    0 -0.00000000000E+00 -0.00000000000E+00 -0.55912973781E+03  0.55912973781E+03  0.00000000000E+00 0. -1.
         25    2    1    2    0    0  0.60321536931E+02 -0.50891738025E+02 -0.46247529322E+03  0.48552778645E+03  0.12500071105E+03 0.  0.
          2    1    1    2  501    0 -0.26634682879E+02 -0.93044104696E+01 -0.71432887590E+02  0.76802576882E+02  0.00000000000E+00 0. -1.
          1    1    1    2  502    0 -0.33686854052E+02  0.60196148495E+02  0.97031749280E+02  0.11905268077E+03  0.00000000000E+00 0. -1.
         22    1    3    3    0    0  0.35697525833E+02 -0.66659165245E+02 -0.44517965162E+03  0.45155584359E+03  0.00000000000E+00 0. -1.
         22    1    3    3    0    0  0.24624011098E+02  0.15767427219E+02 -0.17295641599E+02  0.33971942864E+02  0.00000000000E+00 0. -1.
</event>
<event>
 7    1  0.6330892E-006  0.2185207E+03  0.7818608E-02  0.1251603E+00
          2   -1    0    0  502    0  0.00000000000E+00  0.00000000000E+00  0.72706229259E+03  0.72706229259E+03  0.00000000000E+00 0. -1.
          1   -1    0    0  501    0 -0.00000000000E+00 -0.00000000000E+00 -0.28638488336E+03  0.28638488336E+03  0.00000000000E+00 0. -1.
         25    2    1    2    0    0 -0.18641495162E+02 -0.25690875889E+03  0.72697271684E+02  0.29539659894E+03  0.12499856646E+03 0.  0.
          2    1    1    2  501    0 -0.32070602013E+02  0.51309295010E+02 -0.14822447496E+03  0.16009891394E+03  0.00000000000E+00 0. -1.
          1    1    1    2  502    0  0.50712097175E+02  0.20559946388E+03  0.51620461251E+03  0.55795166307E+03  0.00000000000E+00 0. -1.
         22    1    3    3    0    0  0.24783174872E+02 -0.13511239420E+02  0.35529886497E+02  0.45377661706E+02  0.00000000000E+00 0.  1.
         22    1    3    3    0    0 -0.43424670034E+02 -0.24339751947E+03  0.37167385187E+02  0.25001893723E+03  0.00000000000E+00 0.  1.
</event>
<event>
 7    1  0.6330892E-006  0.1316751E+03  0.7818608E-02  0.1331509E+00
          2   -1    0    0  502    0  0.00000000000E+00  0.00000000000E+00  0.12776420116E+04  0.12776420116E+04  0.00000000000E+00 0. -1.
          1   -1    0    0  501    0 -0.00000000000E+00 -0.00000000000E+00 -0.17173893603E+03  0.17173893603E+03  0.00000000000E+00 0. -1.
         25    2    1    2    0    0  0.44384552109E+02 -0.86533166733E+02  0.41818638310E+03  0.44717218430E+03  0.12500053594E+03 0.  0.
          2    1    1    2  501    0 -0.90194282042E+02  0.99337199724E+02 -0.12780419679E+03  0.18530191710E+03  0.00000000000E+00 0. -1.
          1    1    1    2  502    0  0.45809729933E+02 -0.12804032991E+02  0.81552088927E+03  0.81690684625E+03  0.00000000000E+00 0. -1.
         22    1    3    3    0    0 -0.33801870986E+02 -0.32317577245E+02  0.57335607500E+02  0.73988946259E+02  0.00000000000E+00 0.  1.
         22    1    3    3    0    0  0.78186423095E+02 -0.54215589488E+02  0.36085077560E+03  0.37318323804E+03  0.00000000000E+00 0.  1.
</event>
<event>
 7    1  0.6330892E-006  0.1118294E+03  0.7818608E-02  0.1349819E+00
          2   -1    0    0  502    0  0.00000000000E+00  0.00000000000E+00  0.17551346383E+03  0.17551346383E+03  0.00000000000E+00 0. -1.
          1   -1    0    0  501    0 -0.00000000000E+00 -0.00000000000E+00 -0.12632056190E+04  0.12632056190E+04  0.00000000000E+00 0. -1.
         25    2    1    2    0    0 -0.17134018402E+02  0.11037357462E+03 -0.57469767456E+03  0.59864721690E+03  0.12500069037E+03 0.  0.
          2    1    1    2  501    0  0.47735687588E+02 -0.24698288238E+01 -0.65633085060E+03  0.65806913115E+03  0.00000000000E+00 0. -1.
          1    1    1    2  502    0 -0.30601669186E+02 -0.10790374580E+03  0.14333636998E+03  0.18200273479E+03  0.00000000000E+00 0. -1.
         22    1    3    3    0    0  0.45519604909E+02  0.13821819024E+02 -0.24119630267E+03  0.24584290417E+03  0.00000000000E+00 0.  1.
         22    1    3    3    0    0 -0.62653623311E+02  0.96551755596E+02 -0.33350137189E+03  0.35280431273E+03  0.00000000000E+00 0.  1.
</event>
<event>
 7    1  0.6330892E-006  0.5904620E+02  0.7818608E-02  0.1461389E+00
          2   -1    0    0  502    0  0.00000000000E+00  0.00000000000E+00  0.69751369222E+03  0.69751369222E+03  0.00000000000E+00 0. -1.
          1   -1    0    0  501    0 -0.00000000000E+00 -0.00000000000E+00 -0.45408091643E+03  0.45408091643E+03  0.00000000000E+00 0. -1.
         25    2    1    2    0    0 -0.29598797676E+02 -0.17968558765E+01 -0.40948556779E+02  0.13483737192E+03  0.12500006020E+03 0.  0.
          2    1    1    2  501    0 -0.22969304690E+02  0.29818914612E+02 -0.36385139231E+03  0.36579310042E+03  0.00000000000E+00 0. -1.
          1    1    1    2  502    0  0.52568102367E+02 -0.28022058735E+02  0.64823272487E+03  0.65096413631E+03  0.00000000000E+00 0. -1.
         22    1    3    3    0    0 -0.31584439982E+02  0.16503614976E+02 -0.82239761488E+02  0.89628815266E+02  0.00000000000E+00 0. -1.
         22    1    3    3    0    0  0.19856423058E+01 -0.18300470853E+02  0.41291204709E+02  0.45208556658E+02  0.00000000000E+00 0. -1.
</event>
<event>
 7    1  0.6330892E-006  0.4618363E+02  0.7818608E-02  0.1506131E+00
          2   -1    0    0  502    0  0.00000000000E+00  0.00000000000E+00  0.24523590755E+03  0.24523590755E+03  0.00000000000E+00 0. -1.
          1   -1    0    0  501    0 -0.00000000000E+00 -0.00000000000E+00 -0.72137227393E+03  0.72137227393E+03  0.00000000000E+00 0. -1.
         25    2    1    2    0    0 -0.39773866249E+00  0.15774292554E+02  0.47484349875E+02  0.13464217900E+03  0.12499906552E+03 0.  0.
          2    1    1    2  501    0 -0.20351491000E+02  0.28644492961E+02 -0.67342618326E+03  0.67434228287E+03  0.00000000000E+00 0. -1.
          1    1    1    2  502    0  0.20749229663E+02 -0.44418785515E+02  0.14980546701E+03  0.15762371961E+03  0.00000000000E+00 0. -1.
         22    1    3    3    0    0 -0.25129917390E+01  0.70628298616E+02  0.32176037633E+02  0.77652875611E+02  0.00000000000E+00 0. -1.
         22    1    3    3    0    0  0.21152530765E+01 -0.54854006062E+02  0.15308312241E+02  0.56989303385E+02  0.00000000000E+00 0. -1.
</event>
<event>
 7    1  0.6330892E-006  0.5640995E+02  0.7818608E-02  0.1515384E+00
          2   -1    0    0  502    0  0.00000000000E+00  0.00000000000E+00  0.23115253671E+03  0.23115253671E+03  0.00000000000E+00 0. -1.
          1   -1    0    0  501    0 -0.00000000000E+00 -0.00000000000E+00 -0.43445167057E+03  0.43445167057E+03  0.00000000000E+00 0. -1.
         25    2    1    2    0    0  0.46654388289E+02 -0.35514907066E+02  0.11870061950E+02  0.13857931665E+03  0.12500155224E+03 0.  0.
          2    1    1    2  501    0 -0.24476513392E+02  0.50951081837E+02 -0.36775059146E+03  0.37206936177E+03  0.00000000000E+00 0. -1.
          1    1    1    2  502    0 -0.22177874897E+02 -0.15436174772E+02  0.15258139565E+03  0.15495552886E+03  0.00000000000E+00 0. -1.
         22    1    3    3    0    0 -0.32687559068E+02 -0.14707778298E+02 -0.29766161014E+02  0.46592055136E+02  0.00000000000E+00 0.  1.
         22    1    3    3    0    0  0.79341947357E+02 -0.20807128767E+02  0.41636222965E+02  0.91987261513E+02  0.00000000000E+00 0.  1.
</event>
<event>
 7    1  0.6330892E-006  0.2195321E+03  0.7818608E-02  0.1225904E+00
          2   -1    0    0  502    0  0.00000000000E+00  0.00000000000E+00  0.39762477995E+03  0.39762477995E+03  0.00000000000E+00 0. -1.
          1   -1    0    0  501    0 -0.00000000000E+00 -0.00000000000E+00 -0.15942897470E+04  0.15942897470E+04  0.00000000000E+00 0. -1.
         25    2    1    2    0    0  0.24016173589E+03 -0.21858443784E+02 -0.31778470392E+03  0.41805182731E+03  0.12499904527E+03 0.  0.
          2    1    1    2  501    0 -0.27672731828E+02  0.73174467391E+02 -0.11905817396E+04  0.11931492621E+04  0.00000000000E+00 0. -1.
          1    1    1    2  502    0 -0.21248900406E+03 -0.51316023607E+02  0.31170147650E+03  0.38071343761E+03  0.00000000000E+00 0. -1.
         22    1    3    3    0    0  0.12110682157E+03 -0.70456293675E+02 -0.13500330592E+03  0.19456835344E+03  0.00000000000E+00 0.  1.
         22    1    3    3    0    0  0.11905491432E+03  0.48597849891E+02 -0.18278139800E+03  0.22348347387E+03  0.00000000000E+00 0.  1.
</event>
<event>
 7    1  0.6330892E-006  0.1047574E+03  0.7818608E-02  0.1333421E+00
          2   -1    0    0  502    0  0.00000000000E+00  0.00000000000E+00  0.10134463255E+03  0.10134463255E+03  0.00000000000E+00 0. -1.
          1   -1    0    0  501    0 -0.00000000000E+00 -0.00000000000E+00 -0.53513851823E+03  0.53513851823E+03  0.00000000000E+00 0. -1.
         25    2    1    2    0    0 -0.43614556180E+01 -0.93001937171E+02 -0.22122665078E+03  0.27061718611E+03  0.12499619111E+03 0.  0.
          2    1    1    2  501    0 -0.53796256465E+02  0.10162790965E+03 -0.26386980559E+03  0.28783596636E+03  0.00000000000E+00 0. -1.
          1    1    1    2  502    0  0.58157712083E+02 -0.86259724785E+01  0.51302570687E+02  0.78029998302E+02  0.00000000000E+00 0. -1.
         22    1    3    3    0    0  0.24004084734E+02  0.26483793020E+01  0.38175381005E+01  0.24449613371E+02  0.00000000000E+00 0.  1.
         22    1    3    3    0    0 -0.28365540352E+02 -0.95650316473E+02 -0.22504418888E+03  0.24616757274E+03  0.00000000000E+00 0.  1.
</event>
<event>
 7    1  0.6330892E-006  0.7061051E+02  0.7818608E-02  0.1487474E+00
          2   -1    0    0  502    0  0.00000000000E+00  0.00000000000E+00  0.92186650831E+02  0.92186650831E+02  0.00000000000E+00 0. -1.
          1   -1    0    0  501    0 -0.00000000000E+00 -0.00000000000E+00 -0.87284433585E+03  0.87284433585E+03  0.00000000000E+00 0. -1.
         25    2    1    2    0    0  0.49832498042E+02  0.75437177392E+02 -0.11391159904E+03  0.19177042035E+03  0.12500398445E+03 0.  0.
          2    1    1    2  501    0 -0.22562228032E+02 -0.13202016555E+02 -0.69798606917E+03  0.69847541125E+03  0.00000000000E+00 0. -1.
          1    1    1    2  502    0 -0.27270270010E+02 -0.62235160837E+02  0.31239983190E+02  0.74785155081E+02  0.00000000000E+00 0. -1.
         22    1    3    3    0    0  0.38897881936E+02  0.39087956420E+02  0.15194826535E+02  0.57199618090E+02  0.00000000000E+00 0.  1.
         22    1    3    3    0    0  0.10934616106E+02  0.36349220972E+02 -0.12910642558E+03  0.13457080226E+03  0.00000000000E+00 0.  1.
</event>
<event>
 7    1  0.6330892E-006  0.9421255E+02  0.7818608E-02  0.1382314E+00
          2   -1    0    0  502    0  0.00000000000E+00  0.00000000000E+00  0.21448181692E+04  0.21448181692E+04  0.00000000000E+00 0. -1.
          1   -1    0    0  501    0 -0.00000000000E+00 -0.00000000000E+00 -0.19502426385E+03  0.19502426385E+03  0.00000000000E+00 0. -1.
         25    2    1    2    0    0 -0.11394880207E+03 -0.49946692465E+02  0.99960350003E+03  0.10150423736E+04  0.12499944505E+03 0.  0.
          2    1    1    2  501    0  0.93148665718E+02  0.11986645083E+02 -0.17508978920E+03  0.19868766410E+03  0.00000000000E+00 0. -1.
          1    1    1    2  502    0  0.20800136349E+02  0.37960047383E+02  0.11252801945E+04  0.11261123954E+04  0.00000000000E+00 0. -1.
         22    1    3    3    0    0 -0.38625504996E+02  0.40537674991E+02  0.24554943678E+03  0.25185265262E+03  0.00000000000E+00 0. -1.
         22    1    3    3    0    0 -0.75323297070E+02 -0.90484367457E+02  0.75405406325E+03  0.76318972093E+03  0.00000000000E+00 0. -1.
</event>
<event>
 7    1  0.6330892E-006  0.5150192E+02  0.7818608E-02  0.1458879E+00
          2   -1    0    0  502    0  0.00000000000E+00  0.00000000000E+00  0.12685081258E+04  0.12685081258E+04  0.00000000000E+00 0. -1.
          1   -1    0    0  501    0 -0.00000000000E+00 -0.00000000000E+00 -0.14992318251E+03  0.14992318251E+03  0.00000000000E+00 0. -1.
         25    2    1    2    0    0  0.67253271334E+02  0.36095536087E+02  0.99762517706E+02  0.17720860704E+03  0.12499776094E+03 0.  0.
          2    1    1    2  501    0 -0.42990309751E+02  0.91213153951E+01 -0.10625026265E+03  0.11498036111E+03  0.00000000000E+00 0. -1.
          1    1    1    2  502    0 -0.24262961583E+02 -0.45216851482E+02  0.11250726883E+04  0.11262423402E+04  0.00000000000E+00 0. -1.
         22    1    3    3    0    0  0.19309700871E+02 -0.28153131798E+02 -0.14943272726E+02  0.37266134459E+02  0.00000000000E+00 0.  1.
         22    1    3    3    0    0  0.47943570463E+02  0.64248667885E+02  0.11470579043E+03  0.13994247258E+03  0.00000000000E+00 0.  1.
</event>
<event>
 7    1  0.6330892E-006  0.1793691E+03  0.7818608E-02  0.1221465E+00
          2   -1    0    0  502    0  0.00000000000E+00  0.00000000000E+00  0.10954254313E+04  0.10954254313E+04  0.00000000000E+00 0. -1.
          1   -1    0    0  501    0 -0.00000000000E+00 -0.00000000000E+00 -0.15529098702E+03  0.15529098702E+03  0.00000000000E+00 0. -1.
         25    2    1    2    0    0  0.13074338191E+03 -0.46694585205E+02  0.47150744289E+02  0.19267129310E+03  0.12499927319E+03 0.  0.
          2    1    1    2  501    0 -0.13955013259E+02 -0.99313008294E+02 -0.38915857207E+02  0.10757443913E+03  0.00000000000E+00 0. -1.
          1    1    1    2  502    0 -0.11678836865E+03  0.14600759350E+03  0.93189955715E+03  0.95047068604E+03  0.00000000000E+00 0. -1.
         22    1    3    3    0    0  0.94200352535E+02 -0.52678593812E+02  0.86738687728E+02  0.13846422142E+03  0.00000000000E+00 0.  1.
         22    1    3    3    0    0  0.36543029371E+02  0.59840086072E+01 -0.39587943439E+02  0.54207071681E+02  0.00000000000E+00 0.  1.
</event>
<event>
 7    1  0.8141874E-006  0.6401302E+02  0.7818608E-02  0.1402853E+00
          2   -1    0    0  502    0  0.00000000000E+00  0.00000000000E+00  0.16056123226E+04  0.16056123226E+04  0.00000000000E+00 0. -1.
          1   -1    0    0  501    0 -0.00000000000E+00 -0.00000000000E+00 -0.10873389964E+04  0.10873389964E+04  0.00000000000E+00 0. -1.
         25    2    1    2    0    0  0.40066844187E+02 -0.48906247579E+02 -0.15086741285E+03  0.20587139752E+03  0.12499953200E+03 0.  0.
          2    1    1    2  501    0 -0.64956875557E+02  0.93114155337E+00 -0.90734517491E+03  0.90966781252E+03  0.00000000000E+00 0. -1.
          1    1    1    2  502    0  0.24890031369E+02  0.47975106026E+02  0.15764859139E+04  0.15774121089E+04  0.00000000000E+00 0. -1.
         22    1    3    3    0    0  0.37264004647E+02 -0.88974238973E+02 -0.12579445261E+03  0.15852212953E+03  0.00000000000E+00 0. -1.
         22    1    3    3    0    0  0.28028395402E+01  0.40067991393E+02 -0.25072960240E+02  0.47349267988E+02  0.00000000000E+00 0. -1.
</event>
<event>
 7    1  0.6330892E-006  0.1567240E+03  0.7818608E-02  0.1252073E+00
          2   -1    0    0  502    0  0.00000000000E+00  0.00000000000E+00  0.15038930627E+04  0.15038930627E+04  0.00000000000E+00 0. -1.
          1   -1    0    0  501    0 -0.00000000000E+00 -0.00000000000E+00 -0.82766337846E+03  0.82766337846E+03  0.00000000000E+00 0. -1.
         25    2    1    2    0    0 -0.24361663208E+01  0.21600880043E+03  0.10499584629E+03  0.27076673680E+03  0.12499904499E+03 0.  0.
          2    1    1    2  501    0  0.48018768522E+02 -0.68886718179E+02 -0.73788190682E+03  0.74264452498E+03  0.00000000000E+00 0. -1.
          1    1    1    2  502    0 -0.45582602201E+02 -0.14712208226E+03  0.13091157448E+04  0.13181451794E+04  0.00000000000E+00 0. -1.
         22    1    3    3    0    0 -0.15829006482E+02  0.21274099829E+03  0.56975103518E+02  0.22080636816E+03  0.00000000000E+00 0. -1.
         22    1    3    3    0    0  0.13392840162E+02  0.32678021475E+01  0.48020742771E+02  0.49960368641E+02  0.00000000000E+00 0. -1.
</event>
<event>
 7    1  0.6330892E-006  0.1206176E+03  0.7818608E-02  0.1329711E+00
          2   -1    0    0  502    0  0.00000000000E+00  0.00000000000E+00  0.35585672677E+04  0.35585672677E+04  0.00000000000E+00 0. -1.
          1   -1    0    0  501    0 -0.00000000000E+00 -0.00000000000E+00 -0.44173455114E+03  0.44173455114E+03  0.00000000000E+00 0. -1.
         25    2    1    2    0    0 -0.39037425043E+02  0.13881235964E+03  0.37711533276E+02  0.19452526597E+03  0.12500051047E+03 0.  0.
          2    1    1    2  501    0  0.70365016494E+02 -0.96368523264E+02 -0.35332250861E+03  0.37292750356E+03  0.00000000000E+00 0. -1.
          1    1    1    2  502    0 -0.31327591451E+02 -0.42443836373E+02  0.34324436919E+04  0.34328490493E+04  0.00000000000E+00 0. -1.
         22    1    3    3    0    0 -0.12294813392E+00  0.14511863271E+03  0.49581273949E+02  0.15335493276E+03  0.00000000000E+00 0.  1.
         22    1    3    3    0    0 -0.38914476909E+02 -0.63062730730E+01 -0.11869740672E+02  0.41170333212E+02  0.00000000000E+00 0.  1.
</event>
<event>
 7    1  0.6330892E-006  0.3766161E+02  0.7818608E-02  0.1583257E+00
          2   -1    0    0  502    0  0.00000000000E+00  0.00000000000E+00  0.18042537391E+04  0.18042537391E+04  0.00000000000E+00 0. -1.
          1   -1    0    0  501    0 -0.00000000000E+00 -0.00000000000E+00 -0.50017015681E+02  0.50017015681E+02  0.00000000000E+00 0. -1.
         25    2    1    2    0    0 -0.54916472213E+02  0.26884599838E+02  0.99410073612E+03  0.10037925594E+04  0.12499851270E+03 0.  0.
          2    1    1    2  501    0  0.28939136936E+02 -0.23834428172E+02 -0.37140480076E+02  0.52772804295E+02  0.00000000000E+00 0. -1.
          1    1    1    2  502    0  0.25977335277E+02 -0.30501716665E+01  0.79727646740E+03  0.79770539108E+03  0.00000000000E+00 0. -1.
         22    1    3    3    0    0 -0.16447646298E+01  0.57861852366E+02  0.74258461892E+03  0.74483730805E+03  0.00000000000E+00 0. -1.
         22    1    3    3    0    0 -0.53271707583E+02 -0.30977252528E+02  0.25151611720E+03  0.25895525137E+03  0.00000000000E+00 0. -1.
</event>
<event>
 7    1  0.6330892E-006  0.8489489E+02  0.7818608E-02  0.1383502E+00
          2   -1    0    0  502    0  0.00000000000E+00  0.00000000000E+00  0.62451337672E+03  0.62451337672E+03  0.00000000000E+00 0. -1.
          1   -1    0    0  501    0 -0.00000000000E+00 -0.00000000000E+00 -0.11155519634E+04  0.11155519634E+04  0.00000000000E+00 0. -1.
         25    2    1    2    0    0 -0.13565961805E+02  0.10900721827E+03 -0.45529466097E+03  0.48475151774E+03  0.12499678669E+03 0.  0.
          2    1    1    2  501    0 -0.30468281889E+02 -0.36538383604E+02 -0.64169596029E+03  0.64345712766E+03  0.00000000000E+00 0. -1.
          1    1    1    2  502    0  0.44034243694E+02 -0.72468834667E+02  0.60595203460E+03  0.61185669470E+03  0.00000000000E+00 0. -1.
         22    1    3    3    0    0  0.55908422951E+02  0.46216734416E+02 -0.21125303154E+03  0.22335975831E+03  0.00000000000E+00 0. -1.
         22    1    3    3    0    0 -0.69474384756E+02  0.62790483855E+02 -0.24404162944E+03  0.26139175943E+03  0.00000000000E+00 0. -1.
</event>
<event>
 7    1  0.6330892E-006  0.7708455E+02  0.7818608E-02  0.1469198E+00
          2   -1    0    0  502    0  0.00000000000E+00  0.00000000000E+00  0.27502799285E+03  0.27502799285E+03  0.00000000000E+00 0. -1.
          1   -1    0    0  501    0 -0.00000000000E+00 -0.00000000000E+00 -0.52054472513E+03  0.52054472513E+03  0.00000000000E+00 0. -1.
         25    2    1    2    0    0  0.84589658496E+02 -0.55310625161E+02  0.33378184953E+02  0.16417520985E+03  0.12499888287E+03 0.  0.
          2    1    1    2  501    0 -0.57915151146E+02  0.49723876517E+02 -0.45086517705E+03  0.45728113508E+03  0.00000000000E+00 0. -1.
          1    1    1    2  502    0 -0.26674507351E+02  0.55867486441E+01  0.17197025982E+03  0.17411637305E+03  0.00000000000E+00 0. -1.
         22    1    3    3    0    0  0.72505160374E+02  0.26485356399E+02  0.75912123395E+01  0.77563515194E+02  0.00000000000E+00 0. -1.
         22    1    3    3    0    0  0.12084498123E+02 -0.81795981561E+02  0.25786972613E+02  0.86611694655E+02  0.00000000000E+00 0. -1.
</event>
<event>
 7    1  0.6330892E-006  0.4927843E+02  0.7818608E-02  0.1481646E+00
          2   -1    0    0  502    0  0.00000000000E+00  0.00000000000E+00  0.27027655418E+03  0.27027655418E+03  0.00000000000E+00 0. -1.
          1   -1    0    0  501    0 -0.00000000000E+00 -0.00000000000E+00 -0.10817339387E+04  0.10817339387E+04  0.00000000000E+00 0. -1.
         25    2    1    2    0    0 -0.49369736415E+02 -0.61372781177E+02 -0.47619715617E+02  0.15522991046E+03  0.12499879456E+03 0.  0.
          2    1    1    2  501    0  0.12989354467E+02  0.47262488707E+02 -0.97793187255E+03  0.97915944234E+03  0.00000000000E+00 0. -1.
          1    1    1    2  502    0  0.36380381948E+02  0.14110292470E+02  0.21409420369E+03  0.21762114005E+03  0.00000000000E+00 0. -1.
         22    1    3    3    0    0 -0.58092809874E+02 -0.44095114402E+02  0.27281768969E+02  0.77868148760E+02  0.00000000000E+00 0. -1.
         22    1    3    3    0    0  0.87230734587E+01 -0.17277666775E+02 -0.74901484586E+02  0.77361761698E+02  0.00000000000E+00 0. -1.
</event>
<event>
 7    1  0.6330892E-006  0.8023772E+02  0.7818608E-02  0.1339223E+00
          2   -1    0    0  502    0  0.00000000000E+00  0.00000000000E+00  0.73150011117E+03  0.73150011117E+03  0.00000000000E+00 0. -1.
          1   -1    0    0  501    0 -0.00000000000E+00 -0.00000000000E+00 -0.12687531340E+03  0.12687531340E+03  0.00000000000E+00 0. -1.
         25    2    1    2    0    0  0.11440599216E+02 -0.12396624076E+03  0.34005438042E+03  0.38309663515E+03  0.12501013586E+03 0.  0.
          2    1    1    2  501    0  0.34090851316E+02  0.64525247571E+02 -0.88298897196E+02  0.11455299631E+03  0.00000000000E+00 0. -1.
          1    1    1    2  502    0 -0.45531450532E+02  0.59440993186E+02  0.35286931455E+03  0.36072579310E+03  0.00000000000E+00 0. -1.
         22    1    3    3    0    0 -0.14424613656E+02 -0.13637551886E+03  0.21667736537E+03  0.25642822054E+03  0.00000000000E+00 0. -1.
         22    1    3    3    0    0  0.25865212872E+02  0.12409278102E+02  0.12337701505E+03  0.12666841462E+03  0.00000000000E+00 0. -1.
</event>
<event>
 7    1  0.6330892E-006  0.1225699E+03  0.7818608E-02  0.1383418E+00
          2   -1    0    0  502    0  0.00000000000E+00  0.00000000000E+00  0.17533291209E+04  0.17533291209E+04  0.00000000000E+00 0. -1.
          1   -1    0    0  501    0 -0.00000000000E+00 -0.00000000000E+00 -0.11030533927E+03  0.11030533927E+03  0.00000000000E+00 0. -1.
         25    2    1    2    0    0 -0.48325241298E+02 -0.81103554302E+02  0.11814305563E+04  0.11917700459E+04  0.12499826930E+03 0.  0.
          2    1    1    2  501    0  0.47260474634E+02  0.11406033801E+03 -0.68198642547E+02  0.14104739634E+03  0.00000000000E+00 0. -1.
          1    1    1    2  502    0  0.10647666642E+01 -0.32956783708E+02  0.52979186784E+03  0.53081701796E+03  0.00000000000E+00 0. -1.
         22    1    3    3    0    0 -0.31389651366E+02 -0.59233602252E+02  0.11399102019E+04  0.11418796776E+04  0.00000000000E+00 0. -1.
         22    1    3    3    0    0 -0.16935589932E+02 -0.21869952049E+02  0.41520354477E+02  0.49890368258E+02  0.00000000000E+00 0. -1.
</event>
<event>
 7    1  0.6330892E-006  0.9757149E+02  0.7818608E-02  0.1369127E+00
          2   -1    0    0  502    0  0.00000000000E+00  0.00000000000E+00  0.10976368829E+04  0.10976368829E+04  0.00000000000E+00 0. -1.
          1   -1    0    0  501    0 -0.00000000000E+00 -0.00000000000E+00 -0.68046154348E+02  0.68046154348E+02  0.00000000000E+00 0. -1.
         25    2    1    2    0    0  0.94841930361E+01  0.99807068176E+02  0.55300525155E+03  0.57575215529E+03  0.12499734118E+03 0.  0.
          2    1    1    2  501    0 -0.52814371641E+02 -0.82732965561E+02 -0.12220439277E+02  0.98911276296E+02  0.00000000000E+00 0. -1.
          1    1    1    2  502    0  0.43330178605E+02 -0.17074102615E+02  0.48880591624E+03  0.49101960563E+03  0.00000000000E+00 0. -1.
         22    1    3    3    0    0 -0.23143597424E+02 -0.20911176312E+02  0.66802680054E+02  0.73725853395E+02  0.00000000000E+00 0. -1.
         22    1    3    3    0    0  0.32627790460E+02  0.12071824449E+03  0.48620257150E+03  0.50202630190E+03  0.00000000000E+00 0. -1.
</event>
<event>
 7    1  0.6330892E-006  0.7870894E+02  0.7818608E-02  0.1358552E+00
          2   -1    0    0  502    0  0.00000000000E+00  0.00000000000E+00  0.30963063039E+02  0.30963063039E+02  0.00000000000E+00 0. -1.
          1   -1    0    0  501    0 -0.00000000000E+00 -0.00000000000E+00 -0.11819557757E+04  0.11819557757E+04  0.00000000000E+00 0. -1.
         25    2    1    2    0    0 -0.24361676649E+02 -0.18232124780E+02 -0.72901033064E+03  0.74027454670E+03  0.12499776259E+03 0.  0.
          2    1    1    2  501    0  0.11341549460E+01 -0.63056565228E+02 -0.36566031189E+03  0.37105913331E+03  0.00000000000E+00 0. -1.
          1    1    1    2  502    0  0.23227521703E+02  0.81288690008E+02 -0.56322070127E+02  0.10158515871E+03  0.00000000000E+00 0. -1.
         22    1    3    3    0    0  0.83064272297E+01 -0.57040393520E+02 -0.18183083424E+03  0.19074867104E+03  0.00000000000E+00 0.  1.
         22    1    3    3    0    0 -0.32668103879E+02  0.38808268739E+02 -0.54717949640E+03  0.54952587566E+03  0.00000000000E+00 0.  1.
</event>
<event>
 7    1  0.6330892E-006  0.8162845E+02  0.7818608E-02  0.1391358E+00
          2   -1    0    0  502    0  0.00000000000E+00  0.00000000000E+00  0.12218834244E+03  0.12218834244E+03  0.00000000000E+00 0. -1.
          1   -1    0    0  501    0 -0.00000000000E+00 -0.00000000000E+00 -0.20179658654E+04  0.20179658654E+04  0.00000000000E+00 0. -1.
         25    2    1    2    0    0 -0.90663701441E+02  0.87830756963E+02 -0.57659436634E+01  0.17774662604E+03  0.12500587320E+03 0.  0.
          2    1    1    2  501    0  0.51645627296E+02 -0.62644817265E+02 -0.19100882649E+04  0.19118129677E+04  0.00000000000E+00 0. -1.
          1    1    1    2  502    0  0.39018074145E+02 -0.25185939698E+02  0.20076685578E+02  0.50594614064E+02  0.00000000000E+00 0. -1.
         22    1    3    3    0    0 -0.11510486592E+01  0.73596792432E+02 -0.36344906488E+02  0.82089981100E+02  0.00000000000E+00 0.  1.
         22    1    3    3    0    0 -0.89512652782E+02  0.14233964531E+02  0.30578962824E+02  0.95656644943E+02  0.00000000000E+00 0.  1.
</event>
<event>
 7    1  0.6330892E-006  0.1339298E+03  0.7818608E-02  0.1345734E+00
          2   -1    0    0  502    0  0.00000000000E+00  0.00000000000E+00  0.96838166773E+02  0.96838166773E+02  0.00000000000E+00 0. -1.
          1   -1    0    0  501    0 -0.00000000000E+00 -0.00000000000E+00 -0.11510865469E+04  0.11510865469E+04  0.00000000000E+00 0. -1.
         25    2    1    2    0    0 -0.10678389628E+03 -0.87202391645E+02 -0.76397778754E+03  0.78631705130E+03  0.12500155079E+03 0.  0.
          2    1    1    2  501    0  0.33077440266E+02 -0.24783684593E+02 -0.32134162493E+03  0.32398887017E+03  0.00000000000E+00 0. -1.
          1    1    1    2  502    0  0.73706456013E+02  0.11198607624E+03  0.31071032311E+02  0.13761879224E+03  0.00000000000E+00 0. -1.
         22    1    3    3    0    0 -0.56335221204E+02  0.25692075352E+02 -0.28352090606E+03  0.29020310828E+03  0.00000000000E+00 0. -1.
         22    1    3    3    0    0 -0.50448675074E+02 -0.11289446700E+03 -0.48045688148E+03  0.49611394302E+03  0.00000000000E+00 0. -1.
</event>
<event>
 7    1  0.6330892E-006  0.7599638E+02  0.7818608E-02  0.1414467E+00
          2   -1    0    0  502    0  0.00000000000E+00  0.00000000000E+00  0.13161683134E+04  0.13161683134E+04  0.00000000000E+00 0. -1.
          1   -1    0    0  501    0 -0.00000000000E+00 -0.00000000000E+00 -0.11680897141E+03  0.11680897141E+03  0.00000000000E+00 0. -1.
         25    2    1    2    0    0  0.79653656611E+02 -0.72211924874E+02  0.41010911075E+03  0.44201083077E+03  0.12499929874E+03 0.  0.
          2    1    1    2  501    0 -0.67762366530E+02  0.32375461016E+02 -0.86316385871E+02  0.11441340509E+03  0.00000000000E+00 0. -1.
          1    1    1    2  502    0 -0.11891290080E+02  0.39836463858E+02  0.87556661710E+03  0.87655304894E+03  0.00000000000E+00 0. -1.
         22    1    3    3    0    0  0.97636651530E+02 -0.26455407121E+02  0.35016913535E+03  0.36448762344E+03  0.00000000000E+00 0. -1.
         22    1    3    3    0    0 -0.17982994919E+02 -0.45756517753E+02  0.59939975406E+02  0.77523207331E+02  0.00000000000E+00 0. -1.
</event>
<event>
 7    1  0.6330892E-006  0.4512075E+02  0.7818608E-02  0.1574234E+00
          2   -1    0    0  502    0  0.00000000000E+00  0.00000000000E+00  0.24932928457E+04  0.24932928457E+04  0.00000000000E+00 0. -1.
          1   -1    0    0  501    0 -0.00000000000E+00 -0.00000000000E+00 -0.91298260123E+02  0.91298260123E+02  0.00000000000E+00 0. -1.
         25    2    1    2    0    0  0.20494389462E+02  0.15645455976E+02  0.19765329572E+04  0.19806490367E+04  0.12499310148E+03 0.  0.
          2    1    1    2  501    0 -0.43381113765E+02 -0.12628371896E+02 -0.83242813122E+02  0.94714110589E+02  0.00000000000E+00 0. -1.
          1    1    1    2  502    0  0.22886724303E+02 -0.30170840801E+01  0.50870444147E+03  0.50922795850E+03  0.00000000000E+00 0. -1.
         22    1    3    3    0    0  0.52668643076E+02  0.37783044285E+02  0.17141841881E+04  0.17154092734E+04  0.00000000000E+00 0. -1.
         22    1    3    3    0    0 -0.32174253614E+02 -0.22137588309E+02  0.26234876909E+03  0.26523976334E+03  0.00000000000E+00 0. -1.
</event>
<event>
 7    1  0.6330892E-006  0.1430246E+03  0.7818608E-02  0.1399755E+00
          2   -1    0    0  502    0  0.00000000000E+00  0.00000000000E+00  0.21117952217E+04  0.21117952217E+04  0.00000000000E+00 0. -1.
          1   -1    0    0  501    0 -0.00000000000E+00 -0.00000000000E+00 -0.37253280828E+03  0.37253280828E+03  0.00000000000E+00 0. -1.
         25    2    1    2    0    0 -0.11702535522E+03  0.61151555493E+02  0.16199376101E+03  0.24351971029E+03  0.12500169674E+03 0.  0.
          2    1    1    2  501    0 -0.19382361949E+02 -0.15454325911E+02 -0.32859212639E+03  0.32952586798E+03  0.00000000000E+00 0. -1.
          1    1    1    2  502    0  0.13640771717E+03 -0.45697229582E+02  0.19058607787E+04  0.19112824517E+04  0.00000000000E+00 0. -1.
         22    1    3    3    0    0 -0.10473245397E+03  0.74441907180E+02  0.17787922714E+03  0.21943450938E+03  0.00000000000E+00 0. -1.
         22    1    3    3    0    0 -0.12292901251E+02 -0.13290351686E+02 -0.15885466123E+02  0.24085200914E+02  0.00000000000E+00 0. -1.
</event>
<event>
 7    1  0.6330892E-006  0.3073587E+03  0.7818608E-02  0.1256160E+00
          2   -1    0    0  502    0  0.00000000000E+00  0.00000000000E+00  0.24535664851E+03  0.24535664851E+03  0.00000000000E+00 0. -1.
          1   -1    0    0  501    0 -0.00000000000E+00 -0.00000000000E+00 -0.70643842805E+03  0.70643842805E+03  0.00000000000E+00 0. -1.
         25    2    1    2    0    0 -0.12261506662E+03 -0.30113365633E+03 -0.70523868698E+02  0.35540692417E+03  0.12499812861E+03 0.  0.
          2    1    1    2  501    0  0.32612515801E+02  0.25039211837E+02 -0.28415538883E+03  0.28711465187E+03  0.00000000000E+00 0. -1.
          1    1    1    2  502    0  0.90002550818E+02  0.27609444449E+03 -0.10640252202E+03  0.30927350052E+03  0.00000000000E+00 0. -1.
         22    1    3    3    0    0 -0.11566574960E+03 -0.19705599339E+03 -0.96302549768E+02  0.24795929354E+03  0.00000000000E+00 0. -1.
         22    1    3    3    0    0 -0.69493170182E+01 -0.10407766294E+03  0.25778681070E+02  0.10744763063E+03  0.00000000000E+00 0. -1.
</event>
<event>
 7    1  0.6330892E-006  0.3033242E+03  0.7818608E-02  0.1314996E+00
          2   -1    0    0  502    0  0.00000000000E+00  0.00000000000E+00  0.31945647282E+04  0.31945647282E+04  0.00000000000E+00 0. -1.
          1   -1    0    0  501    0 -0.00000000000E+00 -0.00000000000E+00 -0.81561936729E+03  0.81561936729E+03  0.00000000000E+00 0. -1.
         25    2    1    2    0    0 -0.40554033212E+01  0.30899549072E+03  0.48762486886E+03  0.59067655085E+03  0.12500446155E+03 0.  0.
          2    1    1    2  501    0 -0.22646343484E+02 -0.76798349878E+01 -0.75528881965E+03  0.75566727984E+03  0.00000000000E+00 0. -1.
          1    1    1    2  502    0  0.26701746805E+02 -0.30131565573E+03  0.26466093117E+04  0.26638402648E+04  0.00000000000E+00 0. -1.
         22    1    3    3    0    0  0.11937197121E+02  0.27751059976E+03  0.34076707914E+03  0.43963261012E+03  0.00000000000E+00 0. -1.
         22    1    3    3    0    0 -0.15992600442E+02  0.31484890952E+02  0.14685778973E+03  0.15104394073E+03  0.00000000000E+00 0. -1.
</event>
<event>
 7    1  0.6330892E-006  0.5585902E+02  0.7818608E-02  0.1542708E+00
          2   -1    0    0  502    0  0.00000000000E+00  0.00000000000E+00  0.82691653768E+02  0.82691653768E+02  0.00000000000E+00 0. -1.
          1   -1    0    0  501    0 -0.00000000000E+00 -0.00000000000E+00 -0.18011712579E+04  0.18011712579E+04  0.00000000000E+00 0. -1.
         25    2    1    2    0    0  0.58518506350E+02  0.51533934044E+02 -0.62154794753E+03  0.63876169349E+03  0.12495794514E+03 0.  0.
          2    1    1    2  501    0 -0.14877276829E+02 -0.17252503428E+02 -0.11604962073E+04  0.11607197894E+04  0.00000000000E+00 0. -1.
          1    1    1    2  502    0 -0.43641229521E+02 -0.34281430617E+02  0.63564550783E+02  0.84381428736E+02  0.00000000000E+00 0. -1.
         22    1    3    3    0    0 -0.94334039894E+01  0.42475656932E+02 -0.47481795903E+03  0.47680736651E+03  0.00000000000E+00 0.  1.
         22    1    3    3    0    0  0.67951910340E+02  0.90582771127E+01 -0.14672998850E+03  0.16195432698E+03  0.00000000000E+00 0.  1.
</event>
<event>
 7    1  0.6330892E-006  0.1473135E+03  0.7818608E-02  0.1375725E+00
          2   -1    0    0  502    0  0.00000000000E+00  0.00000000000E+00  0.25651434454E+04  0.25651434454E+04  0.00000000000E+00 0. -1.
          1   -1    0    0  501    0 -0.00000000000E+00 -0.00000000000E+00 -0.31246453200E+02  0.31246453200E+02  0.00000000000E+00 0. -1.
         25    2    1    2    0    0 -0.11908151588E+03  0.12200842244E+03  0.14115130821E+04  0.14272593200E+04  0.12503408650E+03 0.  0.
          2    1    1    2  501    0  0.10781182508E+03 -0.95056694411E+02  0.20003540271E+03  0.24631956301E+03  0.00000000000E+00 0. -1.
          1    1    1    2  502    0  0.11269690795E+02 -0.26951728026E+02  0.92234850733E+03  0.92281101562E+03  0.00000000000E+00 0. -1.
         22    1    3    3    0    0 -0.10775899096E+03  0.32655798386E+02  0.97996491969E+03  0.98641251265E+03  0.00000000000E+00 0.  1.
         22    1    3    3    0    0 -0.11322524921E+02  0.89352624051E+02  0.43154816244E+03  0.44084680730E+03  0.00000000000E+00 0.  1.
</event>
<event>
 7    1  0.6330892E-006  0.1153754E+03  0.7818608E-02  0.1368247E+00
          2   -1    0    0  502    0  0.00000000000E+00  0.00000000000E+00  0.11311240429E+04  0.11311240429E+04  0.00000000000E+00 0. -1.
          1   -1    0    0  501    0 -0.00000000000E+00 -0.00000000000E+00 -0.77701674181E+03  0.77701674181E+03  0.00000000000E+00 0. -1.
         25    2    1    2    0    0 -0.88337103184E+02 -0.12339117334E+02  0.80556795427E+02  0.17340760398E+03  0.12500040885E+03 0.  0.
          2    1    1    2  501    0 -0.28169867391E+02  0.27937875311E+02 -0.72660825479E+03  0.72769060887E+03  0.00000000000E+00 0. -1.
          1    1    1    2  502    0  0.11650697057E+03 -0.15598757977E+02  0.10001587604E+04  0.10070425719E+04  0.00000000000E+00 0. -1.
         22    1    3    3    0    0  0.31045258681E+02 -0.24429028784E+01  0.43834059306E+01  0.31448213122E+02  0.00000000000E+00 0. -1.
         22    1    3    3    0    0 -0.11938236186E+03 -0.98962144551E+01  0.76173389497E+02  0.14195939086E+03  0.00000000000E+00 0. -1.
</event>
<event>
 7    1  0.6330892E-006  0.6447520E+02  0.7818608E-02  0.1475597E+00
          2   -1    0    0  502    0  0.00000000000E+00  0.00000000000E+00  0.17308356222E+04  0.17308356222E+04  0.00000000000E+00 0. -1.
          1   -1    0    0  501    0 -0.00000000000E+00 -0.00000000000E+00 -0.67223613481E+02  0.67223613481E+02  0.00000000000E+00 0. -1.
         25    2    1    2    0    0  0.35759053705E+02 -0.17934703402E+02  0.26450678855E+03  0.29527833360E+03  0.12500035837E+03 0.  0.
          2    1    1    2  501    0  0.97371975125E+01 -0.29566157583E+02 -0.46348487286E+02  0.55831469292E+02  0.00000000000E+00 0. -1.
          1    1    1    2  502    0 -0.45496251217E+02  0.47500860984E+02  0.14454537074E+04  0.14469494328E+04  0.00000000000E+00 0. -1.
         22    1    3    3    0    0 -0.24109102394E+02  0.37442582886E+02  0.13574273960E+03  0.14286107652E+03  0.00000000000E+00 0.  1.
         22    1    3    3    0    0  0.59868156098E+02 -0.55377286288E+02  0.12876404896E+03  0.15241725708E+03  0.00000000000E+00 0.  1.
</event>
<event>
 7    1  0.6330892E-006  0.9862124E+02  0.7818608E-02  0.1410750E+00
          2   -1    0    0  502    0  0.00000000000E+00  0.00000000000E+00  0.71102003720E+03  0.71102003720E+03  0.00000000000E+00 0. -1.
          1   -1    0    0  501    0 -0.00000000000E+00 -0.00000000000E+00 -0.60602956111E+02  0.60602956111E+02  0.00000000000E+00 0. -1.
         25    2    1    2    0    0 -0.19746878565E+02  0.80799140148E+02  0.40065697665E+03  0.42786552474E+03  0.12499781623E+03 0.  0.
          2    1    1    2  501    0 -0.63474919077E+01 -0.10095979840E+03  0.99012513582E+01  0.10164254191E+03  0.00000000000E+00 0. -1.
          1    1    1    2  502    0  0.26094370472E+02  0.20160658255E+02  0.23985885307E+03  0.24211492665E+03  0.00000000000E+00 0. -1.
         22    1    3    3    0    0  0.16758502419E+02  0.44207747089E+02  0.35726317490E+03  0.36037778573E+03  0.00000000000E+00 0. -1.
         22    1    3    3    0    0 -0.36505380984E+02  0.36591393058E+02  0.43393801750E+02  0.67487739013E+02  0.00000000000E+00 0. -1.
</event>
<event>
 7    1  0.6330892E-006  0.2092280E+03  0.7818608E-02  0.1178981E+00
          2   -1    0    0  502    0  0.00000000000E+00  0.00000000000E+00  0.14938113584E+04  0.14938113584E+04  0.00000000000E+00 0. -1.
          1   -1    0    0  501    0 -0.00000000000E+00 -0.00000000000E+00 -0.26107134094E+03  0.26107134094E+03  0.00000000000E+00 0. -1.
         25    2    1    2    0    0 -0.75109217194E+02 -0.21048232321E+03  0.23840364939E+03  0.34986448415E+03  0.12499861734E+03 0.  0.
          2    1    1    2  501    0  0.17684057778E+03  0.11966123252E+03 -0.14464463922E+03  0.25790205927E+03  0.00000000000E+00 0. -1.
          1    1    1    2  502    0 -0.10173136059E+03  0.90821090687E+02  0.11389810073E+04  0.11471161560E+04  0.00000000000E+00 0. -1.
         22    1    3    3    0    0 -0.11099194007E+02 -0.12667499028E+03  0.20124552606E+03  0.23805358016E+03  0.00000000000E+00 0. -1.
         22    1    3    3    0    0 -0.64010023187E+02 -0.83807332936E+02  0.37158123333E+02  0.11181090399E+03  0.00000000000E+00 0. -1.
</event>
<event>
 7    1  0.6330892E-006  0.1469812E+03  0.7818608E-02  0.1350928E+00
          2   -1    0    0  502    0  0.00000000000E+00  0.00000000000E+00  0.13417294755E+03  0.13417294755E+03  0.00000000000E+00 0. -1.
          1   -1    0    0  501    0 -0.00000000000E+00 -0.00000000000E+00 -0.17829168961E+04  0.17829168961E+04  0.00000000000E+00 0. -1.
         25    2    1    2    0    0  0.12325563832E+03 -0.53497849953E+02 -0.76311583949E+03  0.78487273014E+03  0.12500178285E+03 0.  0.
          2    1    1    2  501    0 -0.15172970556E+03  0.31428547801E+02 -0.10001915673E+04  0.10121229315E+04  0.00000000000E+00 0. -1.
          1    1    1    2  502    0  0.28474067248E+02  0.22069302153E+02  0.11456345821E+03  0.12009418204E+03  0.00000000000E+00 0. -1.
         22    1    3    3    0    0 -0.54620305865E+01  0.23194831057E+02 -0.22590127068E+03  0.22715461267E+03  0.00000000000E+00 0.  1.
         22    1    3    3    0    0  0.12871766890E+03 -0.76692681010E+02 -0.53721456881E+03  0.55771811747E+03  0.00000000000E+00 0.  1.
</event>
<event>
 7    1  0.6330892E-006  0.1251218E+03  0.7818608E-02  0.1246598E+00
          2   -1    0    0  502    0  0.00000000000E+00  0.00000000000E+00  0.22924055639E+04  0.22924055639E+04  0.00000000000E+00 0. -1.
          1   -1    0    0  501    0 -0.00000000000E+00 -0.00000000000E+00 -0.26870618299E+03  0.26870618299E+03  0.00000000000E+00 0. -1.
         25    2    1    2    0    0  0.34451903159E+02  0.12634629587E+03  0.44615849745E+03  0.48149035512E+03  0.12500094848E+03 0.  0.
          2    1    1    2  501    0  0.74082100406E+02 -0.10260902906E+03 -0.23327847014E+03  0.26539708943E+03  0.00000000000E+00 0. -1.
          1    1    1    2  502    0 -0.10853400357E+03 -0.23737266807E+02  0.18108193537E+04  0.18142243024E+04  0.00000000000E+00 0. -1.
         22    1    3    3    0    0 -0.33788611509E+02  0.24067964690E+02  0.41960455325E+02  0.59005228609E+02  0.00000000000E+00 0. -1.
         22    1    3    3    0    0  0.68240514668E+02  0.10227833118E+03  0.40419804212E+03  0.42248512652E+03  0.00000000000E+00 0. -1.
</event>
<event>
 7    1  0.6330892E-006  0.2016407E+03  0.7818608E-02  0.1220590E+00
          2   -1    0    0  502    0  0.00000000000E+00  0.00000000000E+00  0.21581391647E+03  0.21581391647E+03  0.00000000000E+00 0. -1.
          1   -1    0    0  501    0 -0.00000000000E+00 -0.00000000000E+00 -0.51129648429E+03  0.51129648429E+03  0.00000000000E+00 0. -1.
         25    2    1    2    0    0 -0.69416084496E+02 -0.18486579330E+03  0.61165201434E+02  0.24157767013E+03  0.12499853807E+03 0.  0.
          2    1    1    2  501    0 -0.18381077667E+02  0.20480734140E+03 -0.33476863925E+03  0.39287905637E+03  0.00000000000E+00 0. -1.
          1    1    1    2  502    0  0.87797162163E+02 -0.19941548100E+02 -0.21879130004E+02  0.92653674262E+02  0.00000000000E+00 0. -1.
         22    1    3    3    0    0 -0.94991067570E+02 -0.16575606096E+03  0.76952922103E+02  0.20596146941E+03  0.00000000000E+00 0. -1.
         22    1    3    3    0    0  0.25574983074E+02 -0.19109732344E+02 -0.15787720669E+02  0.35616200716E+02  0.00000000000E+00 0. -1.
</event>
<event>
 7    1  0.6330892E-006  0.8457012E+02  0.7818608E-02  0.1388170E+00
          2   -1    0    0  502    0  0.00000000000E+00  0.00000000000E+00  0.66472334802E+03  0.66472334802E+03  0.00000000000E+00 0. -1.
          1   -1    0    0  501    0 -0.00000000000E+00 -0.00000000000E+00 -0.45675160175E+03  0.45675160175E+03  0.00000000000E+00 0. -1.
         25    2    1    2    0    0  0.93110995969E+02 -0.29556940104E+02  0.76000655477E+02  0.17591070742E+03  0.12500082829E+03 0.  0.
          2    1    1    2  501    0 -0.83096414151E+02 -0.15328177028E+02 -0.40140848592E+03  0.41020572842E+03  0.00000000000E+00 0. -1.
          1    1    1    2  502    0 -0.10014581819E+02  0.44885117132E+02  0.53337957672E+03  0.53535851394E+03  0.00000000000E+00 0. -1.
         22    1    3    3    0    0  0.97798254301E+02  0.24695729110E+02  0.31760898885E+02  0.10575032992E+03  0.00000000000E+00 0. -1.
         22    1    3    3    0    0 -0.46872583318E+01 -0.54252669215E+02  0.44239756592E+02  0.70160377500E+02  0.00000000000E+00 0. -1.
</event>
<event>
 7    1  0.6330892E-006  0.6245454E+02  0.7818608E-02  0.1403203E+00
          2   -1    0    0  502    0  0.00000000000E+00  0.00000000000E+00  0.54371813554E+03  0.54371813554E+03  0.00000000000E+00 0. -1.
          1   -1    0    0  501    0 -0.00000000000E+00 -0.00000000000E+00 -0.11002370294E+03  0.11002370294E+03  0.00000000000E+00 0. -1.
         25    2    1    2    0    0  0.51740127702E+01 -0.34081053095E+02  0.76377334919E+02  0.15048575186E+03  0.12499670250E+03 0.  0.
          2    1    1    2  501    0 -0.54518394338E+02 -0.89231475743E+01 -0.59580854343E+02  0.81251191302E+02  0.00000000000E+00 0. -1.
          1    1    1    2  502    0  0.49344381568E+02  0.43004200669E+02  0.41689795203E+03  0.42200489532E+03  0.00000000000E+00 0. -1.
         22    1    3    3    0    0 -0.33155620968E+02 -0.29196625817E+02  0.97072698180E+02  0.10665292726E+03  0.00000000000E+00 0.  1.
         22    1    3    3    0    0  0.38329633738E+02 -0.48844272776E+01 -0.20695363261E+02  0.43832824605E+02  0.00000000000E+00 0.  1.
</event>
<event>
 7    1  0.6330892E-006  0.3795979E+02  0.7818608E-02  0.1568324E+00
          2   -1    0    0  502    0  0.00000000000E+00  0.00000000000E+00  0.30200947595E+03  0.30200947595E+03  0.00000000000E+00 0. -1.
          1   -1    0    0  501    0 -0.00000000000E+00 -0.00000000000E+00 -0.16107889520E+03  0.16107889520E+03  0.00000000000E+00 0. -1.
         25    2    1    2    0    0 -0.14105383377E+01 -0.31230118529E+02  0.19872929007E+03  0.23684699523E+03  0.12500343394E+03 0.  0.
          2    1    1    2  501    0  0.29114875747E+02  0.24666137692E+02 -0.13692812106E+03  0.14214571635E+03  0.00000000000E+00 0. -1.
          1    1    1    2  502    0 -0.27704337409E+02  0.65639808366E+01  0.79129411744E+02  0.84095659571E+02  0.00000000000E+00 0. -1.
         22    1    3    3    0    0 -0.38325268943E+01  0.47457182949E+02  0.53237354348E+02  0.71421904020E+02  0.00000000000E+00 0.  1.
         22    1    3    3    0    0  0.24219885566E+01 -0.78687301478E+02  0.14549193572E+03  0.16542509121E+03  0.00000000000E+00 0.  1.
</event>
<event>
 7    1  0.6330892E-006  0.8284575E+02  0.7818608E-02  0.1419371E+00
          2   -1    0    0  502    0  0.00000000000E+00  0.00000000000E+00  0.12991746357E+04  0.12991746357E+04  0.00000000000E+00 0. -1.
          1   -1    0    0  501    0 -0.00000000000E+00 -0.00000000000E+00 -0.17686110840E+03  0.17686110840E+03  0.00000000000E+00 0. -1.
         25    2    1    2    0    0 -0.74127221083E+02  0.37552235220E+02  0.98990495845E+03  0.10012206797E+04  0.12500402928E+03 0.  0.
          2    1    1    2  501    0  0.50571574265E+02 -0.65719589285E+02 -0.15994550624E+03  0.18016412935E+03  0.00000000000E+00 0. -1.
          1    1    1    2  502    0  0.23555646818E+02  0.28167354064E+02  0.29235407504E+03  0.29465093505E+03  0.00000000000E+00 0. -1.
         22    1    3    3    0    0 -0.56934534053E+02 -0.23577049148E+02  0.76630066603E+03  0.76877443322E+03  0.00000000000E+00 0.  1.
         22    1    3    3    0    0 -0.17192687029E+02  0.61129284368E+02  0.22360429242E+03  0.23244624644E+03  0.00000000000E+00 0.  1.
</event>
<event>
 7    1  0.6330892E-006  0.1104595E+03  0.7818608E-02  0.1368948E+00
          2   -1    0    0  502    0  0.00000000000E+00  0.00000000000E+00  0.21188431655E+04  0.21188431655E+04  0.00000000000E+00 0. -1.
          1   -1    0    0  501    0 -0.00000000000E+00 -0.00000000000E+00 -0.17556951935E+03  0.17556951935E+03  0.00000000000E+00 0. -1.
         25    2    1    2    0    0  0.10662618687E+03  0.13032147347E+02  0.11472440532E+04  0.11590262527E+04  0.12503581968E+03 0.  0.
          2    1    1    2  501    0 -0.97046218347E+02 -0.53102925735E+02 -0.15115188920E+03  0.18730932391E+03  0.00000000000E+00 0. -1.
          1    1    1    2  502    0 -0.95799685213E+01  0.40070778388E+02  0.94718148208E+03  0.94807710819E+03  0.00000000000E+00 0. -1.
         22    1    3    3    0    0  0.12273873723E+03  0.42885161548E+02  0.85694359251E+03  0.86675039974E+03  0.00000000000E+00 0.  1.
         22    1    3    3    0    0 -0.16112550362E+02 -0.29853014201E+02  0.29030046072E+03  0.29227585297E+03  0.00000000000E+00 0.  1.
</event>
<event>
 7    1  0.6330892E-006  0.1283379E+03  0.7818608E-02  0.1244440E+00
          2   -1    0    0  502    0  0.00000000000E+00  0.00000000000E+00  0.25460065031E+04  0.25460065031E+04  0.00000000000E+00 0. -1.
          1   -1    0    0  501    0 -0.00000000000E+00 -0.00000000000E+00 -0.12120350916E+03  0.12120350916E+03  0.00000000000E+00 0. -1.
         25    2    1    2    0    0  0.20583342558E+03  0.11271278235E+03  0.23407353788E+03  0.35424182745E+03  0.12500112315E+03 0.  0.
          2    1    1    2  501    0 -0.10229473079E+03 -0.42294923521E+02 -0.77136634421E+01  0.11096203453E+03  0.00000000000E+00 0. -1.
          1    1    1    2  502    0 -0.10353869480E+03 -0.70417858826E+02  0.21984431195E+04  0.22020061503E+04  0.00000000000E+00 0. -1.
         22    1    3    3    0    0  0.74751304253E+02 -0.74781553208E+01  0.12432786561E+03  0.14526217148E+03  0.00000000000E+00 0. -1.
         22    1    3    3    0    0  0.13108212133E+03  0.12019093767E+03  0.10974567227E+03  0.20897965597E+03  0.00000000000E+00 0. -1.
</event>
<event>
 7    1  0.6330892E-006  0.5732713E+02  0.7818608E-02  0.1490871E+00
          2   -1    0    0  502    0  0.00000000000E+00  0.00000000000E+00  0.29119893035E+03  0.29119893035E+03  0.00000000000E+00 0. -1.
          1   -1    0    0  501    0 -0.00000000000E+00 -0.00000000000E+00 -0.31882036593E+03  0.31882036593E+03  0.00000000000E+00 0. -1.
         25    2    1    2    0    0 -0.61631289822E+02  0.22620128568E+02  0.12408163485E+03  0.18796712935E+03  0.12500121402E+03 0.  0.
          2    1    1    2  501    0  0.24054664136E+02  0.20251267599E+02 -0.27994734848E+03  0.28170775394E+03  0.00000000000E+00 0. -1.
          1    1    1    2  502    0  0.37576625687E+02 -0.42871396166E+02  0.12824427805E+03  0.14034441300E+03  0.00000000000E+00 0. -1.
         22    1    3    3    0    0 -0.76742114426E+01 -0.45944602573E+02  0.73785150182E+02  0.87258514852E+02  0.00000000000E+00 0.  1.
         22    1    3    3    0    0 -0.53957078380E+02  0.68564731141E+02  0.50296484665E+02  0.10070861449E+03  0.00000000000E+00 0.  1.
</event>
<event>
 7    1  0.6330892E-006  0.1188712E+03  0.7818608E-02  0.1385256E+00
          2   -1    0    0  502    0  0.00000000000E+00  0.00000000000E+00  0.59337714166E+03  0.59337714166E+03  0.00000000000E+00 0. -1.
          1   -1    0    0  501    0 -0.00000000000E+00 -0.00000000000E+00 -0.72436622905E+02  0.72436622905E+02  0.00000000000E+00 0. -1.
         25    2    1    2    0    0  0.35621936169E+01 -0.92103580109E+02  0.62953134669E+02  0.16758130559E+03  0.12499855250E+03 0.  0.
          2    1    1    2  501    0 -0.13315440224E+02 -0.30737291270E+02  0.12076598265E+02  0.35607952042E+02  0.00000000000E+00 0. -1.
          1    1    1    2  502    0  0.97532466071E+01  0.12284087138E+03  0.44591078582E+03  0.46262450693E+03  0.00000000000E+00 0. -1.
         22    1    3    3    0    0  0.63136294173E+02 -0.36900866485E+02  0.20557738661E+02  0.75963716392E+02  0.00000000000E+00 0.  1.
         22    1    3    3    0    0 -0.59574100556E+02 -0.55202713624E+02  0.42395396008E+02  0.91617589202E+02  0.00000000000E+00 0.  1.
</event>
<event>
 7    1  0.6330892E-006  0.4380465E+02  0.7818608E-02  0.1528526E+00
          2   -1    0    0  502    0  0.00000000000E+00  0.00000000000E+00  0.24324226912E+03  0.24324226912E+03  0.00000000000E+00 0. -1.
          1   -1    0    0  501    0 -0.00000000000E+00 -0.00000000000E+00 -0.21069684132E+03  0.21069684132E+03  0.00000000000E+00 0. -1.
         25    2    1    2    0    0 -0.20660079951E+02 -0.71518008824E+02 -0.69063367811E+02  0.16105188226E+03  0.12500518196E+03 0.  0.
          2    1    1    2  501    0  0.42144571085E+01  0.31597088691E+02 -0.90519020857E+02  0.95967863368E+02  0.00000000000E+00 0. -1.
          1    1    1    2  502    0  0.16445622842E+02  0.39920920134E+02  0.19212781647E+03  0.19691936481E+03  0.00000000000E+00 0. -1.
         22    1    3    3    0    0 -0.38190628014E+01 -0.92952872492E+02 -0.70337268428E+01  0.93296811620E+02  0.00000000000E+00 0. -1.
         22    1    3    3    0    0 -0.16841017149E+02  0.21434863667E+02 -0.62029640969E+02  0.67755070642E+02  0.00000000000E+00 0. -1.
</event>
<event>
 7    1  0.6330892E-006  0.9612037E+02  0.7818608E-02  0.1309169E+00
          2   -1    0    0  502    0  0.00000000000E+00  0.00000000000E+00  0.12125748477E+04  0.12125748477E+04  0.00000000000E+00 0. -1.
          1   -1    0    0  501    0 -0.00000000000E+00 -0.00000000000E+00 -0.12180677310E+03  0.12180677310E+03  0.00000000000E+00 0. -1.
         25    2    1    2    0    0  0.10150274404E+02  0.59586218578E+02  0.34603996394E+03  0.37285870782E+03  0.12500565523E+03 0.  0.
          2    1    1    2  501    0  0.79440556999E+02  0.40857249584E+01 -0.89698375617E+02  0.11988867266E+03  0.00000000000E+00 0. -1.
          1    1    1    2  502    0 -0.89590831403E+02 -0.63671943537E+02  0.83442648626E+03  0.84163424030E+03  0.00000000000E+00 0. -1.
         22    1    3    3    0    0  0.46994875344E+02  0.80477003127E+02  0.19724396486E+03  0.21815189208E+03  0.00000000000E+00 0. -1.
         22    1    3    3    0    0 -0.36844600940E+02 -0.20890784548E+02  0.14879599908E+03  0.15470681575E+03  0.00000000000E+00 0. -1.
</event>
<event>
 7    1  0.6330892E-006  0.9616323E+02  0.7818608E-02  0.1339593E+00
          2   -1    0    0  502    0  0.00000000000E+00  0.00000000000E+00  0.10411295773E+04  0.10411295773E+04  0.00000000000E+00 0. -1.
          1   -1    0    0  501    0 -0.00000000000E+00 -0.00000000000E+00 -0.13906445411E+03  0.13906445411E+03  0.00000000000E+00 0. -1.
         25    2    1    2    0    0  0.69519068245E+02  0.79840426525E+02  0.22779810750E+03  0.28058205089E+03  0.12500765955E+03 0.  0.
          2    1    1    2  501    0  0.24360741929E+02 -0.55593696742E+02 -0.10125417045E+03  0.11805300461E+03  0.00000000000E+00 0. -1.
          1    1    1    2  502    0 -0.93879810175E+02 -0.24246729784E+02  0.77552118610E+03  0.78155897586E+03  0.00000000000E+00 0. -1.
         22    1    3    3    0    0 -0.27479298726E+02  0.39194392392E+02  0.29800316566E+02  0.56385912433E+02  0.00000000000E+00 0. -1.
         22    1    3    3    0    0  0.96998366971E+02  0.40646034134E+02  0.19799779093E+03  0.22419613846E+03  0.00000000000E+00 0. -1.
</event>
<event>
 7    1  0.6330892E-006  0.5350258E+02  0.7818608E-02  0.1433414E+00
          2   -1    0    0  502    0  0.00000000000E+00  0.00000000000E+00  0.33424591990E+02  0.33424591990E+02  0.00000000000E+00 0. -1.
          1   -1    0    0  501    0 -0.00000000000E+00 -0.00000000000E+00 -0.11854386542E+04  0.11854386542E+04  0.00000000000E+00 0. -1.
         25    2    1    2    0    0  0.23635816014E+02 -0.11625193738E+02 -0.70177080504E+03  0.71329700091E+03  0.12496620251E+03 0.  0.
          2    1    1    2  501    0 -0.26684985078E+02 -0.43563637091E+02 -0.44730746497E+03  0.45021533417E+03  0.00000000000E+00 0. -1.
          1    1    1    2  502    0  0.30491690638E+01  0.55188830829E+02 -0.29357921537E+01  0.55350911066E+02  0.00000000000E+00 0. -1.
         22    1    3    3    0    0  0.45681593858E+02  0.18835886394E+02 -0.11305574810E+03  0.12338233590E+03  0.00000000000E+00 0. -1.
         22    1    3    3    0    0 -0.22045777844E+02 -0.30461080132E+02 -0.58871505693E+03  0.58991466500E+03  0.00000000000E+00 0. -1.
</event>
<event>
 7    1  0.6330892E-006  0.3940531E+02  0.7818608E-02  0.1571139E+00
          2   -1    0    0  502    0  0.00000000000E+00  0.00000000000E+00  0.87346727835E+03  0.87346727835E+03  0.00000000000E+00 0. -1.
          1   -1    0    0  501    0 -0.00000000000E+00 -0.00000000000E+00 -0.60193637977E+03  0.60193637977E+03  0.00000000000E+00 0. -1.
         25    2    1    2    0    0 -0.20869413357E+02 -0.54791388395E+02  0.28343726731E+03  0.31528622731E+03  0.12502436551E+03 0.  0.
          2    1    1    2  501    0  0.27090362070E+02  0.28571416660E+02 -0.58503361147E+03  0.58635700739E+03  0.00000000000E+00 0. -1.
          1    1    1    2  502    0 -0.62209487129E+01  0.26219971735E+02  0.57312724274E+03  0.57376042343E+03  0.00000000000E+00 0. -1.
         22    1    3    3    0    0 -0.33367101134E+02 -0.23259336133E+02  0.12957286900E+02  0.42687837135E+02  0.00000000000E+00 0.  1.
         22    1    3    3    0    0  0.12497687777E+02 -0.31532052263E+02  0.27047998041E+03  0.27259839017E+03  0.00000000000E+00 0.  1.
</event>
<event>
 7    1  0.6330892E-006  0.1387427E+03  0.7818608E-02  0.1288551E+00
          2   -1    0    0  502    0  0.00000000000E+00  0.00000000000E+00  0.20352440463E+04  0.20352440463E+04  0.00000000000E+00 0. -1.
          1   -1    0    0  501    0 -0.00000000000E+00 -0.00000000000E+00 -0.84602983077E+03  0.84602983077E+03  0.00000000000E+00 0. -1.
         25    2    1    2    0    0  0.20082789579E+03  0.34582262454E+02 -0.18214356506E+03  0.30053453552E+03  0.12496780443E+03 0.  0.
          2    1    1    2  501    0 -0.63457852815E+02 -0.20436603824E+02 -0.60043090342E+03  0.60412070288E+03  0.00000000000E+00 0. -1.
          1    1    1    2  502    0 -0.13737004297E+03 -0.14145658630E+02  0.19717886840E+04  0.19766186387E+04  0.00000000000E+00 0. -1.
         22    1    3    3    0    0  0.17555468083E+03  0.56127116840E+02 -0.19174715589E+03  0.26596366481E+03  0.00000000000E+00 0.  1.
         22    1    3    3    0    0  0.25273214956E+02 -0.21544854386E+02  0.96035908341E+01  0.34570870710E+02  0.00000000000E+00 0.  1.
</event>
<event>
 7    1  0.6330892E-006  0.6153801E+02  0.7818608E-02  0.1442726E+00
          2   -1    0    0  502    0  0.00000000000E+00  0.00000000000E+00  0.49566782690E+03  0.49566782690E+03  0.00000000000E+00 0. -1.
          1   -1    0    0  501    0 -0.00000000000E+00 -0.00000000000E+00 -0.83863285007E+03  0.83863285007E+03  0.00000000000E+00 0. -1.
         25    2    1    2    0    0 -0.52560463418E+02  0.42352070974E+02 -0.88803083326E+02  0.16753098393E+03  0.12499737092E+03 0.  0.
          2    1    1    2  501    0 -0.90685789775E+01 -0.40417579617E+02 -0.70777452844E+03  0.70898561549E+03  0.00000000000E+00 0. -1.
          1    1    1    2  502    0  0.61629042396E+02 -0.19344913574E+01  0.45361258860E+03  0.45778407755E+03  0.00000000000E+00 0. -1.
         22    1    3    3    0    0  0.38333283655E+02 -0.26466714201E+01 -0.11821886248E+02  0.40202021091E+02  0.00000000000E+00 0. -1.
         22    1    3    3    0    0 -0.90893747073E+02  0.44998742394E+02 -0.76981197078E+02  0.12732896284E+03  0.00000000000E+00 0. -1.
</event>
<event>
 7    1  0.6330892E-006  0.3357808E+02  0.7818608E-02  0.1569946E+00
          2   -1    0    0  502    0  0.00000000000E+00  0.00000000000E+00  0.10165486366E+04  0.10165486366E+04  0.00000000000E+00 0. -1.
          1   -1    0    0  501    0 -0.00000000000E+00 -0.00000000000E+00 -0.59207924065E+02  0.59207924065E+02  0.00000000000E+00 0. -1.
         25    2    1    2    0    0  0.22071153488E+01  0.49806415091E+01  0.69160007039E+02  0.14296573993E+03  0.12500567216E+03 0.  0.
          2    1    1    2  501    0  0.31622854150E+02 -0.38904074844E+01 -0.10443650467E+02  0.33529241120E+02  0.00000000000E+00 0. -1.
          1    1    1    2  502    0 -0.33829969499E+02 -0.10902340247E+01  0.89862435594E+03  0.89926157959E+03  0.00000000000E+00 0. -1.
         22    1    3    3    0    0 -0.16891268397E+02  0.26777505548E+02 -0.27573835966E+02  0.41984118203E+02  0.00000000000E+00 0.  1.
         22    1    3    3    0    0  0.19098383746E+02 -0.21796864039E+02  0.96733843005E+02  0.10098162172E+03  0.00000000000E+00 0.  1.
</event>
<event>
 7    1  0.6330892E-006  0.9960718E+02  0.7818608E-02  0.1368560E+00
          2   -1    0    0  502    0  0.00000000000E+00  0.00000000000E+00  0.78127351602E+03  0.78127351602E+03  0.00000000000E+00 0. -1.
          1   -1    0    0  501    0 -0.00000000000E+00 -0.00000000000E+00 -0.26199828581E+03  0.26199828581E+03  0.00000000000E+00 0. -1.
         25    2    1    2    0    0 -0.56665892281E+02 -0.86754148225E+02  0.19052551915E+02  0.16347561726E+03  0.12499588842E+03 0.  0.
          2    1    1    2  501    0  0.44137018538E+02 -0.12362880168E+02 -0.18333413989E+03  0.18897704638E+03  0.00000000000E+00 0. -1.
          1    1    1    2  502    0  0.12528873743E+02  0.99117028393E+02  0.68355681818E+03  0.69081913818E+03  0.00000000000E+00 0. -1.
         22    1    3    3    0    0 -0.79791965530E+02 -0.49907829387E+02 -0.29169032613E+02  0.98531120266E+02  0.00000000000E+00 0. -1.
         22    1    3    3    0    0  0.23126073249E+02 -0.36846318839E+02  0.48221584528E+02  0.64944496998E+02  0.00000000000E+00 0. -1.
</event>
<event>
 7    1  0.6330892E-006  0.7370823E+02  0.7818608E-02  0.1380045E+00
          2   -1    0    0  502    0  0.00000000000E+00  0.00000000000E+00  0.16785115194E+04  0.16785115194E+04  0.00000000000E+00 0. -1.
          1   -1    0    0  501    0 -0.00000000000E+00 -0.00000000000E+00 -0.60042830048E+02  0.60042830048E+02  0.00000000000E+00 0. -1.
         25    2    1    2    0    0 -0.33759138587E+02  0.11598805627E+03  0.78661126030E+03  0.80558857624E+03  0.12499108248E+03 0.  0.
          2    1    1    2  501    0 -0.18503323287E+01 -0.72305071733E+02 -0.23272544628E+02  0.75980645309E+02  0.00000000000E+00 0. -1.
          1    1    1    2  502    0  0.35609470916E+02 -0.43682984537E+02  0.85512997367E+03  0.85698512789E+03  0.00000000000E+00 0. -1.
         22    1    3    3    0    0 -0.68565660630E+02  0.33766036987E+02  0.24429560751E+03  0.25597214481E+03  0.00000000000E+00 0.  1.
         22    1    3    3    0    0  0.34806522043E+02  0.82222019283E+02  0.54231565279E+03  0.54961643142E+03  0.00000000000E+00 0.  1.
</event>
<event>
 7    1  0.6330892E-006  0.8296051E+02  0.7818608E-02  0.1414776E+00
          2   -1    0    0  502    0  0.00000000000E+00  0.00000000000E+00  0.20448839188E+04  0.20448839188E+04  0.00000000000E+00 0. -1.
          1   -1    0    0  501    0 -0.00000000000E+00 -0.00000000000E+00 -0.57362428372E+03  0.57362428372E+03  0.00000000000E+00 0. -1.
         25    2    1    2    0    0  0.48219241928E+02  0.70670077507E+01  0.59376024152E+03  0.60873007978E+03  0.12500419082E+03 0.  0.
          2    1    1    2  501    0 -0.76602032076E+02 -0.32322818684E+02 -0.56283498530E+03  0.56894275336E+03  0.00000000000E+00 0. -1.
          1    1    1    2  502    0  0.28382790148E+02  0.25255810934E+02  0.14403343789E+04  0.14408353694E+04  0.00000000000E+00 0. -1.
         22    1    3    3    0    0  0.85890141280E+02  0.53017794055E+01  0.28593940969E+03  0.29860772134E+03  0.00000000000E+00 0.  1.
         22    1    3    3    0    0 -0.37670899352E+02  0.17652283452E+01  0.30782083183E+03  0.31012235843E+03  0.00000000000E+00 0.  1.
</event>
<event>
 7    1  0.6330892E-006  0.1187223E+03  0.7818608E-02  0.1401996E+00
          2   -1    0    0  502    0  0.00000000000E+00  0.00000000000E+00  0.27575709411E+04  0.27575709411E+04  0.00000000000E+00 0. -1.
          1   -1    0    0  501    0 -0.00000000000E+00 -0.00000000000E+00 -0.10406411834E+04  0.10406411834E+04  0.00000000000E+00 0. -1.
         25    2    1    2    0    0 -0.11777366895E+03 -0.81827634992E+02  0.86437438864E+03  0.88506140831E+03  0.12499685517E+03 0.  0.
          2    1    1    2  501    0  0.20987985032E+02  0.20501001819E+02 -0.10283451016E+04  0.10287635465E+04  0.00000000000E+00 0. -1.
          1    1    1    2  502    0  0.96785683915E+02  0.61326633173E+02  0.18809004707E+04  0.18843871697E+04  0.00000000000E+00 0. -1.
         22    1    3    3    0    0 -0.26379400465E+02  0.33496564948E+02  0.22083549391E+03  0.22491377904E+03  0.00000000000E+00 0. -1.
         22    1    3    3    0    0 -0.91394268481E+02 -0.11532419994E+03  0.64353889473E+03  0.66014762927E+03  0.00000000000E+00 0. -1.
</event>
<event>
 7    1  0.6330892E-006  0.1575040E+03  0.7818608E-02  0.1290605E+00
          2   -1    0    0  502    0  0.00000000000E+00  0.00000000000E+00  0.27607821541E+03  0.27607821541E+03  0.00000000000E+00 0. -1.
          1   -1    0    0  501    0 -0.00000000000E+00 -0.00000000000E+00 -0.14279707525E+04  0.14279707525E+04  0.00000000000E+00 0. -1.
         25    2    1    2    0    0  0.11474502181E+03  0.59233595904E+02 -0.50951626934E+03  0.54028392334E+03  0.12499940071E+03 0.  0.
          2    1    1    2  501    0 -0.62951288732E+01  0.57261901749E+02 -0.87774480406E+03  0.87963315939E+03  0.00000000000E+00 0. -1.
          1    1    1    2  502    0 -0.10844989294E+03 -0.11649549765E+03  0.23536853636E+03  0.28413188515E+03  0.00000000000E+00 0. -1.
         22    1    3    3    0    0  0.94173080292E+02  0.66761691037E+02 -0.50485889272E+03  0.51788820608E+03  0.00000000000E+00 0.  1.
         22    1    3    3    0    0  0.20571941522E+02 -0.75280951327E+01 -0.46573766216E+01  0.22395717254E+02  0.00000000000E+00 0.  1.
</event>
<event>
 7    1  0.6330892E-006  0.1253917E+03  0.7818608E-02  0.1259409E+00
          2   -1    0    0  502    0  0.00000000000E+00  0.00000000000E+00  0.11120994925E+04  0.11120994925E+04  0.00000000000E+00 0. -1.
          1   -1    0    0  501    0 -0.00000000000E+00 -0.00000000000E+00 -0.18635892485E+04  0.18635892485E+04  0.00000000000E+00 0. -1.
         25    2    1    2    0    0  0.69147270680E+02 -0.33997913625E+02  0.41576246174E+03  0.44093154539E+03  0.12499999982E+03 0.  0.
          2    1    1    2  501    0 -0.84400587735E+02 -0.92734083682E+02 -0.18428981802E+04  0.18471591085E+04  0.00000000000E+00 0. -1.
          1    1    1    2  502    0  0.15253317054E+02  0.12673199731E+03  0.67564596247E+03  0.68759808713E+03  0.00000000000E+00 0. -1.
         22    1    3    3    0    0  0.79306135139E+02  0.13156114362E+02  0.35152493354E+03  0.36059995191E+03  0.00000000000E+00 0. -1.
         22    1    3    3    0    0 -0.10158864458E+02 -0.47154027987E+02  0.64237528204E+02  0.80331593487E+02  0.00000000000E+00 0. -1.
</event>
<event>
 7    1  0.6330892E-006  0.7457753E+02  0.7818608E-02  0.1503295E+00
          2   -1    0    0  502    0  0.00000000000E+00  0.00000000000E+00  0.57619613449E+03  0.57619613449E+03  0.00000000000E+00 0. -1.
          1   -1    0    0  501    0 -0.00000000000E+00 -0.00000000000E+00 -0.11195001690E+04  0.11195001690E+04  0.00000000000E+00 0. -1.
         25    2    1    2    0    0  0.92420003082E+02 -0.19166121981E+02  0.11831612379E+02  0.15708016741E+03  0.12500157895E+03 0.  0.
          2    1    1    2  501    0 -0.21983360302E+02 -0.29881448569E+01 -0.10439855196E+04  0.10442212228E+04  0.00000000000E+00 0. -1.
          1    1    1    2  502    0 -0.70436642780E+02  0.22154266838E+02  0.48884987270E+03  0.49439491322E+03  0.00000000000E+00 0. -1.
         22    1    3    3    0    0  0.14129701945E+02 -0.68206242993E+01 -0.52629510953E+02  0.54918437851E+02  0.00000000000E+00 0. -1.
         22    1    3    3    0    0  0.78290301137E+02 -0.12345497682E+02  0.64461123332E+02  0.10216172956E+03  0.00000000000E+00 0. -1.
</event>
<event>
 7    1  0.6330892E-006  0.1976254E+03  0.7818608E-02  0.1340690E+00
          2   -1    0    0  502    0  0.00000000000E+00  0.00000000000E+00  0.14139556774E+04  0.14139556774E+04  0.00000000000E+00 0. -1.
          1   -1    0    0  501    0 -0.00000000000E+00 -0.00000000000E+00 -0.21580136513E+03  0.21580136513E+03  0.00000000000E+00 0. -1.
         25    2    1    2    0    0  0.10181404588E+03 -0.16993582828E+03  0.14266411013E+02  0.23467497713E+03  0.12499811494E+03 0.  0.
          2    1    1    2  501    0  0.23701808740E+02  0.17149271551E+02 -0.95820816183E+02  0.10018733486E+03  0.00000000000E+00 0. -1.
          1    1    1    2  502    0 -0.12551585462E+03  0.15278655673E+03  0.12797087174E+04  0.12948947305E+04  0.00000000000E+00 0. -1.
         22    1    3    3    0    0  0.13739973454E+02 -0.23996865237E+02  0.53084543847E+02  0.59854867866E+02  0.00000000000E+00 0. -1.
         22    1    3    3    0    0  0.88074072426E+02 -0.14593896304E+03 -0.38818132834E+02  0.17482010927E+03  0.00000000000E+00 0. -1.
</event>
<event>
 7    1  0.6330892E-006  0.5509220E+02  0.7818608E-02  0.1498684E+00
          2   -1    0    0  502    0  0.00000000000E+00  0.00000000000E+00  0.20333601364E+04  0.20333601364E+04  0.00000000000E+00 0. -1.
          1   -1    0    0  501    0 -0.00000000000E+00 -0.00000000000E+00 -0.11206004794E+03  0.11206004794E+03  0.00000000000E+00 0. -1.
         25    2    1    2    0    0 -0.23455516247E+01 -0.58933937599E+02  0.11320804757E+02  0.13867798334E+03  0.12499884731E+03 0.  0.
          2    1    1    2  501    0 -0.26954975840E+02  0.48818043583E+02 -0.32147570124E+02  0.64367991787E+02  0.00000000000E+00 0. -1.
          1    1    1    2  502    0  0.29300527465E+02  0.10115894017E+02  0.19421268538E+04  0.19423742092E+04  0.00000000000E+00 0. -1.
         22    1    3    3    0    0 -0.42517105812E+02 -0.13578332948E+02  0.49823360850E+02  0.66891275206E+02  0.00000000000E+00 0.  1.
         22    1    3    3    0    0  0.40171554188E+02 -0.45355604651E+02 -0.38502556093E+02  0.71786708135E+02  0.00000000000E+00 0.  1.
</event>
<event>
 7    1  0.6330892E-006  0.9307286E+02  0.7818608E-02  0.1334881E+00
          2   -1    0    0  502    0  0.00000000000E+00  0.00000000000E+00  0.82618558113E+03  0.82618558113E+03  0.00000000000E+00 0. -1.
          1   -1    0    0  501    0 -0.00000000000E+00 -0.00000000000E+00 -0.26806192955E+04  0.26806192955E+04  0.00000000000E+00 0. -1.
         25    2    1    2    0    0 -0.12009692449E+03 -0.71624607027E+02 -0.33608762370E+03  0.38487768763E+03  0.12499035172E+03 0.  0.
          2    1    1    2  501    0  0.28159624249E+02  0.58955980078E+02 -0.23169890536E+04  0.23179100601E+04  0.00000000000E+00 0. -1.
          1    1    1    2  502    0  0.91937300244E+02  0.12668626949E+02  0.79864296297E+03  0.80401712891E+03  0.00000000000E+00 0. -1.
         22    1    3    3    0    0 -0.41287343335E+02 -0.87724883626E+02 -0.11980602531E+03  0.15412262529E+03  0.00000000000E+00 0. -1.
         22    1    3    3    0    0 -0.78809581157E+02  0.16100276599E+02 -0.21628159840E+03  0.23075506234E+03  0.00000000000E+00 0. -1.
</event>
<event>
 7    1  0.6330892E-006  0.1029121E+03  0.7818608E-02  0.1390472E+00
          2   -1    0    0  502    0  0.00000000000E+00  0.00000000000E+00  0.65082270152E+03  0.65082270152E+03  0.00000000000E+00 0. -1.
          1   -1    0    0  501    0 -0.00000000000E+00 -0.00000000000E+00 -0.11651170852E+04  0.11651170852E+04  0.00000000000E+00 0. -1.
         25    2    1    2    0    0  0.88958779479E+02 -0.35375784093E+02  0.50135630391E+02  0.16523823348E+03  0.12499992729E+03 0.  0.
          2    1    1    2  501    0 -0.75792298355E+02  0.70059685136E+02 -0.11045235123E+04  0.11093353962E+04  0.00000000000E+00 0. -1.
          1    1    1    2  502    0 -0.13166481124E+02 -0.34683901043E+02  0.54009349822E+03  0.54136615709E+03  0.00000000000E+00 0. -1.
         22    1    3    3    0    0  0.71270497905E+02 -0.16879188943E+02  0.91127569589E+02  0.11691289420E+03  0.00000000000E+00 0.  1.
         22    1    3    3    0    0  0.17688281574E+02 -0.18496595150E+02 -0.40991939198E+02  0.48325339279E+02  0.00000000000E+00 0.  1.
</event>
<event>
 7    1  0.6330892E-006  0.1225984E+03  0.7818608E-02  0.1271898E+00
          2   -1    0    0  502    0  0.00000000000E+00  0.00000000000E+00  0.10762117275E+04  0.10762117275E+04  0.00000000000E+00 0. -1.
          1   -1    0    0  501    0 -0.00000000000E+00 -0.00000000000E+00 -0.16276012026E+04  0.16276012026E+04  0.00000000000E+00 0. -1.
         25    2    1    2    0    0  0.13942475919E+03  0.35155139052E+02 -0.71149530575E+02  0.20337536642E+03  0.12499654670E+03 0.  0.
          2    1    1    2  501    0 -0.11266053529E+03  0.49092994566E+02 -0.14858631943E+04  0.14909366018E+04  0.00000000000E+00 0. -1.
          1    1    1    2  502    0 -0.26764223896E+02 -0.84248133618E+02  0.10056232497E+04  0.10095009619E+04  0.00000000000E+00 0. -1.
         22    1    3    3    0    0 -0.13400496979E+02  0.15763476774E+02  0.16205500120E+02  0.26280767748E+02  0.00000000000E+00 0.  1.
         22    1    3    3    0    0  0.15282525617E+03  0.19391662279E+02 -0.87355030695E+02  0.17709459867E+03  0.00000000000E+00 0.  1.
</event>
<event>
 7    1  0.6330892E-006  0.9572540E+02  0.7818608E-02  0.1395239E+00
          2   -1    0    0  502    0  0.00000000000E+00  0.00000000000E+00  0.72215640198E+02  0.72215640198E+02  0.00000000000E+00 0. -1.
          1   -1    0    0  501    0 -0.00000000000E+00 -0.00000000000E+00 -0.33890279276E+03  0.33890279276E+03  0.00000000000E+00 0. -1.
         25    2    1    2    0    0 -0.33641099625E+02  0.71908680781E+02 -0.81461771911E+02  0.16900571001E+03  0.12499731109E+03 0.  0.
          2    1    1    2  501    0  0.20828944336E+01  0.38335035995E+02 -0.68240293725E+02  0.78298474580E+02  0.00000000000E+00 0. -1.
          1    1    1    2  502    0  0.31558205191E+02 -0.11024371678E+03 -0.11698508693E+03  0.16381424836E+03  0.00000000000E+00 0. -1.
         22    1    3    3    0    0  0.17527171301E+02  0.23751509630E+02 -0.93202844834E+02  0.97765567705E+02  0.00000000000E+00 0. -1.
         22    1    3    3    0    0 -0.51168270926E+02  0.48157171151E+02  0.11741072923E+02  0.71240142309E+02  0.00000000000E+00 0. -1.
</event>
<event>
 7    1  0.6330892E-006  0.9066862E+02  0.7818608E-02  0.1396405E+00
          2   -1    0    0  502    0  0.00000000000E+00  0.00000000000E+00  0.12026838761E+04  0.12026838761E+04  0.00000000000E+00 0. -1.
          1   -1    0    0  501    0 -0.00000000000E+00 -0.00000000000E+00 -0.10936234116E+04  0.10936234116E+04  0.00000000000E+00 0. -1.
         25    2    1    2    0    0 -0.83339535791E+02 -0.72679066040E+02  0.33062548352E+03  0.37035786707E+03  0.12499605786E+03 0.  0.
          2    1    1    2  501    0  0.39849226406E+02 -0.49704764708E+01 -0.10710562345E+04  0.10718088095E+04  0.00000000000E+00 0. -1.
          1    1    1    2  502    0  0.43490309385E+02  0.77649542511E+02  0.84949121548E+03  0.85414061117E+03  0.00000000000E+00 0. -1.
         22    1    3    3    0    0 -0.10174926126E+03 -0.67039897959E+02  0.17324721349E+03  0.21180617806E+03  0.00000000000E+00 0. -1.
         22    1    3    3    0    0  0.18409725464E+02 -0.56391680808E+01  0.15737827004E+03  0.15855168901E+03  0.00000000000E+00 0. -1.
</event>
<event>
 7    1  0.6330892E-006  0.6589781E+02  0.7818608E-02  0.1498089E+00
          2   -1    0    0  502    0  0.00000000000E+00  0.00000000000E+00  0.20490225511E+03  0.20490225511E+03  0.00000000000E+00 0. -1.
          1   -1    0    0  501    0 -0.00000000000E+00 -0.00000000000E+00 -0.16586933483E+04  0.16586933483E+04  0.00000000000E+00 0. -1.
         25    2    1    2    0    0  0.79906276589E+01  0.58119124685E+02 -0.51418639383E+03  0.53240417440E+03  0.12499949815E+03 0.  0.
          2    1    1    2  501    0 -0.34010667636E+02 -0.57884300795E+02 -0.11335358864E+04  0.11355223131E+04  0.00000000000E+00 0. -1.
          1    1    1    2  502    0  0.26020039977E+02 -0.23482389024E+00  0.19393118703E+03  0.19566911592E+03  0.00000000000E+00 0. -1.
         22    1    3    3    0    0  0.64164187316E+02  0.48290504135E+02 -0.27290770807E+03  0.28447782487E+03  0.00000000000E+00 0. -1.
         22    1    3    3    0    0 -0.56173559657E+02  0.98286205506E+01 -0.24127868576E+03  0.24792634953E+03  0.00000000000E+00 0. -1.
</event>
<event>
 7    1  0.6330892E-006  0.1766335E+03  0.7818608E-02  0.1312073E+00
          2   -1    0    0  502    0  0.00000000000E+00  0.00000000000E+00  0.16862050869E+04  0.16862050869E+04  0.00000000000E+00 0. -1.
          1   -1    0    0  501    0 -0.00000000000E+00 -0.00000000000E+00 -0.25578027227E+04  0.25578027227E+04  0.00000000000E+00 0. -1.
         25    2    1    2    0    0  0.20696721267E+03 -0.45135904383E+02 -0.83834183858E+02  0.25985754324E+03  0.12500038165E+03 0.  0.
          2    1    1    2  501    0 -0.16621975316E+03  0.55967923894E+02 -0.23824546691E+04  0.23889017696E+04  0.00000000000E+00 0. -1.
          1    1    1    2  502    0 -0.40747459515E+02 -0.10832019511E+02  0.15946912172E+04  0.15952484967E+04  0.00000000000E+00 0. -1.
         22    1    3    3    0    0  0.20033846418E+03 -0.38538906415E+02 -0.31181538659E+02  0.20638080311E+03  0.00000000000E+00 0.  1.
         22    1    3    3    0    0  0.66287484873E+01 -0.65969979682E+01 -0.52652645199E+02  0.53476740132E+02  0.00000000000E+00 0.  1.
</event>
<event>
 7    1  0.6330892E-006  0.1857270E+03  0.7818608E-02  0.1298413E+00
          2   -1    0    0  502    0  0.00000000000E+00  0.00000000000E+00  0.15296629124E+04  0.15296629124E+04  0.00000000000E+00 0. -1.
          1   -1    0    0  501    0 -0.00000000000E+00 -0.00000000000E+00 -0.18709677364E+04  0.18709677364E+04  0.00000000000E+00 0. -1.
         25    2    1    2    0    0  0.12533434968E+03 -0.73723243585E+02 -0.54232795817E+02  0.19926934428E+03  0.12499303811E+03 0.  0.
          2    1    1    2  501    0 -0.15383516326E+03  0.10910378010E+03 -0.17387621347E+04  0.17489604494E+04  0.00000000000E+00 0. -1.
          1    1    1    2  502    0  0.28500813577E+02 -0.35380536514E+02  0.14516901065E+04  0.14524008552E+04  0.00000000000E+00 0. -1.
         22    1    3    3    0    0  0.45712621030E+02 -0.90064636079E+02 -0.60519813980E+02  0.11774519216E+03  0.00000000000E+00 0.  1.
         22    1    3    3    0    0  0.79621728650E+02  0.16341392494E+02  0.62870181630E+01  0.81524152122E+02  0.00000000000E+00 0.  1.
</event>
<event>
 7    1  0.6330892E-006  0.7016830E+02  0.7818608E-02  0.1511170E+00
          2   -1    0    0  502    0  0.00000000000E+00  0.00000000000E+00  0.36995629531E+04  0.36995629531E+04  0.00000000000E+00 0. -1.
          1   -1    0    0  501    0 -0.00000000000E+00 -0.00000000000E+00 -0.81452752806E+03  0.81452752806E+03  0.00000000000E+00 0. -1.
         25    2    1    2    0    0 -0.80814196846E+02 -0.63905032745E+01 -0.17427971784E+03  0.22928291191E+03  0.12500184279E+03 0.  0.
          2    1    1    2  501    0  0.11798584743E+02  0.18981250714E+02 -0.61220721348E+03  0.61261502326E+03  0.00000000000E+00 0. -1.
          1    1    1    2  502    0  0.69015612103E+02 -0.12590747440E+02  0.36715223563E+04  0.36721925460E+04  0.00000000000E+00 0. -1.
         22    1    3    3    0    0  0.16754697970E+02 -0.40212512436E+02 -0.70544984266E+02  0.82911765544E+02  0.00000000000E+00 0.  1.
         22    1    3    3    0    0 -0.97568894817E+02  0.33822009162E+02 -0.10373473357E+03  0.14637114637E+03  0.00000000000E+00 0.  1.
</event>
<event>
 7    1  0.6330892E-006  0.2553249E+03  0.7818608E-02  0.1179029E+00
          2   -1    0    0  502    0  0.00000000000E+00  0.00000000000E+00  0.99684315845E+03  0.99684315845E+03  0.00000000000E+00 0. -1.
          1   -1    0    0  501    0 -0.00000000000E+00 -0.00000000000E+00 -0.17796076884E+04  0.17796076884E+04  0.00000000000E+00 0. -1.
         25    2    1    2    0    0 -0.24067679201E+03  0.13594959616E+03 -0.18173505715E+03  0.35365172466E+03  0.12503719624E+03 0.  0.
          2    1    1    2  501    0  0.15261462930E+03 -0.20465264769E+03 -0.14976478473E+04  0.15192508041E+04  0.00000000000E+00 0. -1.
          1    1    1    2  502    0  0.88062162712E+02  0.68703051525E+02  0.89661837445E+03  0.90354831813E+03  0.00000000000E+00 0. -1.
         22    1    3    3    0    0 -0.71241976386E+02 -0.15252419675E+02 -0.68050989837E+02  0.99694496955E+02  0.00000000000E+00 0. -1.
         22    1    3    3    0    0 -0.16943481562E+03  0.15120201584E+03 -0.11368406732E+03  0.25395722770E+03  0.00000000000E+00 0. -1.
</event>
<event>
 7    1  0.6330892E-006  0.2585109E+03  0.7818608E-02  0.1174557E+00
          2   -1    0    0  502    0  0.00000000000E+00  0.00000000000E+00  0.18437703849E+04  0.18437703849E+04  0.00000000000E+00 0. -1.
          1   -1    0    0  501    0 -0.00000000000E+00 -0.00000000000E+00 -0.93973665690E+03  0.93973665690E+03  0.00000000000E+00 0. -1.
         25    2    1    2    0    0  0.49824436123E+02  0.13860256949E+03  0.50597529573E+03  0.54159794885E+03  0.12499676637E+03 0.  0.
          2    1    1    2  501    0 -0.71313295627E+02 -0.25263021908E+03 -0.90060019603E+03  0.93807693012E+03  0.00000000000E+00 0. -1.
          1    1    1    2  502    0  0.21488859503E+02  0.11402764959E+03  0.12986586283E+04  0.13038321628E+04  0.00000000000E+00 0. -1.
         22    1    3    3    0    0  0.23598814899E+02  0.13168229093E+03  0.24438911098E+03  0.27860934546E+03  0.00000000000E+00 0.  1.
         22    1    3    3    0    0  0.26225621224E+02  0.69202785627E+01  0.26158618475E+03  0.26298860339E+03  0.00000000000E+00 0.  1.
</event>
<event>
 7    1  0.6330892E-006  0.9056716E+02  0.7818608E-02  0.1382040E+00
          2   -1    0    0  502    0  0.00000000000E+00  0.00000000000E+00  0.18010494579E+04  0.18010494579E+04  0.00000000000E+00 0. -1.
          1   -1    0    0  501    0 -0.00000000000E+00 -0.00000000000E+00 -0.23509129499E+03  0.23509129499E+03  0.00000000000E+00 0. -1.
         25    2    1    2    0    0 -0.12751574002E+03  0.41390920346E+02  0.60463589100E+03  0.63181013838E+03  0.12500407210E+03 0.  0.
          2    1    1    2  501    0  0.87602005774E+02 -0.20333128305E+02 -0.21192448161E+03  0.23021627534E+03  0.00000000000E+00 0. -1.
          1    1    1    2  502    0  0.39913734245E+02 -0.21057792041E+02  0.11732467535E+04  0.11741143391E+04  0.00000000000E+00 0. -1.
         22    1    3    3    0    0 -0.58643336134E+02 -0.39870330909E+01  0.47183096439E+03  0.47547807127E+03  0.00000000000E+00 0.  1.
         22    1    3    3    0    0 -0.68872403885E+02  0.45377953437E+02  0.13280492661E+03  0.15633206711E+03  0.00000000000E+00 0.  1.
</event>
<event>
 7    1  0.6330892E-006  0.6538691E+02  0.7818608E-02  0.1396756E+00
          2   -1    0    0  502    0  0.00000000000E+00  0.00000000000E+00  0.37950897728E+02  0.37950897728E+02  0.00000000000E+00 0. -1.
          1   -1    0    0  501    0 -0.00000000000E+00 -0.00000000000E+00 -0.56794062342E+03  0.56794062342E+03  0.00000000000E+00 0. -1.
         25    2    1    2    0    0  0.12838697995E+02  0.40297719874E+02 -0.38700224184E+03  0.40888135279E+03  0.12499794829E+03 0.  0.
          2    1    1    2  501    0 -0.51968853248E+02  0.19564931099E+02 -0.97645614975E+02  0.11233082551E+03  0.00000000000E+00 0. -1.
          1    1    1    2  502    0  0.39130155253E+02 -0.59862650973E+02 -0.45341868881E+02  0.84679342849E+02  0.00000000000E+00 0. -1.
         22    1    3    3    0    0  0.19177139985E+02  0.75220951581E+02 -0.14670441130E+03  0.16597631924E+03  0.00000000000E+00 0. -1.
         22    1    3    3    0    0 -0.63384419902E+01 -0.34923231707E+02 -0.24029783054E+03  0.24290503354E+03  0.00000000000E+00 0. -1.
</event>
<event>
 7    1  0.6330892E-006  0.3168253E+02  0.7818608E-02  0.1638203E+00
          2   -1    0    0  502    0  0.00000000000E+00  0.00000000000E+00  0.49962727261E+03  0.49962727261E+03  0.00000000000E+00 0. -1.
          1   -1    0    0  501    0 -0.00000000000E+00 -0.00000000000E+00 -0.37070345458E+03  0.37070345458E+03  0.00000000000E+00 0. -1.
         25    2    1    2    0    0 -0.32653162320E+02  0.11285692803E+02  0.47132444021E+02  0.13798662774E+03  0.12500098513E+03 0.  0.
          2    1    1    2  501    0  0.29767434206E+02  0.10966834199E+02 -0.32419233661E+03  0.32574075998E+03  0.00000000000E+00 0. -1.
          1    1    1    2  502    0  0.28857281133E+01 -0.22252527002E+02  0.40598371061E+03  0.40660333947E+03  0.00000000000E+00 0. -1.
         22    1    3    3    0    0  0.31372403047E+02 -0.34783320250E+02  0.34335909479E+02  0.58078065742E+02  0.00000000000E+00 0. -1.
         22    1    3    3    0    0 -0.64025565367E+02  0.46069013053E+02  0.12796534542E+02  0.79908561998E+02  0.00000000000E+00 0. -1.
</event>
<event>
 7    1  0.6330892E-006  0.8491420E+02  0.7818608E-02  0.1345915E+00
          2   -1    0    0  502    0  0.00000000000E+00  0.00000000000E+00  0.92115094938E+03  0.92115094938E+03  0.00000000000E+00 0. -1.
          1   -1    0    0  501    0 -0.00000000000E+00 -0.00000000000E+00 -0.81756789183E+03  0.81756789183E+03  0.00000000000E+00 0. -1.
         25    2    1    2    0    0 -0.20576543520E+02 -0.20848702496E+02  0.25027185675E+02  0.13080325863E+03  0.12500027963E+03 0.  0.
          2    1    1    2  501    0  0.85446894272E+02  0.15516963125E+02 -0.76095032470E+03  0.76588990368E+03  0.00000000000E+00 0. -1.
          1    1    1    2  502    0 -0.64870350753E+02  0.53317393714E+01  0.83950619658E+03  0.84202567891E+03  0.00000000000E+00 0. -1.
         22    1    3    3    0    0 -0.52289441908E+01  0.57083719996E+01 -0.49557104178E+02  0.50158089504E+02  0.00000000000E+00 0. -1.
         22    1    3    3    0    0 -0.15347599329E+02 -0.26557074496E+02  0.74584289853E+02  0.80645169129E+02  0.00000000000E+00 0. -1.
</event>
<event>
 7    1  0.6330892E-006  0.7812213E+02  0.7818608E-02  0.1408288E+00
          2   -1    0    0  502    0  0.00000000000E+00  0.00000000000E+00  0.46995270017E+03  0.46995270017E+03  0.00000000000E+00 0. -1.
          1   -1    0    0  501    0 -0.00000000000E+00 -0.00000000000E+00 -0.16297468879E+04  0.16297468879E+04  0.00000000000E+00 0. -1.
         25    2    1    2    0    0 -0.42765935376E+02  0.10576861544E+03 -0.14705901062E+03  0.22420250458E+03  0.12499794085E+03 0.  0.
          2    1    1    2  501    0  0.44168687323E+02 -0.63355979433E+02 -0.14420366379E+04  0.14441033613E+04  0.00000000000E+00 0. -1.
          1    1    1    2  502    0 -0.14027519473E+01 -0.42412636003E+02  0.42930146073E+03  0.43139372224E+03  0.00000000000E+00 0. -1.
         22    1    3    3    0    0 -0.53493276751E+02  0.66890446334E+02 -0.16068691255E+02  0.87143934424E+02  0.00000000000E+00 0. -1.
         22    1    3    3    0    0  0.10727341375E+02  0.38878169102E+02 -0.13099031937E+03  0.13705857016E+03  0.00000000000E+00 0. -1.
</event>
<event>
 7    1  0.6330892E-006  0.3211851E+02  0.7818608E-02  0.1619075E+00
          2   -1    0    0  502    0  0.00000000000E+00  0.00000000000E+00  0.85282047305E+03  0.85282047305E+03  0.00000000000E+00 0. -1.
          1   -1    0    0  501    0 -0.00000000000E+00 -0.00000000000E+00 -0.12057435012E+04  0.12057435012E+04  0.00000000000E+00 0. -1.
         25    2    1    2    0    0 -0.14841686606E+02 -0.46750336856E+01 -0.36727153034E+03  0.38828805632E+03  0.12504841495E+03 0.  0.
          2    1    1    2  501    0  0.28718837349E+02 -0.15796262793E+02 -0.82745764974E+03  0.82810654849E+03  0.00000000000E+00 0. -1.
          1    1    1    2  502    0 -0.13877150742E+02  0.20471296479E+02  0.84180615196E+03  0.84216936940E+03  0.00000000000E+00 0. -1.
         22    1    3    3    0    0 -0.33030450010E+02  0.31259917370E+00 -0.36793636515E+03  0.36941613005E+03  0.00000000000E+00 0.  1.
         22    1    3    3    0    0  0.18188763403E+02 -0.49876328593E+01  0.66483480755E+00  0.18871926266E+02  0.00000000000E+00 0.  1.
</event>
<event>
 7    1  0.6330892E-006  0.2960594E+03  0.7818608E-02  0.1171286E+00
          2   -1    0    0  502    0  0.00000000000E+00  0.00000000000E+00  0.45451751671E+03  0.45451751671E+03  0.00000000000E+00 0. -1.
          1   -1    0    0  501    0 -0.00000000000E+00 -0.00000000000E+00 -0.50434986671E+03  0.50434986671E+03  0.00000000000E+00 0. -1.
         25    2    1    2    0    0  0.19142202347E+03 -0.17012844139E+03  0.20756774319E+03  0.35255730501E+03  0.12500483055E+03 0.  0.
          2    1    1    2  501    0 -0.15076310622E+03  0.26711069324E+03 -0.35057386445E+03  0.46581076745E+03  0.00000000000E+00 0. -1.
          1    1    1    2  502    0 -0.40658917258E+02 -0.96982251854E+02  0.93173771268E+02  0.14049931096E+03  0.00000000000E+00 0. -1.
         22    1    3    3    0    0  0.46926673028E+02  0.12849646117E+02  0.57328453155E+02  0.75191605834E+02  0.00000000000E+00 0. -1.
         22    1    3    3    0    0  0.14449535045E+03 -0.18297808750E+03  0.15023929003E+03  0.27736569917E+03  0.00000000000E+00 0. -1.
</event>
<event>
 7    1  0.6330892E-006  0.1340181E+03  0.7818608E-02  0.1264541E+00
          2   -1    0    0  502    0  0.00000000000E+00  0.00000000000E+00  0.54849560984E+03  0.54849560984E+03  0.00000000000E+00 0. -1.
          1   -1    0    0  501    0 -0.00000000000E+00 -0.00000000000E+00 -0.12804906284E+04  0.12804906284E+04  0.00000000000E+00 0. -1.
         25    2    1    2    0    0  0.13307481195E+03  0.12649826446E+02  0.24384896661E+03  0.30488725048E+03  0.12499997320E+03 0.  0.
          2    1    1    2  501    0 -0.24746209848E+02  0.83244154895E+02 -0.12292437484E+04  0.12323076553E+04  0.00000000000E+00 0. -1.
          1    1    1    2  502    0 -0.10832860211E+03 -0.95893981342E+02  0.25339976325E+03  0.29179133248E+03  0.00000000000E+00 0. -1.
         22    1    3    3    0    0 -0.19345255445E+02  0.12472230851E+02  0.85891716054E+01  0.24567647822E+02  0.00000000000E+00 0.  1.
         22    1    3    3    0    0  0.15242006740E+03  0.17759559577E+00  0.23525979501E+03  0.28031960266E+03  0.00000000000E+00 0.  1.
</event>
<event>
 7    1  0.6330892E-006  0.8928253E+02  0.7818608E-02  0.1402920E+00
          2   -1    0    0  502    0  0.00000000000E+00  0.00000000000E+00  0.30006466916E+04  0.30006466916E+04  0.00000000000E+00 0. -1.
          1   -1    0    0  501    0 -0.00000000000E+00 -0.00000000000E+00 -0.28111898453E+03  0.28111898453E+03  0.00000000000E+00 0. -1.
         25    2    1    2    0    0  0.27230411041E+02  0.50918081460E+02 -0.11822959564E+03  0.18148416608E+03  0.12499647574E+03 0.  0.
          2    1    1    2  501    0 -0.11210167154E+02  0.37072275551E+02 -0.12771624711E+03  0.13345958653E+03  0.00000000000E+00 0. -1.
          1    1    1    2  502    0 -0.16020243887E+02 -0.87990357011E+02  0.29654735499E+04  0.29668219235E+04  0.00000000000E+00 0. -1.
         22    1    3    3    0    0 -0.44877748464E+02  0.28749987700E+02 -0.81995175139E+02  0.97794595178E+02  0.00000000000E+00 0. -1.
         22    1    3    3    0    0  0.72108159506E+02  0.22168093760E+02 -0.36234420504E+02  0.83689570901E+02  0.00000000000E+00 0. -1.
</event>
<event>
 7    1  0.6330892E-006  0.7207765E+02  0.7818608E-02  0.1392451E+00
          2   -1    0    0  502    0  0.00000000000E+00  0.00000000000E+00  0.34578273982E+04  0.34578273982E+04  0.00000000000E+00 0. -1.
          1   -1    0    0  501    0 -0.00000000000E+00 -0.00000000000E+00 -0.19365771463E+03  0.19365771463E+03  0.00000000000E+00 0. -1.
         25    2    1    2    0    0  0.85033714033E+01  0.20978485027E+02  0.29512789223E+03  0.32128897686E+03  0.12495491075E+03 0.  0.
          2    1    1    2  501    0  0.35480263888E+02  0.38201037770E+02 -0.17637291964E+03  0.18391730532E+03  0.00000000000E+00 0. -1.
          1    1    1    2  502    0 -0.43983635291E+02 -0.59179522797E+02  0.31454147110E+04  0.31462788306E+04  0.00000000000E+00 0. -1.
         22    1    3    3    0    0  0.20366858787E+02  0.71866779962E+02  0.17754755712E+03  0.19262081414E+03  0.00000000000E+00 0. -1.
         22    1    3    3    0    0 -0.11863487384E+02 -0.50888294935E+02  0.11758033511E+03  0.12866816272E+03  0.00000000000E+00 0. -1.
</event>
<event>
 7    1  0.6330892E-006  0.1401131E+03  0.7818608E-02  0.1227011E+00
          2   -1    0    0  502    0  0.00000000000E+00  0.00000000000E+00  0.17751514997E+04  0.17751514997E+04  0.00000000000E+00 0. -1.
          1   -1    0    0  501    0 -0.00000000000E+00 -0.00000000000E+00 -0.27219364906E+03  0.27219364906E+03  0.00000000000E+00 0. -1.
         25    2    1    2    0    0  0.50135774325E+02  0.55931968300E+02  0.27901101164E+03  0.31482542843E+03  0.12500369923E+03 0.  0.
          2    1    1    2  501    0  0.34044697791E+02 -0.14309274678E+03 -0.23028378616E+03  0.27324933266E+03  0.00000000000E+00 0. -1.
          1    1    1    2  502    0 -0.84180472116E+02  0.87160778481E+02  0.14542306252E+04  0.14592703877E+04  0.00000000000E+00 0. -1.
         22    1    3    3    0    0  0.68697545779E+02  0.73102737398E+02  0.26991390988E+03  0.28795291587E+03  0.00000000000E+00 0.  1.
         22    1    3    3    0    0 -0.18561771454E+02 -0.17170769098E+02  0.90971017690E+01  0.26872512565E+02  0.00000000000E+00 0.  1.
</event>
<event>
 7    1  0.6330892E-006  0.1348616E+03  0.7818608E-02  0.1291963E+00
          2   -1    0    0  502    0  0.00000000000E+00  0.00000000000E+00  0.30278982214E+04  0.30278982214E+04  0.00000000000E+00 0. -1.
          1   -1    0    0  501    0 -0.00000000000E+00 -0.00000000000E+00 -0.12402092528E+04  0.12402092528E+04  0.00000000000E+00 0. -1.
         25    2    1    2    0    0 -0.97833728406E+02 -0.91775502334E+00  0.67098461666E+03  0.68950543758E+03  0.12500044790E+03 0.  0.
          2    1    1    2  501    0  0.12025980419E+03 -0.61612920443E+02 -0.12267685099E+04  0.12341878096E+04  0.00000000000E+00 0. -1.
          1    1    1    2  502    0 -0.22426075780E+02  0.62530675467E+02  0.23434728618E+04  0.23444142271E+04  0.00000000000E+00 0. -1.
         22    1    3    3    0    0 -0.74137688919E+01  0.30349494760E+02  0.41585563851E+03  0.41702753851E+03  0.00000000000E+00 0. -1.
         22    1    3    3    0    0 -0.90419959515E+02 -0.31267249783E+02  0.25512897816E+03  0.27247789907E+03  0.00000000000E+00 0. -1.
</event>
<event>
 7    1  0.6330892E-006  0.4510949E+02  0.7818608E-02  0.1497640E+00
          2   -1    0    0  502    0  0.00000000000E+00  0.00000000000E+00  0.67019191173E+03  0.67019191173E+03  0.00000000000E+00 0. -1.
          1   -1    0    0  501    0 -0.00000000000E+00 -0.00000000000E+00 -0.21923566849E+02  0.21923566849E+02  0.00000000000E+00 0. -1.
         25    2    1    2    0    0  0.40318946207E+02  0.12241057416E+02  0.49798781269E+03  0.51516213306E+03  0.12499880337E+03 0.  0.
          2    1    1    2  501    0  0.85919897024E+01 -0.37149793219E+02  0.69830436226E+02  0.79562674960E+02  0.00000000000E+00 0. -1.
          1    1    1    2  502    0 -0.48910935910E+02  0.24908735803E+02  0.80450095964E+02  0.97390670557E+02  0.00000000000E+00 0. -1.
         22    1    3    3    0    0  0.10920617009E+02 -0.23571385299E+02  0.44077919333E+03  0.44154407181E+03  0.00000000000E+00 0.  1.
         22    1    3    3    0    0  0.29398329198E+02  0.35812442716E+02  0.57208619357E+02  0.73618061246E+02  0.00000000000E+00 0.  1.
</event>
<event>
 7    1  0.6330892E-006  0.2117298E+03  0.7818608E-02  0.1155111E+00
          2   -1    0    0  502    0  0.00000000000E+00  0.00000000000E+00  0.18965603195E+04  0.18965603195E+04  0.00000000000E+00 0. -1.
          1   -1    0    0  501    0 -0.00000000000E+00 -0.00000000000E+00 -0.54306008801E+03  0.54306008801E+03  0.00000000000E+00 0. -1.
         25    2    1    2    0    0  0.69074055102E+00 -0.46725866434E+02 -0.10850517002E+03  0.17195447573E+03  0.12494473212E+03 0.  0.
          2    1    1    2  501    0 -0.81779250248E+02 -0.15733473907E+03 -0.37646200732E+03  0.41613184070E+03  0.00000000000E+00 0. -1.
          1    1    1    2  502    0  0.81088509697E+02  0.20406060551E+03  0.18384674088E+04  0.18515340911E+04  0.00000000000E+00 0. -1.
         22    1    3    3    0    0 -0.38317833649E+02  0.19904150239E+02 -0.77571322450E+02  0.88779173453E+02  0.00000000000E+00 0.  1.
         22    1    3    3    0    0  0.39008574200E+02 -0.66630016673E+02 -0.30933847568E+02  0.83175302274E+02  0.00000000000E+00 0.  1.
</event>
<event>
 7    1  0.6330892E-006  0.1995631E+03  0.7818608E-02  0.1285205E+00
          2   -1    0    0  502    0  0.00000000000E+00  0.00000000000E+00  0.11882868688E+04  0.11882868688E+04  0.00000000000E+00 0. -1.
          1   -1    0    0  501    0 -0.00000000000E+00 -0.00000000000E+00 -0.51480197190E+03  0.51480197190E+03  0.00000000000E+00 0. -1.
         25    2    1    2    0    0 -0.23816925352E+03 -0.93752615319E+01  0.69832090337E+02  0.27805451240E+03  0.12500120869E+03 0.  0.
          2    1    1    2  501    0  0.19292642949E+03  0.24899979185E+02 -0.38704659772E+03  0.43318089174E+03  0.00000000000E+00 0. -1.
          1    1    1    2  502    0  0.45242824035E+02 -0.15524717653E+02  0.99069940430E+03  0.99185343659E+03  0.00000000000E+00 0. -1.
         22    1    3    3    0    0 -0.13107040218E+03 -0.91620372479E+01  0.10188184946E+03  0.16626275742E+03  0.00000000000E+00 0. -1.
         22    1    3    3    0    0 -0.10709885134E+03 -0.21322428398E+00 -0.32049759119E+02  0.11179175498E+03  0.00000000000E+00 0. -1.
</event>
<event>
 7    1  0.6330892E-006  0.6883651E+02  0.7818608E-02  0.1441349E+00
          2   -1    0    0  502    0  0.00000000000E+00  0.00000000000E+00  0.60070501104E+02  0.60070501104E+02  0.00000000000E+00 0. -1.
          1   -1    0    0  501    0 -0.00000000000E+00 -0.00000000000E+00 -0.96768012593E+03  0.96768012593E+03  0.00000000000E+00 0. -1.
         25    2    1    2    0    0  0.66118107951E+02 -0.72049211391E+01 -0.23230657405E+03  0.27205911504E+03  0.12500521046E+03 0.  0.
          2    1    1    2  501    0 -0.55072622267E+02  0.42949657569E+02 -0.70467459044E+03  0.70812706856E+03  0.00000000000E+00 0. -1.
          1    1    1    2  502    0 -0.11045485684E+02 -0.35744736429E+02  0.29371539669E+02  0.47564443431E+02  0.00000000000E+00 0. -1.
         22    1    3    3    0    0  0.10367915260E+03 -0.29103006613E+01 -0.16636705872E+03  0.19605059235E+03  0.00000000000E+00 0. -1.
         22    1    3    3    0    0 -0.37561044647E+02 -0.42946204777E+01 -0.65939515330E+02  0.76008522693E+02  0.00000000000E+00 0. -1.
</event>
<event>
 7    1  0.6330892E-006  0.1214977E+03  0.7818608E-02  0.1337200E+00
          2   -1    0    0  502    0  0.00000000000E+00  0.00000000000E+00  0.10925452887E+04  0.10925452887E+04  0.00000000000E+00 0. -1.
          1   -1    0    0  501    0 -0.00000000000E+00 -0.00000000000E+00 -0.34244611070E+03  0.34244611070E+03  0.00000000000E+00 0. -1.
         25    2    1    2    0    0 -0.11146662039E+03 -0.52680340593E+02  0.42941412096E+02  0.18074835143E+03  0.12500390364E+03 0.  0.
          2    1    1    2  501    0  0.81349712936E+02  0.91394439887E+02 -0.25920721927E+03  0.28663409071E+03  0.00000000000E+00 0. -1.
          1    1    1    2  502    0  0.30116907456E+02 -0.38714099294E+02  0.96636498521E+03  0.96760895730E+03  0.00000000000E+00 0. -1.
         22    1    3    3    0    0 -0.13219587967E+03 -0.37211258347E+02  0.59891095650E+02  0.14982446959E+03  0.00000000000E+00 0. -1.
         22    1    3    3    0    0  0.20729259275E+02 -0.15469082245E+02 -0.16949683555E+02  0.30923881843E+02  0.00000000000E+00 0. -1.
</event>
<event>
 7    1  0.6330892E-006  0.5541149E+02  0.7818608E-02  0.1428056E+00
          2   -1    0    0  502    0  0.00000000000E+00  0.00000000000E+00  0.14929815853E+03  0.14929815853E+03  0.00000000000E+00 0. -1.
          1   -1    0    0  501    0 -0.00000000000E+00 -0.00000000000E+00 -0.19936257553E+03  0.19936257553E+03  0.00000000000E+00 0. -1.
         25    2    1    2    0    0  0.20104004003E+02  0.30481797858E+02  0.40138587929E+02  0.13626781969E+03  0.12499800584E+03 0.  0.
          2    1    1    2  501    0 -0.49344484070E+02  0.25210211914E+02 -0.12767134337E+03  0.13917760168E+03  0.00000000000E+00 0. -1.
          1    1    1    2  502    0  0.29240480067E+02 -0.55692009772E+02  0.37468338440E+02  0.73215312691E+02  0.00000000000E+00 0. -1.
         22    1    3    3    0    0 -0.38701513813E+02  0.37166976495E+02 -0.14644529835E+02  0.55620621781E+02  0.00000000000E+00 0. -1.
         22    1    3    3    0    0  0.58805517816E+02 -0.66851786376E+01  0.54783117763E+02  0.80647197911E+02  0.00000000000E+00 0. -1.
</event>
<event>
 7    1  0.6330892E-006  0.1183934E+03  0.7818608E-02  0.1439986E+00
          2   -1    0    0  502    0  0.00000000000E+00  0.00000000000E+00  0.13069062153E+04  0.13069062153E+04  0.00000000000E+00 0. -1.
          1   -1    0    0  501    0 -0.00000000000E+00 -0.00000000000E+00 -0.90571914709E+03  0.90571914709E+03  0.00000000000E+00 0. -1.
         25    2    1    2    0    0 -0.19360923373E+02  0.11927556335E+03  0.26091091601E+03  0.31352977860E+03  0.12499964244E+03 0.  0.
          2    1    1    2  501    0  0.39899333538E+02 -0.11146088749E+03 -0.87530597469E+03  0.88327574154E+03  0.00000000000E+00 0. -1.
          1    1    1    2  502    0 -0.20538410165E+02 -0.78146758626E+01  0.10155821269E+04  0.10158198423E+04  0.00000000000E+00 0. -1.
         22    1    3    3    0    0  0.30484977615E+02  0.73146915709E+02  0.22094831647E+03  0.23472955436E+03  0.00000000000E+00 0.  1.
         22    1    3    3    0    0 -0.49845900988E+02  0.46128647642E+02  0.39962599534E+02  0.78800224239E+02  0.00000000000E+00 0.  1.
</event>
<event>
 7    1  0.6330892E-006  0.4427525E+02  0.7818608E-02  0.1565870E+00
          2   -1    0    0  502    0  0.00000000000E+00  0.00000000000E+00  0.15775664050E+04  0.15775664050E+04  0.00000000000E+00 0. -1.
          1   -1    0    0  501    0 -0.00000000000E+00 -0.00000000000E+00 -0.58182499521E+03  0.58182499521E+03  0.00000000000E+00 0. -1.
         25    2    1    2    0    0 -0.58510993852E+02  0.34926298122E+02 -0.35517043768E+02  0.14673204966E+03  0.12500180518E+03 0.  0.
          2    1    1    2  501    0  0.18186264107E+02 -0.16845296298E+02 -0.49006629785E+03  0.49069285759E+03  0.00000000000E+00 0. -1.
          1    1    1    2  502    0  0.40324729744E+02 -0.18081001823E+02  0.15213247514E+04  0.15219664929E+04  0.00000000000E+00 0. -1.
         22    1    3    3    0    0 -0.26500328362E+02  0.45203835489E+02  0.38775874627E+02  0.65186061388E+02  0.00000000000E+00 0. -1.
         22    1    3    3    0    0 -0.32010665490E+02 -0.10277537368E+02 -0.74292918396E+02  0.81545988272E+02  0.00000000000E+00 0. -1.
</event>
<event>
 7    1  0.6330892E-006  0.1282689E+03  0.7818608E-02  0.1322044E+00
          2   -1    0    0  502    0  0.00000000000E+00  0.00000000000E+00  0.17888105700E+04  0.17888105700E+04  0.00000000000E+00 0. -1.
          1   -1    0    0  501    0 -0.00000000000E+00 -0.00000000000E+00 -0.77679024853E+02  0.77679024853E+02  0.00000000000E+00 0. -1.
         25    2    1    2    0    0  0.19407447412E+02  0.79353802829E+02  0.14795331753E+03  0.21020496544E+03  0.12498907268E+03 0.  0.
          2    1    1    2  501    0  0.30853276322E+02  0.43204748493E+02 -0.27713047401E+02  0.59888128610E+02  0.00000000000E+00 0. -1.
          1    1    1    2  502    0 -0.50260723734E+02 -0.12255855132E+03  0.15908912750E+04  0.15963965008E+04  0.00000000000E+00 0. -1.
         22    1    3    3    0    0 -0.71137163684E+01  0.83039985106E+02  0.28953797879E+02  0.88230190404E+02  0.00000000000E+00 0.  1.
         22    1    3    3    0    0  0.26521163780E+02 -0.36861822768E+01  0.11899951965E+03  0.12197477503E+03  0.00000000000E+00 0.  1.
</event>
<event>
 7    1  0.6330892E-006  0.1516533E+03  0.7818608E-02  0.1210973E+00
          2   -1    0    0  502    0  0.00000000000E+00  0.00000000000E+00  0.10637213184E+04  0.10637213184E+04  0.00000000000E+00 0. -1.
          1   -1    0    0  501    0 -0.00000000000E+00 -0.00000000000E+00 -0.49764839951E+03  0.49764839951E+03  0.00000000000E+00 0. -1.
         25    2    1    2    0    0  0.24225456207E+03  0.89552894893E+02 -0.10165827706E+03  0.30441168195E+03  0.12500029195E+03 0.  0.
          2    1    1    2  501    0 -0.13207408082E+03  0.10891858566E+02 -0.27354047076E+03  0.30395161548E+03  0.00000000000E+00 0. -1.
          1    1    1    2  502    0 -0.11018048125E+03 -0.10044475346E+03  0.94127166667E+03  0.95300642045E+03  0.00000000000E+00 0. -1.
         22    1    3    3    0    0  0.20296570519E+03  0.12113615569E+03 -0.79883737643E+02  0.24950041531E+03  0.00000000000E+00 0. -1.
         22    1    3    3    0    0  0.39288856879E+02 -0.31583260799E+02 -0.21774539417E+02  0.54911266643E+02  0.00000000000E+00 0. -1.
</event>
<event>
 7    1  0.6330892E-006  0.7219413E+02  0.7818608E-02  0.1429909E+00
          2   -1    0    0  502    0  0.00000000000E+00  0.00000000000E+00  0.22263520623E+04  0.22263520623E+04  0.00000000000E+00 0. -1.
          1   -1    0    0  501    0 -0.00000000000E+00 -0.00000000000E+00 -0.11728942895E+04  0.11728942895E+04  0.00000000000E+00 0. -1.
         25    2    1    2    0    0 -0.10317026330E+03  0.20360352817E+02  0.36636597941E+03  0.40113276808E+03  0.12499927824E+03 0.  0.
          2    1    1    2  501    0  0.72046163816E+02  0.29359705227E+01 -0.11541806176E+04  0.11564307881E+04  0.00000000000E+00 0. -1.
          1    1    1    2  502    0  0.31124099483E+02 -0.23296323340E+02  0.18412724110E+04  0.18416827956E+04  0.00000000000E+00 0. -1.
         22    1    3    3    0    0  0.31299667002E+01 -0.23313760297E+02  0.80880852923E+01  0.24874590136E+02  0.00000000000E+00 0.  1.
         22    1    3    3    0    0 -0.10630023000E+03  0.43674113114E+02  0.35827789412E+03  0.37625817794E+03  0.00000000000E+00 0.  1.
</event>
<event>
 7    1  0.6330892E-006  0.5727795E+02  0.7818608E-02  0.1480065E+00
          2   -1    0    0  502    0  0.00000000000E+00  0.00000000000E+00  0.11439946124E+04  0.11439946124E+04  0.00000000000E+00 0. -1.
          1   -1    0    0  501    0 -0.00000000000E+00 -0.00000000000E+00 -0.40100315392E+03  0.40100315392E+03  0.00000000000E+00 0. -1.
         25    2    1    2    0    0  0.41458580414E+02  0.13830873973E+02  0.29943211668E+03  0.32740809428E+03  0.12500544282E+03 0.  0.
          2    1    1    2  501    0  0.14990432513E+02 -0.30458914878E+02 -0.38522541650E+03  0.38671834722E+03  0.00000000000E+00 0. -1.
          1    1    1    2  502    0 -0.56449012927E+02  0.16628040905E+02  0.82878475832E+03  0.83087132484E+03  0.00000000000E+00 0. -1.
         22    1    3    3    0    0 -0.49166541166E+01  0.15372925196E+02  0.27403802499E+03  0.27451291310E+03  0.00000000000E+00 0. -1.
         22    1    3    3    0    0  0.46375234531E+02 -0.15420512233E+01  0.25394091694E+02  0.52895181186E+02  0.00000000000E+00 0. -1.
</event>
<event>
 7    1  0.6330892E-006  0.1929578E+03  0.7818608E-02  0.1272908E+00
          2   -1    0    0  502    0  0.00000000000E+00  0.00000000000E+00  0.14421571277E+04  0.14421571277E+04  0.00000000000E+00 0. -1.
          1   -1    0    0  501    0 -0.00000000000E+00 -0.00000000000E+00 -0.18849700969E+04  0.18849700969E+04  0.00000000000E+00 0. -1.
         25    2    1    2    0    0 -0.51136672561E+01 -0.22768796647E+03  0.35708502702E+03  0.44159858752E+03  0.12502654241E+03 0.  0.
          2    1    1    2  501    0 -0.35173658519E+02  0.18933976628E+03 -0.18369344861E+04  0.18470016349E+04  0.00000000000E+00 0. -1.
          1    1    1    2  502    0  0.40287325775E+02  0.38348200191E+02  0.10370364898E+04  0.10385270022E+04  0.00000000000E+00 0. -1.
         22    1    3    3    0    0  0.21345120216E+02 -0.17854333903E+03  0.33756302304E+03  0.38246847268E+03  0.00000000000E+00 0.  1.
         22    1    3    3    0    0 -0.26458787473E+02 -0.49144627446E+02  0.19522003975E+02  0.59130114836E+02  0.00000000000E+00 0.  1.
</event>
<event>
 7    1  0.6330892E-006  0.7455274E+02  0.7818608E-02  0.1448626E+00
          2   -1    0    0  502    0  0.00000000000E+00  0.00000000000E+00  0.12623310572E+04  0.12623310572E+04  0.00000000000E+00 0. -1.
          1   -1    0    0  501    0 -0.00000000000E+00 -0.00000000000E+00 -0.62622254872E+03  0.62622254872E+03  0.00000000000E+00 0. -1.
         25    2    1    2    0    0 -0.10511402003E+03 -0.46944821083E+01  0.17030265114E+03  0.23600395983E+03  0.12499552272E+03 0.  0.
          2    1    1    2  501    0  0.32361727094E+02 -0.48841674590E+01 -0.59164814041E+03  0.59255266308E+03  0.00000000000E+00 0. -1.
          1    1    1    2  502    0  0.72752292933E+02  0.95786495673E+01  0.10574539977E+04  0.10599969830E+04  0.00000000000E+00 0. -1.
         22    1    3    3    0    0 -0.74722932700E+02  0.39136692822E+02  0.36401345187E+02  0.91870862235E+02  0.00000000000E+00 0.  1.
         22    1    3    3    0    0 -0.30391087327E+02 -0.43831174930E+02  0.13390130596E+03  0.14413309759E+03  0.00000000000E+00 0.  1.
</event>
<event>
 7    1  0.6330892E-006  0.1463532E+03  0.7818608E-02  0.1350279E+00
          2   -1    0    0  502    0  0.00000000000E+00  0.00000000000E+00  0.32881493970E+03  0.32881493970E+03  0.00000000000E+00 0. -1.
          1   -1    0    0  501    0 -0.00000000000E+00 -0.00000000000E+00 -0.88100760237E+03  0.88100760237E+03  0.00000000000E+00 0. -1.
         25    2    1    2    0    0 -0.59567563110E+02  0.15680670572E+03 -0.19559309786E+03  0.28638867601E+03  0.12500070513E+03 0.  0.
          2    1    1    2  501    0  0.27120536635E+02 -0.14035197311E+03 -0.63081839569E+03  0.64681222020E+03  0.00000000000E+00 0. -1.
          1    1    1    2  502    0  0.32447026476E+02 -0.16454732611E+02  0.27421883087E+03  0.27662164586E+03  0.00000000000E+00 0. -1.
         22    1    3    3    0    0 -0.24781767911E+02  0.16896013946E+03 -0.17341583908E+03  0.24338183579E+03  0.00000000000E+00 0.  1.
         22    1    3    3    0    0 -0.34785795199E+02 -0.12153433734E+02 -0.22177258776E+02  0.43006840223E+02  0.00000000000E+00 0.  1.
</event>
<event>
 7    1  0.6330892E-006  0.1117363E+03  0.7818608E-02  0.1301642E+00
          2   -1    0    0  502    0  0.00000000000E+00  0.00000000000E+00  0.41058077281E+03  0.41058077281E+03  0.00000000000E+00 0. -1.
          1   -1    0    0  501    0 -0.00000000000E+00 -0.00000000000E+00 -0.73810774940E+03  0.73810774940E+03  0.00000000000E+00 0. -1.
         25    2    1    2    0    0  0.18946458214E+02 -0.16674202879E+03 -0.41202606684E+02  0.21328358756E+03  0.12502144409E+03 0.  0.
          2    1    1    2  501    0 -0.41028280028E+02  0.60744568284E+02 -0.59953933803E+03  0.60400384120E+03  0.00000000000E+00 0. -1.
          1    1    1    2  502    0  0.22081821814E+02  0.10599746051E+03  0.31321496812E+03  0.33140109345E+03  0.00000000000E+00 0. -1.
         22    1    3    3    0    0 -0.64246558813E+01 -0.68911738968E+02 -0.79318105029E+02  0.10526854115E+03  0.00000000000E+00 0. -1.
         22    1    3    3    0    0  0.25371114096E+02 -0.97830289821E+02  0.38115498345E+02  0.10801504641E+03  0.00000000000E+00 0. -1.
</event>
<event>
 7    1  0.6330892E-006  0.2085260E+03  0.7818608E-02  0.1208058E+00
          2   -1    0    0  502    0  0.00000000000E+00  0.00000000000E+00  0.45028116630E+03  0.45028116630E+03  0.00000000000E+00 0. -1.
          1   -1    0    0  501    0 -0.00000000000E+00 -0.00000000000E+00 -0.22394183814E+04  0.22394183814E+04  0.00000000000E+00 0. -1.
         25    2    1    2    0    0  0.17745690709E+03 -0.41843003128E+02  0.20266607739E+03  0.29990376645E+03  0.12500775743E+03 0.  0.
          2    1    1    2  501    0  0.82690667255E+02  0.55209900508E+02 -0.21038723991E+04  0.21062205372E+04  0.00000000000E+00 0. -1.
          1    1    1    2  502    0 -0.26014757435E+03 -0.13366897380E+02  0.11206910661E+03  0.28357524406E+03  0.00000000000E+00 0. -1.
         22    1    3    3    0    0  0.19271624182E+03 -0.55537782666E+02  0.18385191927E+03  0.27207631904E+03  0.00000000000E+00 0. -1.
         22    1    3    3    0    0 -0.15259334732E+02  0.13694779538E+02  0.18814158124E+02  0.27827447403E+02  0.00000000000E+00 0. -1.
</event>
<event>
 7    1  0.6330892E-006  0.2255127E+03  0.7818608E-02  0.1341601E+00
          2   -1    0    0  502    0  0.00000000000E+00  0.00000000000E+00  0.13146066724E+04  0.13146066724E+04  0.00000000000E+00 0. -1.
          1   -1    0    0  501    0 -0.00000000000E+00 -0.00000000000E+00 -0.23324808804E+03  0.23324808804E+03  0.00000000000E+00 0. -1.
         25    2    1    2    0    0 -0.30569275149E+02  0.21157795168E+03  0.35128960987E+03  0.42979345103E+03  0.12497323842E+03 0.  0.
          2    1    1    2  501    0 -0.22266815893E+02  0.12296188032E+02 -0.17876710846E+03  0.18056767817E+03  0.00000000000E+00 0. -1.
          1    1    1    2  502    0  0.52836091043E+02 -0.22387413971E+03  0.90883608297E+03  0.93749363127E+03  0.00000000000E+00 0. -1.
         22    1    3    3    0    0  0.46507455063E+02  0.70394960638E+02  0.93522435586E+02  0.12595570578E+03  0.00000000000E+00 0. -1.
         22    1    3    3    0    0 -0.77076730212E+02  0.14118299104E+03  0.25776717429E+03  0.30383774525E+03  0.00000000000E+00 0. -1.
</event>
<event>
 7    1  0.6330892E-006  0.2201259E+03  0.7818608E-02  0.1174979E+00
          2   -1    0    0  502    0  0.00000000000E+00  0.00000000000E+00  0.29418303321E+03  0.29418303321E+03  0.00000000000E+00 0. -1.
          1   -1    0    0  501    0 -0.00000000000E+00 -0.00000000000E+00 -0.55253682870E+03  0.55253682870E+03  0.00000000000E+00 0. -1.
         25    2    1    2    0    0  0.27343843147E+03 -0.75503525542E+01 -0.87877744130E+02  0.31332425351E+03  0.12499602512E+03 0.  0.
          2    1    1    2  501    0 -0.92269322925E+02 -0.99391071700E+02 -0.26887676059E+03  0.30114269952E+03  0.00000000000E+00 0. -1.
          1    1    1    2  502    0 -0.18116910854E+03  0.10694142425E+03  0.98400709231E+02  0.23225290889E+03  0.00000000000E+00 0. -1.
         22    1    3    3    0    0  0.26716859353E+03  0.23656888746E+02 -0.71771797957E+02  0.27765067393E+03  0.00000000000E+00 0. -1.
         22    1    3    3    0    0  0.62698379343E+01 -0.31207241301E+02 -0.16105946173E+02  0.35673579571E+02  0.00000000000E+00 0. -1.
</event>
<event>
 7    1  0.6330892E-006  0.4221520E+02  0.7818608E-02  0.1540030E+00
          2   -1    0    0  502    0  0.00000000000E+00  0.00000000000E+00  0.19330976351E+02  0.19330976351E+02  0.00000000000E+00 0. -1.
          1   -1    0    0  501    0 -0.00000000000E+00 -0.00000000000E+00 -0.11572616199E+04  0.11572616199E+04  0.00000000000E+00 0. -1.
         25    2    1    2    0    0  0.23542112013E+02  0.19560515272E+02 -0.60101804905E+03  0.61464729831E+03  0.12502704201E+03 0.  0.
          2    1    1    2  501    0 -0.57261697282E+01 -0.44529045277E+02 -0.52813670618E+03  0.53004151281E+03  0.00000000000E+00 0. -1.
          1    1    1    2  502    0 -0.17815942285E+02  0.24968530005E+02 -0.87758883250E+01  0.31903785136E+02  0.00000000000E+00 0. -1.
         22    1    3    3    0    0 -0.31750646104E+02 -0.15944242676E+02 -0.60587151038E+02  0.70236210557E+02  0.00000000000E+00 0. -1.
         22    1    3    3    0    0  0.55292758117E+02  0.35504757948E+02 -0.54043089802E+03  0.54441108775E+03  0.00000000000E+00 0. -1.
</event>
<event>
 7    1  0.6330892E-006  0.8356190E+02  0.7818608E-02  0.1468110E+00
          2   -1    0    0  502    0  0.00000000000E+00  0.00000000000E+00  0.21658804344E+04  0.21658804344E+04  0.00000000000E+00 0. -1.
          1   -1    0    0  501    0 -0.00000000000E+00 -0.00000000000E+00 -0.13681030143E+03  0.13681030143E+03  0.00000000000E+00 0. -1.
         25    2    1    2    0    0  0.14293747872E+02 -0.59590556834E+02  0.11348726785E+04  0.11433796099E+04  0.12500236115E+03 0.  0.
          2    1    1    2  501    0 -0.32398248723E+02  0.77317090280E+02 -0.11912871941E+03  0.14566822151E+03  0.00000000000E+00 0. -1.
          1    1    1    2  502    0  0.18104500851E+02 -0.17726533446E+02  0.10133261739E+04  0.10136429044E+04  0.00000000000E+00 0. -1.
         22    1    3    3    0    0 -0.24033951284E+01 -0.91655807470E+02  0.56774424757E+03  0.57510007303E+03  0.00000000000E+00 0. -1.
         22    1    3    3    0    0  0.16697143000E+02  0.32065250636E+02  0.56712843090E+03  0.56827953687E+03  0.00000000000E+00 0. -1.
</event>
<event>
 7    1  0.6330892E-006  0.1035518E+03  0.7818608E-02  0.1313415E+00
          2   -1    0    0  502    0  0.00000000000E+00  0.00000000000E+00  0.18366175683E+03  0.18366175683E+03  0.00000000000E+00 0. -1.
          1   -1    0    0  501    0 -0.00000000000E+00 -0.00000000000E+00 -0.76597808970E+03  0.76597808970E+03  0.00000000000E+00 0. -1.
         25    2    1    2    0    0  0.24826521695E+02 -0.67539707233E+02 -0.36321211608E+03  0.39080409429E+03  0.12500732224E+03 0.  0.
          2    1    1    2  501    0  0.27925622369E+01  0.13300407797E+03 -0.36938183165E+03  0.39260771861E+03  0.00000000000E+00 0. -1.
          1    1    1    2  502    0 -0.27619083932E+02 -0.65464370738E+02  0.15027761486E+03  0.16622803362E+03  0.00000000000E+00 0. -1.
         22    1    3    3    0    0  0.58830664330E+02 -0.46296799866E+02 -0.10195424741E+03  0.12648758559E+03  0.00000000000E+00 0. -1.
         22    1    3    3    0    0 -0.34004142635E+02 -0.21242907367E+02 -0.26125786867E+03  0.26431650870E+03  0.00000000000E+00 0. -1.
</event>
<event>
 7    1  0.6330892E-006  0.1048523E+03  0.7818608E-02  0.1283364E+00
          2   -1    0    0  502    0  0.00000000000E+00  0.00000000000E+00  0.91029215086E+03  0.91029215086E+03  0.00000000000E+00 0. -1.
          1   -1    0    0  501    0 -0.00000000000E+00 -0.00000000000E+00 -0.28334668699E+04  0.28334668699E+04  0.00000000000E+00 0. -1.
         25    2    1    2    0    0 -0.14227280730E+03 -0.93627879953E+02 -0.49556947907E+03  0.53872179918E+03  0.12499734688E+03 0.  0.
          2    1    1    2  501    0  0.10183812618E+03  0.10282540171E+02 -0.23127722287E+04  0.23150360940E+04  0.00000000000E+00 0. -1.
          1    1    1    2  502    0  0.40434681118E+02  0.83345339781E+02  0.88516698875E+03  0.89000112757E+03  0.00000000000E+00 0. -1.
         22    1    3    3    0    0 -0.47378104143E+02 -0.10093279037E+03 -0.32218051422E+03  0.34092872666E+03  0.00000000000E+00 0. -1.
         22    1    3    3    0    0 -0.94894703157E+02  0.73049104184E+01 -0.17338896485E+03  0.19779307252E+03  0.00000000000E+00 0. -1.
</event>
<event>
 7    1  0.6330892E-006  0.5107554E+02  0.7818608E-02  0.1493064E+00
          2   -1    0    0  502    0  0.00000000000E+00  0.00000000000E+00  0.12953211366E+04  0.12953211366E+04  0.00000000000E+00 0. -1.
          1   -1    0    0  501    0 -0.00000000000E+00 -0.00000000000E+00 -0.18143282021E+04  0.18143282021E+04  0.00000000000E+00 0. -1.
         25    2    1    2    0    0  0.54662236428E+01 -0.58933965157E+02  0.11843274122E+03  0.18208388860E+03  0.12500054577E+03 0.  0.
          2    1    1    2  501    0 -0.31413104753E+02  0.14880392888E+02 -0.17817623337E+04  0.17821013504E+04  0.00000000000E+00 0. -1.
          1    1    1    2  502    0  0.25946881111E+02  0.44053572269E+02  0.11443225270E+04  0.11454640997E+04  0.00000000000E+00 0. -1.
         22    1    3    3    0    0  0.44519175800E+02 -0.13253034791E+02 -0.30480754448E+01  0.46549873351E+02  0.00000000000E+00 0.  1.
         22    1    3    3    0    0 -0.39052952157E+02 -0.45680930366E+02  0.12148081666E+03  0.13553401525E+03  0.00000000000E+00 0.  1.
</event>
<event>
 7    1  0.6330892E-006  0.5908571E+02  0.7818608E-02  0.1467494E+00
          2   -1    0    0  502    0  0.00000000000E+00  0.00000000000E+00  0.65013146725E+03  0.65013146725E+03  0.00000000000E+00 0. -1.
          1   -1    0    0  501    0 -0.00000000000E+00 -0.00000000000E+00 -0.74061175062E+03  0.74061175062E+03  0.00000000000E+00 0. -1.
         25    2    1    2    0    0  0.25193426936E+02  0.93925860503E+01  0.86544355444E+02  0.15439503264E+03  0.12499988484E+03 0.  0.
          2    1    1    2  501    0 -0.43760856778E+02 -0.40226475139E+02 -0.70482250309E+03  0.70732449607E+03  0.00000000000E+00 0. -1.
          1    1    1    2  502    0  0.18567429842E+02  0.30833889088E+02  0.52779786427E+03  0.52902368916E+03  0.00000000000E+00 0. -1.
         22    1    3    3    0    0  0.58867927017E+02 -0.35276675403E+02  0.64769783904E+02  0.94366315843E+02  0.00000000000E+00 0.  1.
         22    1    3    3    0    0 -0.33674500081E+02  0.44669261453E+02  0.21774571540E+02  0.60028716797E+02  0.00000000000E+00 0.  1.
</event>
<event>
 7    1  0.6330892E-006  0.1389096E+03  0.7818608E-02  0.1416076E+00
          2   -1    0    0  502    0  0.00000000000E+00  0.00000000000E+00  0.42610419706E+03  0.42610419706E+03  0.00000000000E+00 0. -1.
          1   -1    0    0  501    0 -0.00000000000E+00 -0.00000000000E+00 -0.22505529094E+04  0.22505529094E+04  0.00000000000E+00 0. -1.
         25    2    1    2    0    0 -0.62271774504E+02  0.14560453190E+03 -0.42028319060E+03  0.46619924503E+03  0.12500128861E+03 0.  0.
          2    1    1    2  501    0  0.58895884274E+02 -0.12339674433E+03 -0.18044102276E+04  0.18095833087E+04  0.00000000000E+00 0. -1.
          1    1    1    2  502    0  0.33758902294E+01 -0.22207787575E+02  0.40024470585E+03  0.40087455273E+03  0.00000000000E+00 0. -1.
         22    1    3    3    0    0  0.33351826247E+02  0.45740877928E+02 -0.72802328358E+02  0.92221208200E+02  0.00000000000E+00 0. -1.
         22    1    3    3    0    0 -0.95623600750E+02  0.99863653977E+02 -0.34748086224E+03  0.37397803682E+03  0.00000000000E+00 0. -1.
</event>
<event>
 7    1  0.6330892E-006  0.1328296E+03  0.7818608E-02  0.1295629E+00
          2   -1    0    0  502    0  0.00000000000E+00  0.00000000000E+00  0.42993385799E+03  0.42993385799E+03  0.00000000000E+00 0. -1.
          1   -1    0    0  501    0 -0.00000000000E+00 -0.00000000000E+00 -0.89219482137E+03  0.89219482137E+03  0.00000000000E+00 0. -1.
         25    2    1    2    0    0  0.18791428191E+03 -0.45246926679E+02  0.24324166409E+03  0.33489212781E+03  0.12500867332E+03 0.  0.
          2    1    1    2  501    0 -0.13110672055E+03  0.13280493784E+02 -0.83336390705E+03  0.84371840400E+03  0.00000000000E+00 0. -1.
          1    1    1    2  502    0 -0.56807561358E+02  0.31966432896E+02  0.12786127957E+03  0.14351814754E+03  0.00000000000E+00 0. -1.
         22    1    3    3    0    0  0.10041500275E+03  0.30837724673E+02  0.69295246674E+02  0.12584104756E+03  0.00000000000E+00 0. -1.
         22    1    3    3    0    0  0.87499279161E+02 -0.76084651352E+02  0.17394641741E+03  0.20905108025E+03  0.00000000000E+00 0. -1.
</event>
<event>
 7    1  0.6330892E-006  0.3527225E+03  0.7818608E-02  0.1182680E+00
          2   -1    0    0  502    0  0.00000000000E+00  0.00000000000E+00  0.20838623534E+04  0.20838623534E+04  0.00000000000E+00 0. -1.
          1   -1    0    0  501    0 -0.00000000000E+00 -0.00000000000E+00 -0.31894086417E+03  0.31894086417E+03  0.00000000000E+00 0. -1.
         25    2    1    2    0    0  0.22432832668E+03 -0.25723688147E+03  0.93220288995E+03  0.10005603599E+04  0.12499917788E+03 0.  0.
          2    1    1    2  501    0  0.68320586076E+02  0.36806921953E+02 -0.24865784309E+03  0.26048641983E+03  0.00000000000E+00 0. -1.
          1    1    1    2  502    0 -0.29264891276E+03  0.22042995952E+03  0.10813764424E+04  0.11417564378E+04  0.00000000000E+00 0. -1.
         22    1    3    3    0    0  0.59186727883E+02 -0.99465180913E+02  0.48243889441E+03  0.49612869077E+03  0.00000000000E+00 0.  1.
         22    1    3    3    0    0  0.16514159880E+03 -0.15777170056E+03  0.44976399554E+03  0.50443166915E+03  0.00000000000E+00 0.  1.
</event>
<event>
 7    1  0.6330892E-006  0.6194035E+02  0.7818608E-02  0.1393002E+00
          2   -1    0    0  502    0  0.00000000000E+00  0.00000000000E+00  0.24764594656E+03  0.24764594656E+03  0.00000000000E+00 0. -1.
          1   -1    0    0  501    0 -0.00000000000E+00 -0.00000000000E+00 -0.64664335917E+03  0.64664335917E+03  0.00000000000E+00 0. -1.
         25    2    1    2    0    0 -0.34345295728E+01 -0.73511629935E-01 -0.14071421884E+02  0.12583655920E+03  0.12500013329E+03 0.  0.
          2    1    1    2  501    0  0.63036449272E+02  0.98700224397E+01 -0.57010884845E+03  0.57366811866E+03  0.00000000000E+00 0. -1.
          1    1    1    2  502    0 -0.59601919699E+02 -0.97965108098E+01  0.18518285773E+03  0.19478462786E+03  0.00000000000E+00 0. -1.
         22    1    3    3    0    0 -0.25031878429E+02 -0.43081159106E+02  0.31997364476E+02  0.59214968893E+02  0.00000000000E+00 0.  1.
         22    1    3    3    0    0  0.21597348856E+02  0.43007647476E+02 -0.46068786361E+02  0.66621590312E+02  0.00000000000E+00 0.  1.
</event>
<event>
 7    1  0.6330892E-006  0.6645203E+02  0.7818608E-02  0.1464247E+00
          2   -1    0    0  502    0  0.00000000000E+00  0.00000000000E+00  0.18179189876E+03  0.18179189876E+03  0.00000000000E+00 0. -1.
          1   -1    0    0  501    0 -0.00000000000E+00 -0.00000000000E+00 -0.18616359289E+03  0.18616359289E+03  0.00000000000E+00 0. -1.
         25    2    1    2    0    0 -0.50290643789E+02 -0.92395552394E+01  0.12459325080E+03  0.18376123641E+03  0.12502078078E+03 0.  0.
          2    1    1    2  501    0  0.52983218899E+02  0.41889214720E+02 -0.13493403129E+03  0.15089440213E+03  0.00000000000E+00 0. -1.
          1    1    1    2  502    0 -0.26925751098E+01 -0.32649659481E+02  0.59690863574E+01  0.33299853106E+02  0.00000000000E+00 0. -1.
         22    1    3    3    0    0 -0.42384286664E+02 -0.54313521628E+01  0.15047896995E+03  0.15642841091E+03  0.00000000000E+00 0. -1.
         22    1    3    3    0    0 -0.79063571252E+01 -0.38082030766E+01 -0.25885719151E+02  0.27332825496E+02  0.00000000000E+00 0. -1.
</event>
<event>
 7    1  0.6330892E-006  0.1146132E+03  0.7818608E-02  0.1391055E+00
          2   -1    0    0  502    0  0.00000000000E+00  0.00000000000E+00  0.14588121899E+04  0.14588121899E+04  0.00000000000E+00 0. -1.
          1   -1    0    0  501    0 -0.00000000000E+00 -0.00000000000E+00 -0.25941667896E+04  0.25941667896E+04  0.00000000000E+00 0. -1.
         25    2    1    2    0    0  0.10286688170E+03 -0.89019903239E+02  0.24902273662E+03  0.31007009794E+03  0.12500001504E+03 0.  0.
          2    1    1    2  501    0 -0.69760289080E+02  0.90830177565E+02 -0.25621305874E+04  0.25646890193E+04  0.00000000000E+00 0. -1.
          1    1    1    2  502    0 -0.33106592617E+02 -0.18102743255E+01  0.11777532510E+04  0.11782198623E+04  0.00000000000E+00 0. -1.
         22    1    3    3    0    0  0.49570073954E+02 -0.84661045880E+02  0.23519571260E+03  0.25483663031E+03  0.00000000000E+00 0. -1.
         22    1    3    3    0    0  0.53296807743E+02 -0.43588573598E+01  0.13827024019E+02  0.55233467629E+02  0.00000000000E+00 0. -1.
</event>
<event>
 7    1  0.6330892E-006  0.6749915E+02  0.7818608E-02  0.1434056E+00
          2   -1    0    0  502    0  0.00000000000E+00  0.00000000000E+00  0.61330122333E+03  0.61330122333E+03  0.00000000000E+00 0. -1.
          1   -1    0    0  501    0 -0.00000000000E+00 -0.00000000000E+00 -0.44634551197E+03  0.44634551197E+03  0.00000000000E+00 0. -1.
         25    2    1    2    0    0 -0.77689838877E+02 -0.44930093348E+02 -0.77637331692E+02  0.17235644663E+03  0.12499906027E+03 0.  0.
          2    1    1    2  501    0  0.39009043478E+02 -0.10110572214E+02 -0.31807364402E+03  0.32061623815E+03  0.00000000000E+00 0. -1.
          1    1    1    2  502    0  0.38680795398E+02  0.55040665562E+02  0.56266668707E+03  0.56667405052E+03  0.00000000000E+00 0. -1.
         22    1    3    3    0    0 -0.10563958291E+03 -0.99999597746E+01 -0.38384458611E+02  0.11284098252E+03  0.00000000000E+00 0. -1.
         22    1    3    3    0    0  0.27949744034E+02 -0.34930133573E+02 -0.39252873080E+02  0.59515464109E+02  0.00000000000E+00 0. -1.
</event>
<event>
 7    1  0.6330892E-006  0.1979120E+03  0.7818608E-02  0.1161815E+00
          2   -1    0    0  502    0  0.00000000000E+00  0.00000000000E+00  0.19254177740E+04  0.19254177740E+04  0.00000000000E+00 0. -1.
          1   -1    0    0  501    0 -0.00000000000E+00 -0.00000000000E+00 -0.17149553077E+04  0.17149553077E+04  0.00000000000E+00 0. -1.
         25    2    1    2    0    0  0.24543307608E+03  0.24494970318E+03 -0.45584744278E+03  0.58622520228E+03  0.12500137909E+03 0.  0.
          2    1    1    2  501    0 -0.67123176632E+02 -0.16207411177E+03 -0.11822328000E+04  0.11951769459E+04  0.00000000000E+00 0. -1.
          1    1    1    2  502    0 -0.17830989944E+03 -0.82875591417E+02  0.18485427092E+04  0.18589709335E+04  0.00000000000E+00 0. -1.
         22    1    3    3    0    0  0.19155052559E+03  0.13221476975E+03 -0.22496130803E+03  0.32369729579E+03  0.00000000000E+00 0.  1.
         22    1    3    3    0    0  0.53882550488E+02  0.11273493343E+03 -0.23088613475E+03  0.26252790649E+03  0.00000000000E+00 0.  1.
</event>
<event>
 7    1  0.6330892E-006  0.7453335E+02  0.7818608E-02  0.1416174E+00
          2   -1    0    0  502    0  0.00000000000E+00  0.00000000000E+00  0.15014626324E+03  0.15014626324E+03  0.00000000000E+00 0. -1.
          1   -1    0    0  501    0 -0.00000000000E+00 -0.00000000000E+00 -0.73269163448E+03  0.73269163448E+03  0.00000000000E+00 0. -1.
         25    2    1    2    0    0  0.46402488052E+02  0.70441922311E+02  0.49868303293E+01  0.15087737342E+03  0.12499543198E+03 0.  0.
          2    1    1    2  501    0 -0.47580065519E+01 -0.74407640850E+02 -0.65137753788E+03  0.65563086604E+03  0.00000000000E+00 0. -1.
          1    1    1    2  502    0 -0.41644481501E+02  0.39657185396E+01  0.63845336316E+02  0.76329658274E+02  0.00000000000E+00 0. -1.
         22    1    3    3    0    0  0.68860857220E+02  0.91711484228E+02 -0.12466516727E+02  0.11536129349E+03  0.00000000000E+00 0.  1.
         22    1    3    3    0    0 -0.22458369167E+02 -0.21269561917E+02  0.17453347057E+02  0.35516079926E+02  0.00000000000E+00 0.  1.
</event>
<event>
 7    1  0.6330892E-006  0.2132548E+03  0.7818608E-02  0.1160391E+00
          2   -1    0    0  502    0  0.00000000000E+00  0.00000000000E+00  0.58021493334E+03  0.58021493334E+03  0.00000000000E+00 0. -1.
          1   -1    0    0  501    0 -0.00000000000E+00 -0.00000000000E+00 -0.11455162928E+04  0.11455162928E+04  0.00000000000E+00 0. -1.
         25    2    1    2    0    0  0.11959706170E+03  0.33776811301E+03  0.37415605869E+03  0.53292509691E+03  0.12500258928E+03 0.  0.
          2    1    1    2  501    0 -0.14965423314E+02 -0.20951651470E+03 -0.99599113796E+03  0.10178995435E+04  0.00000000000E+00 0. -1.
          1    1    1    2  502    0 -0.10463163839E+03 -0.12825159832E+03  0.56533719863E+02  0.17490658565E+03  0.00000000000E+00 0. -1.
         22    1    3    3    0    0 -0.17808984566E+02  0.43387817791E+02  0.89254117173E+02  0.10082638591E+03  0.00000000000E+00 0. -1.
         22    1    3    3    0    0  0.13740604627E+03  0.29438029522E+03  0.28490194151E+03  0.43209871100E+03  0.00000000000E+00 0. -1.
</event>
<event>
 7    1  0.6330892E-006  0.4694218E+02  0.7818608E-02  0.1526355E+00
          2   -1    0    0  502    0  0.00000000000E+00  0.00000000000E+00  0.17328865153E+04  0.17328865153E+04  0.00000000000E+00 0. -1.
          1   -1    0    0  501    0 -0.00000000000E+00 -0.00000000000E+00 -0.23693914399E+03  0.23693914399E+03  0.00000000000E+00 0. -1.
         25    2    1    2    0    0  0.48151774387E+02  0.59508541245E+02  0.20787836083E+03  0.25435321899E+03  0.12498914854E+03 0.  0.
          2    1    1    2  501    0 -0.20510793087E+02 -0.22134798015E+02 -0.21227463060E+03  0.21440886342E+03  0.00000000000E+00 0. -1.
          1    1    1    2  502    0 -0.27640981299E+02 -0.37373743230E+02  0.15003436411E+04  0.15010635769E+04  0.00000000000E+00 0. -1.
         22    1    3    3    0    0 -0.35565325422E+02  0.19204410391E+02  0.11938236600E+03  0.12603908546E+03  0.00000000000E+00 0. -1.
         22    1    3    3    0    0  0.83717099809E+02  0.40304130854E+02  0.88495994822E+02  0.12831413353E+03  0.00000000000E+00 0. -1.
</event>
<event>
 7    1  0.6330892E-006  0.2151149E+03  0.7818608E-02  0.1261036E+00
          2   -1    0    0  502    0  0.00000000000E+00  0.00000000000E+00  0.73629131372E+03  0.73629131372E+03  0.00000000000E+00 0. -1.
          1   -1    0    0  501    0 -0.00000000000E+00 -0.00000000000E+00 -0.37552916098E+03  0.37552916098E+03  0.00000000000E+00 0. -1.
         25    2    1    2    0    0  0.14696668987E+03 -0.81546625430E+02  0.25584551541E+03  0.33065247112E+03  0.12500027541E+03 0.  0.
          2    1    1    2  501    0 -0.18229344295E+03  0.12498822711E+03 -0.29987110625E+03  0.37252602141E+03  0.00000000000E+00 0. -1.
          1    1    1    2  502    0  0.35326753078E+02 -0.43441601683E+02  0.40478774359E+03  0.40864198218E+03  0.00000000000E+00 0. -1.
         22    1    3    3    0    0  0.14953603275E+03 -0.33038380846E+02  0.15083363120E+03  0.21494963131E+03  0.00000000000E+00 0.  1.
         22    1    3    3    0    0 -0.25693428761E+01 -0.48508244584E+02  0.10501188421E+03  0.11570283981E+03  0.00000000000E+00 0.  1.
</event>
<event>
 7    1  0.6330892E-006  0.5261791E+02  0.7818608E-02  0.1446532E+00
          2   -1    0    0  502    0  0.00000000000E+00  0.00000000000E+00  0.28248172215E+03  0.28248172215E+03  0.00000000000E+00 0. -1.
          1   -1    0    0  501    0 -0.00000000000E+00 -0.00000000000E+00 -0.64864754502E+03  0.64864754502E+03  0.00000000000E+00 0. -1.
         25    2    1    2    0    0 -0.80706119801E+01 -0.92381596661E-01 -0.13373925547E+03  0.18323698322E+03  0.12499784099E+03 0.  0.
          2    1    1    2  501    0 -0.35029039129E+02 -0.31478964664E+02 -0.48624076110E+03  0.48851615792E+03  0.00000000000E+00 0. -1.
          1    1    1    2  502    0  0.43099651109E+02  0.31571346261E+02  0.25381419370E+03  0.25937612603E+03  0.00000000000E+00 0. -1.
         22    1    3    3    0    0 -0.31916031479E+02 -0.43688119072E+02 -0.12007499562E+03  0.13170151626E+03  0.00000000000E+00 0.  1.
         22    1    3    3    0    0  0.23845419499E+02  0.43595737476E+02 -0.13664259856E+02  0.51535466958E+02  0.00000000000E+00 0.  1.
</event>
<event>
 7    1  0.6330892E-006  0.1170650E+03  0.7818608E-02  0.1350870E+00
          2   -1    0    0  502    0  0.00000000000E+00  0.00000000000E+00  0.33128153951E+03  0.33128153951E+03  0.00000000000E+00 0. -1.
          1   -1    0    0  501    0 -0.00000000000E+00 -0.00000000000E+00 -0.12748782212E+04  0.12748782212E+04  0.00000000000E+00 0. -1.
         25    2    1    2    0    0  0.10392459016E+03 -0.80034011195E+01 -0.15511308602E+03  0.22482606504E+03  0.12498926033E+03 0.  0.
          2    1    1    2  501    0 -0.10637826990E+03  0.53190948020E+02 -0.10798973276E+04  0.10864271036E+04  0.00000000000E+00 0. -1.
          1    1    1    2  502    0  0.24536797431E+01 -0.45187546901E+02  0.29141373190E+03  0.29490659212E+03  0.00000000000E+00 0. -1.
         22    1    3    3    0    0  0.68028538645E+02 -0.14485393205E+02 -0.17132781773E+03  0.18490789549E+03  0.00000000000E+00 0. -1.
         22    1    3    3    0    0  0.35896051511E+02  0.64819920858E+01  0.16214731713E+02  0.39918169547E+02  0.00000000000E+00 0. -1.
</event>
<event>
 7    1  0.6330892E-006  0.1459477E+03  0.7818608E-02  0.1213882E+00
          2   -1    0    0  502    0  0.00000000000E+00  0.00000000000E+00  0.74516706969E+03  0.74516706969E+03  0.00000000000E+00 0. -1.
          1   -1    0    0  501    0 -0.00000000000E+00 -0.00000000000E+00 -0.14448363784E+03  0.14448363784E+03  0.00000000000E+00 0. -1.
         25    2    1    2    0    0  0.15780696857E+02 -0.13474928403E+02  0.20093897356E+02  0.12829415070E+03  0.12500008122E+03 0.  0.
          2    1    1    2  501    0  0.13420767547E+03  0.57349992198E+02 -0.13958459285E+02  0.14661364311E+03  0.00000000000E+00 0. -1.
          1    1    1    2  502    0 -0.14998837233E+03 -0.43875063796E+02  0.59454799378E+03  0.61474291372E+03  0.00000000000E+00 0. -1.
         22    1    3    3    0    0 -0.52803270907E+02  0.10856698692E+02  0.71530822088E+01  0.54380326498E+02  0.00000000000E+00 0. -1.
         22    1    3    3    0    0  0.68583967765E+02 -0.24331627095E+02  0.12940815148E+02  0.73913824202E+02  0.00000000000E+00 0. -1.
</event>
<event>
 7    1  0.6330892E-006  0.7655222E+02  0.7818608E-02  0.1415895E+00
          2   -1    0    0  502    0  0.00000000000E+00  0.00000000000E+00  0.15854988835E+04  0.15854988835E+04  0.00000000000E+00 0. -1.
          1   -1    0    0  501    0 -0.00000000000E+00 -0.00000000000E+00 -0.20548419985E+04  0.20548419985E+04  0.00000000000E+00 0. -1.
         25    2    1    2    0    0  0.32988669409E+02 -0.10241776408E+03  0.14594931700E+02  0.16557232863E+03  0.12499413294E+03 0.  0.
          2    1    1    2  501    0 -0.31275977557E+02  0.26227737207E+02 -0.19781716842E+04  0.19785927558E+04  0.00000000000E+00 0. -1.
          1    1    1    2  502    0 -0.17126918517E+01  0.76190026869E+02  0.14942336376E+04  0.14961757975E+04  0.00000000000E+00 0. -1.
         22    1    3    3    0    0  0.58862529482E+02 -0.48439832014E+01  0.24911983586E+02  0.64100456133E+02  0.00000000000E+00 0.  1.
         22    1    3    3    0    0 -0.25873860073E+02 -0.97573780875E+02 -0.10317051886E+02  0.10147187250E+03  0.00000000000E+00 0.  1.
</event>
<event>
 7    1  0.6330892E-006  0.6893548E+02  0.7818608E-02  0.1461417E+00
          2   -1    0    0  502    0  0.00000000000E+00  0.00000000000E+00  0.48213325808E+03  0.48213325808E+03  0.00000000000E+00 0. -1.
          1   -1    0    0  501    0 -0.00000000000E+00 -0.00000000000E+00 -0.81744556817E+03  0.81744556817E+03  0.00000000000E+00 0. -1.
         25    2    1    2    0    0 -0.13000440364E+02  0.80009651675E+02 -0.50521206565E+03  0.52672073508E+03  0.12499978267E+03 0.  0.
          2    1    1    2  501    0  0.29453690527E+02 -0.13095119716E+02 -0.29808737547E+03  0.29982509144E+03  0.00000000000E+00 0. -1.
          1    1    1    2  502    0 -0.16453250163E+02 -0.66914531959E+02  0.46798713103E+03  0.47303299973E+03  0.00000000000E+00 0. -1.
         22    1    3    3    0    0 -0.49656107533E+02  0.90992445245E+02 -0.28627178175E+03  0.30446163492E+03  0.00000000000E+00 0.  1.
         22    1    3    3    0    0  0.36655667169E+02 -0.10982793570E+02 -0.21894028390E+03  0.22225910016E+03  0.00000000000E+00 0.  1.
</event>
<event>
 7    1  0.6330892E-006  0.1078981E+03  0.7818608E-02  0.1329602E+00
          2   -1    0    0  502    0  0.00000000000E+00  0.00000000000E+00  0.28483361039E+04  0.28483361039E+04  0.00000000000E+00 0. -1.
          1   -1    0    0  501    0 -0.00000000000E+00 -0.00000000000E+00 -0.46997539845E+02  0.46997539845E+02  0.00000000000E+00 0. -1.
         25    2    1    2    0    0 -0.15381305846E+03 -0.13757651820E+01  0.69576401322E+03  0.72344527227E+03  0.12500060077E+03 0.  0.
          2    1    1    2  501    0  0.52816572624E+02  0.26357844427E+02 -0.45474180747E+01  0.59203085373E+02  0.00000000000E+00 0. -1.
          1    1    1    2  502    0  0.10099648584E+03 -0.24982079245E+02  0.21101219689E+04  0.21126852861E+04  0.00000000000E+00 0. -1.
         22    1    3    3    0    0 -0.60472716994E+02 -0.36777395510E+02  0.48613014596E+03  0.49125558025E+03  0.00000000000E+00 0.  1.
         22    1    3    3    0    0 -0.93340341470E+02  0.35401630328E+02  0.20963386727E+03  0.23218969202E+03  0.00000000000E+00 0.  1.
</event>
<event>
 7    1  0.6330892E-006  0.6099436E+02  0.7818608E-02  0.1418268E+00
          2   -1    0    0  502    0  0.00000000000E+00  0.00000000000E+00  0.20402860713E+04  0.20402860713E+04  0.00000000000E+00 0. -1.
          1   -1    0    0  501    0 -0.00000000000E+00 -0.00000000000E+00 -0.77318061335E+03  0.77318061335E+03  0.00000000000E+00 0. -1.
         25    2    1    2    0    0 -0.46666057518E+02  0.12057470493E+02  0.32542935988E+03  0.35192602665E+03  0.12499822577E+03 0.  0.
          2    1    1    2  501    0 -0.26072735557E+01 -0.50231117093E+02 -0.75852827916E+03  0.76019412869E+03  0.00000000000E+00 0. -1.
          1    1    1    2  502    0  0.49273331074E+02  0.38173646600E+02  0.17002043772E+04  0.17013465293E+04  0.00000000000E+00 0. -1.
         22    1    3    3    0    0  0.15033361031E+02 -0.45287924564E+02  0.89762047272E+02  0.10165738136E+03  0.00000000000E+00 0.  1.
         22    1    3    3    0    0 -0.61699418549E+02  0.57345395057E+02  0.23566731260E+03  0.25026864529E+03  0.00000000000E+00 0.  1.
</event>
<event>
 7    1  0.6330892E-006  0.2451398E+03  0.7818608E-02  0.1226268E+00
          2   -1    0    0  502    0  0.00000000000E+00  0.00000000000E+00  0.11783019847E+04  0.11783019847E+04  0.00000000000E+00 0. -1.
          1   -1    0    0  501    0 -0.00000000000E+00 -0.00000000000E+00 -0.11852203579E+04  0.11852203579E+04  0.00000000000E+00 0. -1.
         25    2    1    2    0    0 -0.18573582381E+03  0.11533112827E+03  0.61671844940E+02  0.25928544696E+03  0.12500584448E+03 0.  0.
          2    1    1    2  501    0 -0.54210892312E+02 -0.43960475742E+02 -0.10698665433E+04  0.10721407392E+04  0.00000000000E+00 0. -1.
          1    1    1    2  502    0  0.23994671612E+03 -0.71370652531E+02  0.10012763252E+04  0.10320961564E+04  0.00000000000E+00 0. -1.
         22    1    3    3    0    0 -0.98395679353E+02  0.18003507035E+02  0.78878254124E+02  0.12738765621E+03  0.00000000000E+00 0.  1.
         22    1    3    3    0    0 -0.87340144455E+02  0.97327621238E+02 -0.17206409184E+02  0.13189779076E+03  0.00000000000E+00 0.  1.
</event>
<event>
 7    1  0.6330892E-006  0.8725823E+02  0.7818608E-02  0.1352648E+00
          2   -1    0    0  502    0  0.00000000000E+00  0.00000000000E+00  0.85214206348E+02  0.85214206348E+02  0.00000000000E+00 0. -1.
          1   -1    0    0  501    0 -0.00000000000E+00 -0.00000000000E+00 -0.43333946094E+03  0.43333946094E+03  0.00000000000E+00 0. -1.
         25    2    1    2    0    0 -0.15024136265E+02  0.16579162252E+02 -0.33062789674E+02  0.13121978925E+03  0.12499956695E+03 0.  0.
          2    1    1    2  501    0 -0.22951421037E+02  0.84185693692E+02 -0.24187597669E+03  0.25713418063E+03  0.00000000000E+00 0. -1.
          1    1    1    2  502    0  0.37975557302E+02 -0.10076485594E+03 -0.73186488229E+02  0.13019969741E+03  0.00000000000E+00 0. -1.
         22    1    3    3    0    0 -0.21277503402E+02 -0.36736921241E+02 -0.58123299922E+02  0.71976742960E+02  0.00000000000E+00 0.  1.
         22    1    3    3    0    0  0.62533671371E+01  0.53316083493E+02  0.25060510248E+02  0.59243046288E+02  0.00000000000E+00 0.  1.
</event>
<event>
 7    1  0.6330892E-006  0.5622660E+02  0.7818608E-02  0.1530388E+00
          2   -1    0    0  502    0  0.00000000000E+00  0.00000000000E+00  0.12055352716E+04  0.12055352716E+04  0.00000000000E+00 0. -1.
          1   -1    0    0  501    0 -0.00000000000E+00 -0.00000000000E+00 -0.64370422518E+02  0.64370422518E+02  0.00000000000E+00 0. -1.
         25    2    1    2    0    0 -0.36220298978E+02  0.35953161084E+01  0.30728062165E+03  0.33372124831E+03  0.12499461898E+03 0.  0.
          2    1    1    2  501    0  0.53177519395E+02 -0.21321519875E+02 -0.34879239700E+02  0.67074713125E+02  0.00000000000E+00 0. -1.
          1    1    1    2  502    0 -0.16957220417E+02  0.17726203767E+02  0.86876346712E+03  0.86910973267E+03  0.00000000000E+00 0. -1.
         22    1    3    3    0    0 -0.29140671030E+02  0.55082549301E+02  0.84702411633E+02  0.10515590560E+03  0.00000000000E+00 0.  1.
         22    1    3    3    0    0 -0.70796279482E+01 -0.51487233192E+02  0.22257821002E+03  0.22856534271E+03  0.00000000000E+00 0.  1.
</event>
<event>
 7    1  0.6330892E-006  0.7508590E+02  0.7818608E-02  0.1476676E+00
          2   -1    0    0  502    0  0.00000000000E+00  0.00000000000E+00  0.13105282592E+03  0.13105282592E+03  0.00000000000E+00 0. -1.
          1   -1    0    0  501    0 -0.00000000000E+00 -0.00000000000E+00 -0.24492509715E+03  0.24492509715E+03  0.00000000000E+00 0. -1.
         25    2    1    2    0    0  0.62233295921E+02 -0.64370357730E+02 -0.22885098721E+02  0.15545272536E+03  0.12500118400E+03 0.  0.
          2    1    1    2  501    0 -0.68473419846E+00  0.26516450617E+02 -0.13388899011E+03  0.13649121835E+03  0.00000000000E+00 0. -1.
          1    1    1    2  502    0 -0.61548561722E+02  0.37853907112E+02  0.42901817605E+02  0.84033979363E+02  0.00000000000E+00 0. -1.
         22    1    3    3    0    0 -0.35265606150E+02 -0.70204407989E+01  0.10596284857E+02  0.37486408456E+02  0.00000000000E+00 0.  1.
         22    1    3    3    0    0  0.97498902071E+02 -0.57349916931E+02 -0.33481383579E+02  0.11796631690E+03  0.00000000000E+00 0.  1.
</event>
<event>
 7    1  0.6330892E-006  0.7255349E+02  0.7818608E-02  0.1411108E+00
          2   -1    0    0  502    0  0.00000000000E+00  0.00000000000E+00  0.12320639912E+03  0.12320639912E+03  0.00000000000E+00 0. -1.
          1   -1    0    0  501    0 -0.00000000000E+00 -0.00000000000E+00 -0.14205256644E+04  0.14205256644E+04  0.00000000000E+00 0. -1.
         25    2    1    2    0    0  0.41887734159E+02 -0.68276138596E+02 -0.37539695862E+03  0.40368862514E+03  0.12500166461E+03 0.  0.
          2    1    1    2  501    0 -0.44480991702E+02 -0.44000560350E+01 -0.10183148941E+04  0.10192954149E+04  0.00000000000E+00 0. -1.
          1    1    1    2  502    0  0.25932575432E+01  0.72676194631E+02  0.96392587507E+02  0.12074802349E+03  0.00000000000E+00 0. -1.
         22    1    3    3    0    0  0.30358239504E+02 -0.97092602035E+02 -0.18818204598E+03  0.21391839216E+03  0.00000000000E+00 0. -1.
         22    1    3    3    0    0  0.11529494655E+02  0.28816463439E+02 -0.18721491263E+03  0.18977023298E+03  0.00000000000E+00 0. -1.
</event>
<event>
 7    1  0.6330892E-006  0.8087478E+02  0.7818608E-02  0.1348052E+00
          2   -1    0    0  502    0  0.00000000000E+00  0.00000000000E+00  0.11500043717E+04  0.11500043717E+04  0.00000000000E+00 0. -1.
          1   -1    0    0  501    0 -0.00000000000E+00 -0.00000000000E+00 -0.51354021792E+02  0.51354021792E+02  0.00000000000E+00 0. -1.
         25    2    1    2    0    0  0.12475294292E+02  0.21399640801E+02  0.26725115542E+03  0.29607622670E+03  0.12499749736E+03 0.  0.
          2    1    1    2  501    0  0.52806814616E+02  0.41399146409E+02 -0.18479288481E+01  0.67125731536E+02  0.00000000000E+00 0. -1.
          1    1    1    2  502    0 -0.65282108908E+02 -0.62798787210E+02  0.83324712336E+03  0.83815643528E+03  0.00000000000E+00 0. -1.
         22    1    3    3    0    0  0.37532629703E+01 -0.49367871432E+02  0.65576110748E+02  0.82167511910E+02  0.00000000000E+00 0.  1.
         22    1    3    3    0    0  0.87220313222E+01  0.70767512232E+02  0.20167504468E+03  0.21390871479E+03  0.00000000000E+00 0.  1.
</event>
<event>
 7    1  0.6330892E-006  0.5479384E+02  0.7818608E-02  0.1471258E+00
          2   -1    0    0  502    0  0.00000000000E+00  0.00000000000E+00  0.17807880077E+03  0.17807880077E+03  0.00000000000E+00 0. -1.
          1   -1    0    0  501    0 -0.00000000000E+00 -0.00000000000E+00 -0.95862994556E+03  0.95862994556E+03  0.00000000000E+00 0. -1.
         25    2    1    2    0    0  0.15810816296E+02 -0.16722352582E+02 -0.57671614895E+03  0.59055603678E+03  0.12500118852E+03 0.  0.
          2    1    1    2  501    0 -0.55252209001E+01 -0.37372472268E+02 -0.36957715909E+03  0.37150303669E+03  0.00000000000E+00 0. -1.
          1    1    1    2  502    0 -0.10285595396E+02  0.54094824850E+02  0.16574216325E+03  0.17464967285E+03  0.00000000000E+00 0. -1.
         22    1    3    3    0    0  0.46584620899E+02 -0.58758888198E+02 -0.33511060806E+03  0.34339751525E+03  0.00000000000E+00 0. -1.
         22    1    3    3    0    0 -0.30773804602E+02  0.42036535616E+02 -0.24160554089E+03  0.24715852153E+03  0.00000000000E+00 0. -1.
</event>
<event>
 7    1  0.6330892E-006  0.3884058E+02  0.7818608E-02  0.1551240E+00
          2   -1    0    0  502    0  0.00000000000E+00  0.00000000000E+00  0.18490911851E+04  0.18490911851E+04  0.00000000000E+00 0. -1.
          1   -1    0    0  501    0 -0.00000000000E+00 -0.00000000000E+00 -0.46592863801E+03  0.46592863801E+03  0.00000000000E+00 0. -1.
         25    2    1    2    0    0 -0.21821593121E+02  0.40219789363E+02  0.12247635955E+04  0.12319747580E+04  0.12498850368E+03 0.  0.
          2    1    1    2  501    0  0.30948687736E+02 -0.19329723603E+01 -0.46117792542E+03  0.46221925160E+03  0.00000000000E+00 0. -1.
          1    1    1    2  502    0 -0.91270946144E+01 -0.38286817002E+02  0.61957687700E+03  0.62082581351E+03  0.00000000000E+00 0. -1.
         22    1    3    3    0    0 -0.52618865687E+02  0.55873628211E+02  0.45434239848E+03  0.46077936414E+03  0.00000000000E+00 0.  1.
         22    1    3    3    0    0  0.30797272566E+02 -0.15653838849E+02  0.77042119704E+03  0.77119539386E+03  0.00000000000E+00 0.  1.
</event>
<event>
 7    1  0.6330892E-006  0.8584108E+02  0.7818608E-02  0.1411634E+00
          2   -1    0    0  502    0  0.00000000000E+00  0.00000000000E+00  0.25272130320E+04  0.25272130320E+04  0.00000000000E+00 0. -1.
          1   -1    0    0  501    0 -0.00000000000E+00 -0.00000000000E+00 -0.78810165826E+02  0.78810165826E+02  0.00000000000E+00 0. -1.
         25    2    1    2    0    0  0.16391419376E+02 -0.49814143840E+02  0.28504278499E+03  0.31563452863E+03  0.12500255531E+03 0.  0.
          2    1    1    2  501    0 -0.18890350243E+02  0.87355806202E+02 -0.31831805206E+02  0.94874369733E+02  0.00000000000E+00 0. -1.
          1    1    1    2  502    0  0.24989308669E+01 -0.37541662362E+02  0.21951918864E+04  0.21955142995E+04  0.00000000000E+00 0. -1.
         22    1    3    3    0    0  0.25288024078E+02  0.28117053662E+02  0.18333396703E+03  0.18719347301E+03  0.00000000000E+00 0. -1.
         22    1    3    3    0    0 -0.88966047020E+01 -0.77931197502E+02  0.10170881796E+03  0.12844105562E+03  0.00000000000E+00 0. -1.
</event>
<event>
 7    1  0.6330892E-006  0.7798284E+02  0.7818608E-02  0.1375737E+00
          2   -1    0    0  502    0  0.00000000000E+00  0.00000000000E+00  0.79428511299E+02  0.79428511299E+02  0.00000000000E+00 0. -1.
          1   -1    0    0  501    0 -0.00000000000E+00 -0.00000000000E+00 -0.77814135529E+03  0.77814135529E+03  0.00000000000E+00 0. -1.
         25    2    1    2    0    0 -0.48654067872E+02  0.99434790664E+02 -0.32038802833E+03  0.36128714659E+03  0.12500167068E+03 0.  0.
          2    1    1    2  501    0  0.50118129656E+02 -0.23086294939E+02 -0.40993802211E+03  0.41363508786E+03  0.00000000000E+00 0. -1.
          1    1    1    2  502    0 -0.14640617837E+01 -0.76348495725E+02  0.31613206457E+02  0.82647632143E+02  0.00000000000E+00 0. -1.
         22    1    3    3    0    0 -0.88855570135E+02  0.58542862330E+02 -0.24011159992E+03  0.26263312717E+03  0.00000000000E+00 0. -1.
         22    1    3    3    0    0  0.40201502263E+02  0.40891928334E+02 -0.80276428417E+02  0.98654019414E+02  0.00000000000E+00 0. -1.
</event>
<event>
 7    1  0.6330892E-006  0.2582760E+02  0.7818608E-02  0.1681374E+00
          2   -1    0    0  502    0  0.00000000000E+00  0.00000000000E+00  0.84894215922E+02  0.84894215922E+02  0.00000000000E+00 0. -1.
          1   -1    0    0  501    0 -0.00000000000E+00 -0.00000000000E+00 -0.28270136094E+03  0.28270136094E+03  0.00000000000E+00 0. -1.
         25    2    1    2    0    0  0.55202074049E+01  0.27598164168E+02 -0.43344007217E+01  0.12820013837E+03  0.12499742835E+03 0.  0.
          2    1    1    2  501    0  0.16906206304E+02 -0.13498269925E+02 -0.20804129958E+03  0.20916310724E+03  0.00000000000E+00 0. -1.
          1    1    1    2  502    0 -0.22426413709E+02 -0.14099894243E+02  0.14568555284E+02  0.30232331246E+02  0.00000000000E+00 0. -1.
         22    1    3    3    0    0  0.83679297855E+01 -0.45103369133E+02  0.21932554625E+02  0.50846564371E+02  0.00000000000E+00 0.  1.
         22    1    3    3    0    0 -0.28477223806E+01  0.72701533300E+02 -0.26266955347E+02  0.77353573997E+02  0.00000000000E+00 0.  1.
</event>
<event>
 7    1  0.6330892E-006  0.1312003E+03  0.7818608E-02  0.1293694E+00
          2   -1    0    0  502    0  0.00000000000E+00  0.00000000000E+00  0.60000426709E+03  0.60000426709E+03  0.00000000000E+00 0. -1.
          1   -1    0    0  501    0 -0.00000000000E+00 -0.00000000000E+00 -0.23691255056E+04  0.23691255056E+04  0.00000000000E+00 0. -1.
         25    2    1    2    0    0 -0.10581696515E+02 -0.92596851551E+02 -0.35142156748E+02  0.15983610243E+03  0.12500583683E+03 0.  0.
          2    1    1    2  501    0  0.75743229916E+02  0.10898690144E+03 -0.22675891452E+04  0.22714699454E+04  0.00000000000E+00 0. -1.
          1    1    1    2  502    0 -0.65161533401E+02 -0.16390049888E+02  0.53361006344E+03  0.53782372482E+03  0.00000000000E+00 0. -1.
         22    1    3    3    0    0 -0.41757535027E+02 -0.62786213711E+02  0.30459378433E+02  0.81323883934E+02  0.00000000000E+00 0. -1.
         22    1    3    3    0    0  0.31175838512E+02 -0.29810637840E+02 -0.65601535181E+02  0.78512218498E+02  0.00000000000E+00 0. -1.
</event>
<event>
 7    1  0.6330892E-006  0.1388307E+03  0.7818608E-02  0.1274911E+00
          2   -1    0    0  502    0  0.00000000000E+00  0.00000000000E+00  0.44880442393E+04  0.44880442393E+04  0.00000000000E+00 0. -1.
          1   -1    0    0  501    0 -0.00000000000E+00 -0.00000000000E+00 -0.25315323324E+03  0.25315323324E+03  0.00000000000E+00 0. -1.
         25    2    1    2    0    0 -0.10124178457E+03 -0.11243918850E+03  0.22798751646E+03  0.30082118485E+03  0.12499042977E+03 0.  0.
          2    1    1    2  501    0  0.29241981542E+02  0.13624094878E+03 -0.19396212486E+03  0.23882628726E+03  0.00000000000E+00 0. -1.
          1    1    1    2  502    0  0.71999803029E+02 -0.23801760276E+02  0.42008656144E+04  0.42015500004E+04  0.00000000000E+00 0. -1.
         22    1    3    3    0    0 -0.40992645271E+02 -0.12585433487E+03  0.17536209625E+03  0.21970793198E+03  0.00000000000E+00 0.  1.
         22    1    3    3    0    0 -0.60249139301E+02  0.13415146366E+02  0.52625420211E+02  0.81113252869E+02  0.00000000000E+00 0.  1.
</event>
<event>
 7    1  0.6330892E-006  0.2197619E+03  0.7818608E-02  0.1285580E+00
          2   -1    0    0  502    0  0.00000000000E+00  0.00000000000E+00  0.12713727219E+04  0.12713727219E+04  0.00000000000E+00 0. -1.
          1   -1    0    0  501    0 -0.00000000000E+00 -0.00000000000E+00 -0.61819228841E+03  0.61819228841E+03  0.00000000000E+00 0. -1.
         25    2    1    2    0    0  0.21076608678E+03 -0.27556780056E+01  0.55854400557E+03  0.60993990852E+03  0.12500139500E+03 0.  0.
          2    1    1    2  501    0  0.13896518461E+02  0.40991196233E+02 -0.57275962542E+03  0.57439270530E+03  0.00000000000E+00 0. -1.
          1    1    1    2  502    0 -0.22466260524E+03 -0.38235518228E+02  0.66739605337E+03  0.70523239652E+03  0.00000000000E+00 0. -1.
         22    1    3    3    0    0  0.16394788575E+03  0.49239005045E+02  0.44220651444E+03  0.47418349852E+03  0.00000000000E+00 0. -1.
         22    1    3    3    0    0  0.46818201026E+02 -0.51994683051E+02  0.11633749114E+03  0.13575641000E+03  0.00000000000E+00 0. -1.
</event>
<event>
 7    1  0.6330892E-006  0.4642158E+02  0.7818608E-02  0.1494581E+00
          2   -1    0    0  502    0  0.00000000000E+00  0.00000000000E+00  0.17652910119E+03  0.17652910119E+03  0.00000000000E+00 0. -1.
          1   -1    0    0  501    0 -0.00000000000E+00 -0.00000000000E+00 -0.11446073522E+04  0.11446073522E+04  0.00000000000E+00 0. -1.
         25    2    1    2    0    0  0.67213069450E+01 -0.65977983050E+02 -0.72424279328E+03  0.73793833887E+03  0.12500839231E+03 0.  0.
          2    1    1    2  501    0 -0.28423856309E+02  0.24985293227E+02 -0.40945805713E+03  0.41120321136E+03  0.00000000000E+00 0. -1.
          1    1    1    2  502    0  0.21702549364E+02  0.40992689823E+02  0.16562259942E+03  0.17199490314E+03  0.00000000000E+00 0. -1.
         22    1    3    3    0    0  0.25643396655E+02  0.54537398338E+01 -0.30280896161E+02  0.40053211388E+02  0.00000000000E+00 0. -1.
         22    1    3    3    0    0 -0.18922089710E+02 -0.71431722884E+02 -0.69396189712E+03  0.69788512749E+03  0.00000000000E+00 0. -1.
</event>
<event>
 7    1  0.6330892E-006  0.5590086E+02  0.7818608E-02  0.1423688E+00
          2   -1    0    0  502    0  0.00000000000E+00  0.00000000000E+00  0.12969128320E+04  0.12969128320E+04  0.00000000000E+00 0. -1.
          1   -1    0    0  501    0 -0.00000000000E+00 -0.00000000000E+00 -0.29969411602E+03  0.29969411602E+03  0.00000000000E+00 0. -1.
         25    2    1    2    0    0 -0.51342407812E+02 -0.48013314772E+02 -0.22673738379E+03  0.26828380371E+03  0.12500014757E+03 0.  0.
          2    1    1    2  501    0  0.54548102445E+02 -0.45334929411E+01 -0.37128263225E+02  0.66140426131E+02  0.00000000000E+00 0. -1.
          1    1    1    2  502    0 -0.32056946330E+01  0.52546807713E+02  0.12610843630E+04  0.12621827182E+04  0.00000000000E+00 0. -1.
         22    1    3    3    0    0 -0.91985540824E+02 -0.25730324348E+02 -0.13338468702E+03  0.16405750224E+03  0.00000000000E+00 0. -1.
         22    1    3    3    0    0  0.40643133012E+02 -0.22282990424E+02 -0.93352696776E+02  0.10422630147E+03  0.00000000000E+00 0. -1.
</event>
<event>
 7    1  0.6330892E-006  0.3000728E+03  0.7818608E-02  0.1100736E+00
          2   -1    0    0  502    0  0.00000000000E+00  0.00000000000E+00  0.20710310735E+04  0.20710310735E+04  0.00000000000E+00 0. -1.
          1   -1    0    0  501    0 -0.00000000000E+00 -0.00000000000E+00 -0.12981111368E+03  0.12981111368E+03  0.00000000000E+00 0. -1.
         25    2    1    2    0    0  0.16513954819E+03 -0.23425429579E+02  0.50893087402E+03  0.54995904944E+03  0.12499800163E+03 0.  0.
          2    1    1    2  501    0 -0.40632405425E+03  0.64509068615E+02  0.34654930666E+03  0.53791921228E+03  0.00000000000E+00 0. -1.
          1    1    1    2  502    0  0.24118450606E+03 -0.41083639035E+02  0.10857397791E+04  0.11129639254E+04  0.00000000000E+00 0. -1.
         22    1    3    3    0    0  0.17240290061E+03 -0.11259667634E+02  0.50703682494E+03  0.53566396378E+03  0.00000000000E+00 0.  1.
         22    1    3    3    0    0 -0.72633524219E+01 -0.12165761945E+02  0.18940490786E+01  0.14295085660E+02  0.00000000000E+00 0.  1.
</event>
<event>
 7    1  0.6330892E-006  0.9686997E+02  0.7818608E-02  0.1435776E+00
          2   -1    0    0  502    0  0.00000000000E+00  0.00000000000E+00  0.19892467601E+04  0.19892467601E+04  0.00000000000E+00 0. -1.
          1   -1    0    0  501    0 -0.00000000000E+00 -0.00000000000E+00 -0.10179117081E+03  0.10179117081E+03  0.00000000000E+00 0. -1.
         25    2    1    2    0    0  0.55408401129E+02  0.94219121136E+02  0.15954613941E+03  0.23027487816E+03  0.12499686078E+03 0.  0.
          2    1    1    2  501    0  0.11898981171E+02 -0.25034575391E+02 -0.62177265006E+02  0.68075898830E+02  0.00000000000E+00 0. -1.
          1    1    1    2  502    0 -0.67307382301E+02 -0.69184545745E+02  0.17900867148E+04  0.17926871539E+04  0.00000000000E+00 0. -1.
         22    1    3    3    0    0  0.90594360601E+02  0.37660608791E+02  0.10904481095E+03  0.14668479956E+03  0.00000000000E+00 0.  1.
         22    1    3    3    0    0 -0.35185959471E+02  0.56558512344E+02  0.50501328462E+02  0.83590078592E+02  0.00000000000E+00 0.  1.
</event>
<event>
 7    1  0.6330892E-006  0.9510558E+02  0.7818608E-02  0.1351301E+00
          2   -1    0    0  502    0  0.00000000000E+00  0.00000000000E+00  0.16737337285E+04  0.16737337285E+04  0.00000000000E+00 0. -1.
          1   -1    0    0  501    0 -0.00000000000E+00 -0.00000000000E+00 -0.23106956904E+03  0.23106956904E+03  0.00000000000E+00 0. -1.
         25    2    1    2    0    0  0.12759850089E+03  0.27990818009E+02  0.15733680173E+03  0.23966643802E+03  0.12498107461E+03 0.  0.
          2    1    1    2  501    0 -0.49656571609E+02  0.24786762874E+02 -0.18431176976E+03  0.19248632988E+03  0.00000000000E+00 0. -1.
          1    1    1    2  502    0 -0.77941929278E+02 -0.52777580883E+02  0.14696391275E+04  0.14726505296E+04  0.00000000000E+00 0. -1.
         22    1    3    3    0    0  0.86513687642E+02  0.29471251300E+02  0.16399420075E+02  0.92855337927E+02  0.00000000000E+00 0.  1.
         22    1    3    3    0    0  0.41084813245E+02 -0.14804332907E+01  0.14093738165E+03  0.14681110009E+03  0.00000000000E+00 0.  1.
</event>
<event>
 7    1  0.6330892E-006  0.1591901E+03  0.7818608E-02  0.1260037E+00
          2   -1    0    0  502    0  0.00000000000E+00  0.00000000000E+00  0.27747693660E+04  0.27747693660E+04  0.00000000000E+00 0. -1.
          1   -1    0    0  501    0 -0.00000000000E+00 -0.00000000000E+00 -0.35395460638E+03  0.35395460638E+03  0.00000000000E+00 0. -1.
         25    2    1    2    0    0 -0.11897227732E+03 -0.75621338674E+02 -0.20177957541E+03  0.27606701747E+03  0.12500004578E+03 0.  0.
          2    1    1    2  501    0 -0.40207179363E+02  0.64974200573E+02 -0.99744682457E+02  0.12564738633E+03  0.00000000000E+00 0. -1.
          1    1    1    2  502    0  0.15917945669E+03  0.10647138102E+02  0.27223390175E+04  0.27270095686E+04  0.00000000000E+00 0. -1.
         22    1    3    3    0    0 -0.12027335900E+03 -0.95315351679E+02 -0.12844218085E+03  0.20012019132E+03  0.00000000000E+00 0. -1.
         22    1    3    3    0    0  0.13010816770E+01  0.19694013005E+02 -0.73337394557E+02  0.75946826149E+02  0.00000000000E+00 0. -1.
</event>
<event>
 7    1  0.6330892E-006  0.6171548E+02  0.7818608E-02  0.1396030E+00
          2   -1    0    0  502    0  0.00000000000E+00  0.00000000000E+00  0.22829118965E+02  0.22829118965E+02  0.00000000000E+00 0. -1.
          1   -1    0    0  501    0 -0.00000000000E+00 -0.00000000000E+00 -0.18379580418E+04  0.18379580418E+04  0.00000000000E+00 0. -1.
         25    2    1    2    0    0  0.17771175226E+02  0.11575777995E+03 -0.14906817199E+04  0.15004905195E+04  0.12499652362E+03 0.  0.
          2    1    1    2  501    0  0.80161846629E+00 -0.59168881102E+02 -0.27946157103E+03  0.28565778261E+03  0.00000000000E+00 0. -1.
          1    1    1    2  502    0 -0.18572793692E+02 -0.56588898850E+02 -0.44985631940E+02  0.74638858644E+02  0.00000000000E+00 0. -1.
         22    1    3    3    0    0 -0.14765468842E+02  0.12954561925E+03 -0.98765677806E+03  0.99622587689E+03  0.00000000000E+00 0.  1.
         22    1    3    3    0    0  0.32536644069E+02 -0.13787839302E+02 -0.50302494183E+03  0.50426464264E+03  0.00000000000E+00 0.  1.
</event>
<event>
 7    1  0.6330892E-006  0.6840958E+02  0.7818608E-02  0.1427836E+00
          2   -1    0    0  502    0  0.00000000000E+00  0.00000000000E+00  0.30246020295E+04  0.30246020295E+04  0.00000000000E+00 0. -1.
          1   -1    0    0  501    0 -0.00000000000E+00 -0.00000000000E+00 -0.16969193169E+02  0.16969193169E+02  0.00000000000E+00 0. -1.
         25    2    1    2    0    0  0.82477242942E+02  0.59707777427E+02  0.17890002789E+04  0.17962501337E+04  0.12500012221E+03 0.  0.
          2    1    1    2  501    0 -0.62939315859E+02 -0.22892194277E+02  0.73524642834E+02  0.99454930212E+02  0.00000000000E+00 0. -1.
          1    1    1    2  502    0 -0.19537927083E+02 -0.36815583151E+02  0.11451079146E+04  0.11458661588E+04  0.00000000000E+00 0. -1.
         22    1    3    3    0    0  0.85688060213E+02  0.82187131541E+02  0.10156297341E+04  0.10225462948E+04  0.00000000000E+00 0. -1.
         22    1    3    3    0    0 -0.32108172713E+01 -0.22479354114E+02  0.77337054475E+03  0.77370383881E+03  0.00000000000E+00 0. -1.
</event>
<event>
 7    1  0.6330892E-006  0.9108880E+02  0.7818608E-02  0.1335128E+00
          2   -1    0    0  502    0  0.00000000000E+00  0.00000000000E+00  0.57342870514E+03  0.57342870514E+03  0.00000000000E+00 0. -1.
          1   -1    0    0  501    0 -0.00000000000E+00 -0.00000000000E+00 -0.78618589479E+03  0.78618589479E+03  0.00000000000E+00 0. -1.
         25    2    1    2    0    0 -0.50343881469E+02 -0.16380997396E+02 -0.72744195369E+02  0.15400944806E+03  0.12499739460E+03 0.  0.
          2    1    1    2  501    0  0.47136804626E+02  0.82919449468E+02 -0.66732250580E+03  0.67410447276E+03  0.00000000000E+00 0. -1.
          1    1    1    2  502    0  0.32070768436E+01 -0.66538452072E+02  0.52730951152E+03  0.53150067911E+03  0.00000000000E+00 0. -1.
         22    1    3    3    0    0 -0.71879314051E+02  0.19615795095E+02 -0.82270061710E+02  0.11099449653E+03  0.00000000000E+00 0. -1.
         22    1    3    3    0    0  0.21535432582E+02 -0.35996792491E+02  0.95258663409E+01  0.43014951536E+02  0.00000000000E+00 0. -1.
</event>
<event>
 7    1  0.6330892E-006  0.1702980E+03  0.7818608E-02  0.1225923E+00
          2   -1    0    0  502    0  0.00000000000E+00  0.00000000000E+00  0.36115648748E+04  0.36115648748E+04  0.00000000000E+00 0. -1.
          1   -1    0    0  501    0 -0.00000000000E+00 -0.00000000000E+00 -0.17275521362E+03  0.17275521362E+03  0.00000000000E+00 0. -1.
         25    2    1    2    0    0 -0.37375690162E+02  0.12708481249E+03  0.19531472903E+03  0.26705930036E+03  0.12500133899E+03 0.  0.
          2    1    1    2  501    0  0.93492183348E+02  0.37759766408E+02 -0.11574870411E+03  0.15350684288E+03  0.00000000000E+00 0. -1.
          1    1    1    2  502    0 -0.56116493186E+02 -0.16484457889E+03  0.33592436363E+04  0.33637539452E+04  0.00000000000E+00 0. -1.
         22    1    3    3    0    0  0.47301423196E+01  0.50746264990E+02 -0.23523862771E+01  0.51020499586E+02  0.00000000000E+00 0. -1.
         22    1    3    3    0    0 -0.42105832481E+02  0.76338547497E+02  0.19766711531E+03  0.21603880077E+03  0.00000000000E+00 0. -1.
</event>
<event>
 7    1  0.6330892E-006  0.4979955E+02  0.7818608E-02  0.1565112E+00
          2   -1    0    0  502    0  0.00000000000E+00  0.00000000000E+00  0.19014742537E+04  0.19014742537E+04  0.00000000000E+00 0. -1.
          1   -1    0    0  501    0 -0.00000000000E+00 -0.00000000000E+00 -0.12088398256E+03  0.12088398256E+03  0.00000000000E+00 0. -1.
         25    2    1    2    0    0 -0.46535479500E+02 -0.33805476733E+02  0.92252016795E+03  0.93272517751E+03  0.12499774149E+03 0.  0.
          2    1    1    2  501    0 -0.13714311831E+01  0.22102136183E+02 -0.11409185259E+03  0.11622106554E+03  0.00000000000E+00 0. -1.
          1    1    1    2  502    0  0.47906910683E+02  0.11703340550E+02  0.97216195573E+03  0.97341199316E+03  0.00000000000E+00 0. -1.
         22    1    3    3    0    0 -0.19629722264E+02 -0.59401796572E+02  0.20712928666E+03  0.21637107206E+03  0.00000000000E+00 0. -1.
         22    1    3    3    0    0 -0.26905757236E+02  0.25596319839E+02  0.71539088129E+03  0.71635410545E+03  0.00000000000E+00 0. -1.
</event>
<event>
 7    1  0.6330892E-006  0.1086240E+03  0.7818608E-02  0.1448044E+00
          2   -1    0    0  502    0  0.00000000000E+00  0.00000000000E+00  0.15027735641E+04  0.15027735641E+04  0.00000000000E+00 0. -1.
          1   -1    0    0  501    0 -0.00000000000E+00 -0.00000000000E+00 -0.27965834719E+03  0.27965834719E+03  0.00000000000E+00 0. -1.
         25    2    1    2    0    0 -0.49087725752E+02 -0.95750092956E+02 -0.17634233209E+03  0.24143929198E+03  0.12497451142E+03 0.  0.
          2    1    1    2  501    0  0.69765474663E+02  0.86730535550E+02 -0.26855126315E+02  0.11450155047E+03  0.00000000000E+00 0. -1.
          1    1    1    2  502    0 -0.20677748910E+02  0.90195574060E+01  0.14263126753E+04  0.14264910688E+04  0.00000000000E+00 0. -1.
         22    1    3    3    0    0  0.29918355174E+02 -0.36487044446E+02 -0.10379373390E+02  0.48312977352E+02  0.00000000000E+00 0.  1.
         22    1    3    3    0    0 -0.79006080926E+02 -0.59263048510E+02 -0.16596295870E+03  0.19312631463E+03  0.00000000000E+00 0.  1.
</event>
<event>
 7    1  0.6330892E-006  0.9724529E+02  0.7818608E-02  0.1317938E+00
          2   -1    0    0  502    0  0.00000000000E+00  0.00000000000E+00  0.24959040810E+03  0.24959040810E+03  0.00000000000E+00 0. -1.
          1   -1    0    0  501    0 -0.00000000000E+00 -0.00000000000E+00 -0.70095493075E+03  0.70095493075E+03  0.00000000000E+00 0. -1.
         25    2    1    2    0    0 -0.18432819069E+02 -0.82415136058E+02 -0.25306428156E+03  0.29461729343E+03  0.12500318203E+03 0.  0.
          2    1    1    2  501    0 -0.53413545818E+02  0.93150476893E+02 -0.41432657199E+03  0.42801463349E+03  0.00000000000E+00 0. -1.
          1    1    1    2  502    0  0.71846364887E+02 -0.10735340834E+02  0.21602633091E+03  0.22791341193E+03  0.00000000000E+00 0. -1.
         22    1    3    3    0    0 -0.60651864530E+02 -0.50408277738E+02 -0.74980096888E+02  0.10881938276E+03  0.00000000000E+00 0. -1.
         22    1    3    3    0    0  0.42219045461E+02 -0.32006858320E+02 -0.17808418467E+03  0.18579791067E+03  0.00000000000E+00 0. -1.
</event>
<event>
 7    1  0.6330892E-006  0.4737042E+02  0.7818608E-02  0.1488439E+00
          2   -1    0    0  502    0  0.00000000000E+00  0.00000000000E+00  0.68385447197E+03  0.68385447197E+03  0.00000000000E+00 0. -1.
          1   -1    0    0  501    0 -0.00000000000E+00 -0.00000000000E+00 -0.36809938347E+03  0.36809938347E+03  0.00000000000E+00 0. -1.
         25    2    1    2    0    0 -0.62170969457E+02 -0.54999877131E+02  0.10420364902E+03  0.18268190709E+03  0.12499625108E+03 0.  0.
          2    1    1    2  501    0  0.41284493870E+02  0.22415276605E+02 -0.32648389400E+03  0.32984630830E+03  0.00000000000E+00 0. -1.
          1    1    1    2  502    0  0.20886475587E+02  0.32584600526E+02  0.53803533348E+03  0.53942564003E+03  0.00000000000E+00 0. -1.
         22    1    3    3    0    0 -0.80754432075E+02 -0.80281012891E+01  0.18555219470E+02  0.83246770986E+02  0.00000000000E+00 0.  1.
         22    1    3    3    0    0  0.18583462618E+02 -0.46971775842E+02  0.85648429550E+02  0.99435136109E+02  0.00000000000E+00 0.  1.
</event>
<event>
 7    1  0.6330892E-006  0.5331749E+02  0.7818608E-02  0.1469649E+00
          2   -1    0    0  502    0  0.00000000000E+00  0.00000000000E+00  0.10671484293E+04  0.10671484293E+04  0.00000000000E+00 0. -1.
          1   -1    0    0  501    0 -0.00000000000E+00 -0.00000000000E+00 -0.28423805498E+03  0.28423805498E+03  0.00000000000E+00 0. -1.
         25    2    1    2    0    0 -0.84554809379E+02  0.21773638141E+02 -0.13432183108E+03  0.20320067153E+03  0.12499820599E+03 0.  0.
          2    1    1    2  501    0  0.45785411142E+02 -0.15494836838E+02 -0.11002691528E+03  0.12017618702E+03  0.00000000000E+00 0. -1.
          1    1    1    2  502    0  0.38769398237E+02 -0.62788013028E+01  0.10272591206E+04  0.10280096257E+04  0.00000000000E+00 0. -1.
         22    1    3    3    0    0 -0.88714318034E+02 -0.21045213003E+02 -0.13159372928E+03  0.16009384997E+03  0.00000000000E+00 0. -1.
         22    1    3    3    0    0  0.41595086551E+01  0.42818851144E+02 -0.27281018022E+01  0.43106821560E+02  0.00000000000E+00 0. -1.
</event>
<event>
 7    1  0.6330892E-006  0.4183707E+03  0.7818608E-02  0.1282572E+00
          2   -1    0    0  502    0  0.00000000000E+00  0.00000000000E+00  0.16678429069E+03  0.16678429069E+03  0.00000000000E+00 0. -1.
          1   -1    0    0  501    0 -0.00000000000E+00 -0.00000000000E+00 -0.23423925543E+04  0.23423925543E+04  0.00000000000E+00 0. -1.
         25    2    1    2    0    0  0.21045104212E+03 -0.35803901589E+03 -0.48745655739E+03  0.65247264472E+03  0.12500031495E+03 0.  0.
          2    1    1    2  501    0  0.22409838232E+02  0.67043207884E+01 -0.12446123593E+04  0.12448321468E+04  0.00000000000E+00 0. -1.
          1    1    1    2  502    0 -0.23286088035E+03  0.35133469510E+03 -0.44353934694E+03  0.61187205350E+03  0.00000000000E+00 0. -1.
         22    1    3    3    0    0  0.10708629084E+03 -0.26561613281E+03 -0.26408810489E+03  0.38956633689E+03  0.00000000000E+00 0.  1.
         22    1    3    3    0    0  0.10336475128E+03 -0.92422883078E+02 -0.22336845250E+03  0.26290630782E+03  0.00000000000E+00 0.  1.
</event>
<event>
 7    1  0.6330892E-006  0.4695635E+02  0.7818608E-02  0.1544609E+00
          2   -1    0    0  502    0  0.00000000000E+00  0.00000000000E+00  0.20366236026E+04  0.20366236026E+04  0.00000000000E+00 0. -1.
          1   -1    0    0  501    0 -0.00000000000E+00 -0.00000000000E+00 -0.81416332107E+03  0.81416332107E+03  0.00000000000E+00 0. -1.
         25    2    1    2    0    0  0.56205651891E+02 -0.42575537169E+02 -0.49492944021E+03  0.51531718580E+03  0.12499959809E+03 0.  0.
          2    1    1    2  501    0 -0.25913338087E+02  0.67123154517E+01 -0.30818787512E+03  0.30934822230E+03  0.00000000000E+00 0. -1.
          1    1    1    2  502    0 -0.30292313804E+02  0.35863221717E+02  0.20255775968E+04  0.20261215155E+04  0.00000000000E+00 0. -1.
         22    1    3    3    0    0  0.42525291097E+02 -0.73128041658E+02 -0.45684821766E+03  0.46461425380E+03  0.00000000000E+00 0.  1.
         22    1    3    3    0    0  0.13680360795E+02  0.30552504489E+02 -0.38081222556E+02  0.50702932000E+02  0.00000000000E+00 0.  1.
</event>
<event>
 7    1  0.6330892E-006  0.5345181E+02  0.7818608E-02  0.1519461E+00
          2   -1    0    0  502    0  0.00000000000E+00  0.00000000000E+00  0.21129715153E+04  0.21129715153E+04  0.00000000000E+00 0. -1.
          1   -1    0    0  501    0 -0.00000000000E+00 -0.00000000000E+00 -0.31093790526E+03  0.31093790526E+03  0.00000000000E+00 0. -1.
         25    2    1    2    0    0 -0.39300380910E+02  0.84987788956E+01  0.78463254130E+03  0.79554368486E+03  0.12499912191E+03 0.  0.
          2    1    1    2  501    0 -0.26267314978E+01  0.27622385869E+02 -0.30427201712E+03  0.30553454194E+03  0.00000000000E+00 0. -1.
          1    1    1    2  502    0  0.41927112408E+02 -0.36121164764E+02  0.13216730858E+04  0.13228311937E+04  0.00000000000E+00 0. -1.
         22    1    3    3    0    0 -0.49847217866E+02  0.36556167700E+02  0.18286950210E+03  0.19303459100E+03  0.00000000000E+00 0.  1.
         22    1    3    3    0    0  0.10546836956E+02 -0.28057388804E+02  0.60176303920E+03  0.60250909386E+03  0.00000000000E+00 0.  1.
</event>
<event>
 7    1  0.6330892E-006  0.5640921E+02  0.7818608E-02  0.1419507E+00
          2   -1    0    0  502    0  0.00000000000E+00  0.00000000000E+00  0.64835529222E+03  0.64835529222E+03  0.00000000000E+00 0. -1.
          1   -1    0    0  501    0 -0.00000000000E+00 -0.00000000000E+00 -0.33774681571E+03  0.33774681571E+03  0.00000000000E+00 0. -1.
         25    2    1    2    0    0  0.28144060542E+02 -0.99075638153E+02  0.43915892906E+02  0.16781545213E+03  0.12500140041E+03 0.  0.
          2    1    1    2  501    0  0.38055293029E+01  0.53736027250E+02 -0.27172808682E+03  0.27701659850E+03  0.00000000000E+00 0. -1.
          1    1    1    2  502    0 -0.31949589845E+02  0.45339610903E+02  0.53842067041E+03  0.54127005731E+03  0.00000000000E+00 0. -1.
         22    1    3    3    0    0  0.31746826501E+02 -0.68581199175E+02  0.86788744698E+02  0.11508052867E+03  0.00000000000E+00 0. -1.
         22    1    3    3    0    0 -0.36027659585E+01 -0.30494438978E+02 -0.42872851792E+02  0.52734923456E+02  0.00000000000E+00 0. -1.
</event>
<event>
 7    1  0.6330892E-006  0.1322532E+03  0.7818608E-02  0.1340066E+00
          2   -1    0    0  502    0  0.00000000000E+00  0.00000000000E+00  0.76217982480E+02  0.76217982480E+02  0.00000000000E+00 0. -1.
          1   -1    0    0  501    0 -0.00000000000E+00 -0.00000000000E+00 -0.17744315886E+04  0.17744315886E+04  0.00000000000E+00 0. -1.
         25    2    1    2    0    0 -0.12696774281E+03  0.39516864596E+02 -0.23030530163E+03  0.29384870504E+03  0.12499655673E+03 0.  0.
          2    1    1    2  501    0  0.18879786169E+02  0.39691456366E+02 -0.14102243235E+04  0.14109091043E+04  0.00000000000E+00 0. -1.
          1    1    1    2  502    0  0.10808795664E+03 -0.79208320961E+02 -0.57683981005E+02  0.14589176174E+03  0.00000000000E+00 0. -1.
         22    1    3    3    0    0 -0.47375480686E+02 -0.44540083019E+02 -0.64136971242E+02  0.91333489180E+02  0.00000000000E+00 0.  1.
         22    1    3    3    0    0 -0.79592262122E+02  0.84056947615E+02 -0.16616833039E+03  0.20251521586E+03  0.00000000000E+00 0.  1.
</event>
<event>
 7    1  0.6330892E-006  0.1003773E+03  0.7818608E-02  0.1358849E+00
          2   -1    0    0  502    0  0.00000000000E+00  0.00000000000E+00  0.43685455166E+03  0.43685455166E+03  0.00000000000E+00 0. -1.
          1   -1    0    0  501    0 -0.00000000000E+00 -0.00000000000E+00 -0.19780083137E+03  0.19780083137E+03  0.00000000000E+00 0. -1.
         25    2    1    2    0    0  0.40295112582E+02  0.10695178730E+03 -0.35814567625E+02  0.17311639322E+03  0.12499688574E+03 0.  0.
          2    1    1    2  501    0 -0.48805378593E+02 -0.71703881536E+01 -0.79351777616E+02  0.93434918829E+02  0.00000000000E+00 0. -1.
          1    1    1    2  502    0  0.85102660113E+01 -0.99781399145E+02  0.35422006553E+03  0.36810407097E+03  0.00000000000E+00 0. -1.
         22    1    3    3    0    0  0.67639954494E+02  0.67078483629E+02  0.21980969469E+02  0.97764254350E+02  0.00000000000E+00 0.  1.
         22    1    3    3    0    0 -0.27344841912E+02  0.39873303670E+02 -0.57795537094E+02  0.75352138873E+02  0.00000000000E+00 0.  1.
</event>
<event>
 7    1  0.6330892E-006  0.1034400E+03  0.7818608E-02  0.1382876E+00
          2   -1    0    0  502    0  0.00000000000E+00  0.00000000000E+00  0.39663989672E+03  0.39663989672E+03  0.00000000000E+00 0. -1.
          1   -1    0    0  501    0 -0.00000000000E+00 -0.00000000000E+00 -0.48614245485E+03  0.48614245485E+03  0.00000000000E+00 0. -1.
         25    2    1    2    0    0  0.29126439223E+02  0.85255632951E+02  0.19492435012E+03  0.24846952805E+03  0.12499892674E+03 0.  0.
          2    1    1    2  501    0  0.54484617090E+01 -0.10382210250E+03 -0.45118030373E+03  0.46300365136E+03  0.00000000000E+00 0. -1.
          1    1    1    2  502    0 -0.34574900932E+02  0.18566469544E+02  0.16675339548E+03  0.17130917217E+03  0.00000000000E+00 0. -1.
         22    1    3    3    0    0 -0.41132438832E+02  0.65065196105E+02  0.71718913465E+02  0.10520912421E+03  0.00000000000E+00 0. -1.
         22    1    3    3    0    0  0.70258878055E+02  0.20190436846E+02  0.12320543666E+03  0.14326040384E+03  0.00000000000E+00 0. -1.
</event>
<event>
 7    1  0.6330892E-006  0.6890882E+02  0.7818608E-02  0.1425807E+00
          2   -1    0    0  502    0  0.00000000000E+00  0.00000000000E+00  0.12875203071E+03  0.12875203071E+03  0.00000000000E+00 0. -1.
          1   -1    0    0  501    0 -0.00000000000E+00 -0.00000000000E+00 -0.23687788434E+03  0.23687788434E+03  0.00000000000E+00 0. -1.
         25    2    1    2    0    0  0.12619058611E+01  0.75548013637E+02 -0.13540866930E+03  0.19917202249E+03  0.12499956819E+03 0.  0.
          2    1    1    2  501    0  0.37818737552E+02 -0.18316675414E+02 -0.48227687616E+02  0.63966142302E+02  0.00000000000E+00 0. -1.
          1    1    1    2  502    0 -0.39080643413E+02 -0.57231338223E+02  0.75510503291E+02  0.10249175026E+03  0.00000000000E+00 0. -1.
         22    1    3    3    0    0 -0.61467305446E+02  0.29278219068E+02 -0.65139012889E+02  0.94225977049E+02  0.00000000000E+00 0.  1.
         22    1    3    3    0    0  0.62729211307E+02  0.46269794568E+02 -0.70269656414E+02  0.10494604544E+03  0.00000000000E+00 0.  1.
</event>
<event>
 7    1  0.6330892E-006  0.7079867E+02  0.7818608E-02  0.1395460E+00
          2   -1    0    0  502    0  0.00000000000E+00  0.00000000000E+00  0.27673609391E+03  0.27673609391E+03  0.00000000000E+00 0. -1.
          1   -1    0    0  501    0 -0.00000000000E+00 -0.00000000000E+00 -0.24643475464E+04  0.24643475464E+04  0.00000000000E+00 0. -1.
         25    2    1    2    0    0 -0.33035806024E+02  0.26460144721E+02 -0.11791799482E+03  0.17697266783E+03  0.12499267146E+03 0.  0.
          2    1    1    2  501    0 -0.38786486025E+02 -0.34360162416E+02 -0.23113258225E+04  0.23119065877E+04  0.00000000000E+00 0. -1.
          1    1    1    2  502    0  0.71822292049E+02  0.79000176955E+01  0.24163236491E+03  0.25220438475E+03  0.00000000000E+00 0. -1.
         22    1    3    3    0    0 -0.74198911626E+02  0.44073802693E+02 -0.87124797467E+02  0.12263241376E+03  0.00000000000E+00 0.  1.
         22    1    3    3    0    0  0.41163105602E+02 -0.17613657973E+02 -0.30793197353E+02  0.54340254078E+02  0.00000000000E+00 0.  1.
</event>
<event>
 7    1  0.6330892E-006  0.6595636E+02  0.7818608E-02  0.1481641E+00
          2   -1    0    0  502    0  0.00000000000E+00  0.00000000000E+00  0.30374603898E+03  0.30374603898E+03  0.00000000000E+00 0. -1.
          1   -1    0    0  501    0 -0.00000000000E+00 -0.00000000000E+00 -0.90835037528E+03  0.90835037528E+03  0.00000000000E+00 0. -1.
         25    2    1    2    0    0 -0.51250913284E+02  0.78938334442E+02  0.11609255131E+03  0.19483683529E+03  0.12500398056E+03 0.  0.
          2    1    1    2  501    0  0.40333766024E+02 -0.51904514746E+02 -0.86628782490E+03  0.86877815747E+03  0.00000000000E+00 0. -1.
          1    1    1    2  502    0  0.10917147260E+02 -0.27033819696E+02  0.14559093728E+03  0.14848142150E+03  0.00000000000E+00 0. -1.
         22    1    3    3    0    0 -0.65889276719E+02  0.90982181414E+02  0.12963859300E+03  0.17153809757E+03  0.00000000000E+00 0.  1.
         22    1    3    3    0    0  0.14638363435E+02 -0.12043846972E+02 -0.13546041688E+02  0.23298737720E+02  0.00000000000E+00 0.  1.
</event>
<event>
 7    1  0.6330892E-006  0.5827383E+02  0.7818608E-02  0.1442627E+00
          2   -1    0    0  502    0  0.00000000000E+00  0.00000000000E+00  0.62031239593E+02  0.62031239593E+02  0.00000000000E+00 0. -1.
          1   -1    0    0  501    0 -0.00000000000E+00 -0.00000000000E+00 -0.54582948741E+03  0.54582948741E+03  0.00000000000E+00 0. -1.
         25    2    1    2    0    0  0.52929345413E+02 -0.75305627514E+02 -0.31932104534E+03  0.35505262249E+03  0.12499592633E+03 0.  0.
          2    1    1    2  501    0 -0.40044797136E+02  0.33469834239E+02 -0.19341518935E+03  0.20033285065E+03  0.00000000000E+00 0. -1.
          1    1    1    2  502    0 -0.12884548277E+02  0.41835793275E+02  0.28937986869E+02  0.52475253857E+02  0.00000000000E+00 0. -1.
         22    1    3    3    0    0  0.11046630104E+02 -0.36891240545E+02 -0.89693932564E+01  0.39540380385E+02  0.00000000000E+00 0.  1.
         22    1    3    3    0    0  0.41882715309E+02 -0.38414386969E+02 -0.31035165209E+03  0.31551224211E+03  0.00000000000E+00 0.  1.
</event>
<event>
 7    1  0.6330892E-006  0.5317595E+02  0.7818608E-02  0.1432149E+00
          2   -1    0    0  502    0  0.00000000000E+00  0.00000000000E+00  0.23541540443E+03  0.23541540443E+03  0.00000000000E+00 0. -1.
          1   -1    0    0  501    0 -0.00000000000E+00 -0.00000000000E+00 -0.30798245149E+04  0.30798245149E+04  0.00000000000E+00 0. -1.
         25    2    1    2    0    0  0.12420099236E+02 -0.25012213765E+01 -0.73181137266E+02  0.14540435148E+03  0.12500572628E+03 0.  0.
          2    1    1    2  501    0 -0.25578784097E+01  0.53449315322E+02 -0.29669084470E+04  0.29673909593E+04  0.00000000000E+00 0. -1.
          1    1    1    2  502    0 -0.98622208259E+01 -0.50948093946E+02  0.19568047387E+03  0.20244460854E+03  0.00000000000E+00 0. -1.
         22    1    3    3    0    0  0.99609956549E+01  0.11881917530E+02  0.33929514817E+02  0.37304334525E+02  0.00000000000E+00 0. -1.
         22    1    3    3    0    0  0.24591035807E+01 -0.14383138907E+02 -0.10711065208E+03  0.10810001695E+03  0.00000000000E+00 0. -1.
</event>
<event>
 7    1  0.6330892E-006  0.1004448E+03  0.7818608E-02  0.1331678E+00
          2   -1    0    0  502    0  0.00000000000E+00  0.00000000000E+00  0.16499522531E+04  0.16499522531E+04  0.00000000000E+00 0. -1.
          1   -1    0    0  501    0 -0.00000000000E+00 -0.00000000000E+00 -0.50458230796E+02  0.50458230796E+02  0.00000000000E+00 0. -1.
         25    2    1    2    0    0  0.71033203728E+02 -0.15202078298E+02  0.27965496402E+03  0.31481772554E+03  0.12500592865E+03 0.  0.
          2    1    1    2  501    0 -0.82541448497E+02  0.76391284653E+02  0.66393405730E+02  0.13060169760E+03  0.00000000000E+00 0. -1.
          1    1    1    2  502    0  0.11508244769E+02 -0.61189206355E+02  0.12534456526E+04  0.12549910608E+04  0.00000000000E+00 0. -1.
         22    1    3    3    0    0  0.65928426455E+02 -0.65662744608E+02  0.19646950995E+03  0.21739002227E+03  0.00000000000E+00 0. -1.
         22    1    3    3    0    0  0.51047772723E+01  0.50460666310E+02  0.83185454073E+02  0.97427703271E+02  0.00000000000E+00 0. -1.
</event>
<event>
 7    1  0.6330892E-006  0.1149016E+03  0.7818608E-02  0.1432674E+00
          2   -1    0    0  502    0  0.00000000000E+00  0.00000000000E+00  0.19755329670E+03  0.19755329670E+03  0.00000000000E+00 0. -1.
          1   -1    0    0  501    0 -0.00000000000E+00 -0.00000000000E+00 -0.58046428997E+03  0.58046428997E+03  0.00000000000E+00 0. -1.
         25    2    1    2    0    0  0.84812269605E+02 -0.10356876025E+03  0.82401223839E+02  0.20084229518E+03  0.12501222608E+03 0.  0.
          2    1    1    2  501    0 -0.62252130783E+02  0.95615017098E+02 -0.51208445869E+03  0.52464087919E+03  0.00000000000E+00 0. -1.
          1    1    1    2  502    0 -0.22560138823E+02  0.79537431508E+01  0.46772241576E+02  0.52534412301E+02  0.00000000000E+00 0. -1.
         22    1    3    3    0    0  0.20782971742E+02  0.91196609841E+01 -0.24089096129E+02  0.33096596248E+02  0.00000000000E+00 0.  1.
         22    1    3    3    0    0  0.64029297864E+02 -0.11268842123E+03  0.10649031997E+03  0.16774569894E+03  0.00000000000E+00 0.  1.
</event>
<event>
 7    1  0.6330892E-006  0.8057472E+02  0.7818608E-02  0.1462795E+00
          2   -1    0    0  502    0  0.00000000000E+00  0.00000000000E+00  0.27700880908E+03  0.27700880908E+03  0.00000000000E+00 0. -1.
          1   -1    0    0  501    0 -0.00000000000E+00 -0.00000000000E+00 -0.34702154790E+03  0.34702154790E+03  0.00000000000E+00 0. -1.
         25    2    1    2    0    0 -0.95680231523E+02 -0.33541585884E+02  0.40053464291E+02  0.16585684042E+03  0.12499786727E+03 0.  0.
          2    1    1    2  501    0  0.69033032539E+02  0.39491235082E+02 -0.27742630724E+03  0.28860088908E+03  0.00000000000E+00 0. -1.
          1    1    1    2  502    0  0.26647198984E+02 -0.59496491981E+01  0.16736010412E+03  0.16957262748E+03  0.00000000000E+00 0. -1.
         22    1    3    3    0    0 -0.60993425396E+01  0.35842385329E+02  0.37911703918E+02  0.52527857937E+02  0.00000000000E+00 0. -1.
         22    1    3    3    0    0 -0.89580888983E+02 -0.69383971213E+02  0.21417603728E+01  0.11332898248E+03  0.00000000000E+00 0. -1.
</event>
<event>
 7    1  0.6330892E-006  0.6006355E+02  0.7818608E-02  0.1419653E+00
          2   -1    0    0  502    0  0.00000000000E+00  0.00000000000E+00  0.31743819890E+03  0.31743819890E+03  0.00000000000E+00 0. -1.
          1   -1    0    0  501    0 -0.00000000000E+00 -0.00000000000E+00 -0.18051574814E+04  0.18051574814E+04  0.00000000000E+00 0. -1.
         25    2    1    2    0    0 -0.42142854958E+02 -0.66477339877E+02 -0.20218285639E+03  0.25039755417E+03  0.12500308307E+03 0.  0.
          2    1    1    2  501    0  0.57208208318E+02  0.18238663106E+02 -0.15761146802E+04  0.15772580363E+04  0.00000000000E+00 0. -1.
          1    1    1    2  502    0 -0.15065353360E+02  0.48238676771E+02  0.29057825411E+03  0.29494008980E+03  0.00000000000E+00 0. -1.
         22    1    3    3    0    0 -0.24896320740E+02 -0.10365640230E+03 -0.15067533891E+03  0.18457392633E+03  0.00000000000E+00 0.  1.
         22    1    3    3    0    0 -0.17246534218E+02  0.37179062426E+02 -0.51507517475E+02  0.65823627839E+02  0.00000000000E+00 0.  1.
</event>
<event>
 7    1  0.6330892E-006  0.8302595E+02  0.7818608E-02  0.1411568E+00
          2   -1    0    0  502    0  0.00000000000E+00  0.00000000000E+00  0.16488769973E+04  0.16488769973E+04  0.00000000000E+00 0. -1.
          1   -1    0    0  501    0 -0.00000000000E+00 -0.00000000000E+00 -0.30181387570E+03  0.30181387570E+03  0.00000000000E+00 0. -1.
         25    2    1    2    0    0  0.57148382996E+02 -0.91747757797E+01 -0.56251150494E+02  0.14879019007E+03  0.12499685812E+03 0.  0.
          2    1    1    2  501    0  0.23227289448E+02  0.31229678170E+02 -0.19629764482E+03  0.20011887751E+03  0.00000000000E+00 0. -1.
          1    1    1    2  502    0 -0.80375672444E+02 -0.22054902390E+02  0.15996119169E+04  0.16017818054E+04  0.00000000000E+00 0. -1.
         22    1    3    3    0    0  0.31730893323E+02  0.75118156659E+01 -0.94477350577E+02  0.99946219226E+02  0.00000000000E+00 0.  1.
         22    1    3    3    0    0  0.25417489673E+02 -0.16686591446E+02  0.38226200082E+02  0.48843970847E+02  0.00000000000E+00 0.  1.
</event>
<event>
 7    1  0.6330892E-006  0.5300601E+02  0.7818608E-02  0.1514923E+00
          2   -1    0    0  502    0  0.00000000000E+00  0.00000000000E+00  0.73136847424E+03  0.73136847424E+03  0.00000000000E+00 0. -1.
          1   -1    0    0  501    0 -0.00000000000E+00 -0.00000000000E+00 -0.30556201962E+03  0.30556201962E+03  0.00000000000E+00 0. -1.
         25    2    1    2    0    0 -0.52549809287E+02  0.11472557027E+02  0.16889518388E+03  0.21689427869E+03  0.12499777186E+03 0.  0.
          2    1    1    2  501    0  0.50206640570E+02  0.17277733838E+02 -0.27866770259E+03  0.28368100978E+03  0.00000000000E+00 0. -1.
          1    1    1    2  502    0  0.23431687162E+01 -0.28750290865E+02  0.53557897333E+03  0.53635520538E+03  0.00000000000E+00 0. -1.
         22    1    3    3    0    0 -0.93776776993E+02  0.40123988353E+01  0.10974996072E+03  0.14441342433E+03  0.00000000000E+00 0. -1.
         22    1    3    3    0    0  0.41226967707E+02  0.74601581913E+01  0.59145223154E+02  0.72480854358E+02  0.00000000000E+00 0. -1.
</event>
<event>
 7    1  0.6330892E-006  0.4992552E+02  0.7818608E-02  0.1467118E+00
          2   -1    0    0  502    0  0.00000000000E+00  0.00000000000E+00  0.42586368140E+03  0.42586368140E+03  0.00000000000E+00 0. -1.
          1   -1    0    0  501    0 -0.00000000000E+00 -0.00000000000E+00 -0.12347767022E+04  0.12347767022E+04  0.00000000000E+00 0. -1.
         25    2    1    2    0    0  0.34005615212E+02 -0.54429410606E+01  0.29587663730E+03  0.32303712170E+03  0.12499596002E+03 0.  0.
          2    1    1    2  501    0  0.84960401096E+01 -0.41858404307E+02 -0.12121075076E+04  0.12128598099E+04  0.00000000000E+00 0. -1.
          1    1    1    2  502    0 -0.42501655322E+02  0.47301345367E+02  0.10731784948E+03  0.12474345192E+03  0.00000000000E+00 0. -1.
         22    1    3    3    0    0  0.75367939174E+02  0.70760850369E+01  0.11962355475E+03  0.14156338540E+03  0.00000000000E+00 0.  1.
         22    1    3    3    0    0 -0.41362323962E+02 -0.12519026097E+02  0.17625308256E+03  0.18147373631E+03  0.00000000000E+00 0.  1.
</event>
<event>
 7    1  0.6330892E-006  0.1076766E+03  0.7818608E-02  0.1372454E+00
          2   -1    0    0  502    0  0.00000000000E+00  0.00000000000E+00  0.16521116683E+03  0.16521116683E+03  0.00000000000E+00 0. -1.
          1   -1    0    0  501    0 -0.00000000000E+00 -0.00000000000E+00 -0.10635535265E+04  0.10635535265E+04  0.00000000000E+00 0. -1.
         25    2    1    2    0    0  0.10675493184E+03 -0.57839056475E+02 -0.31135796837E+03  0.35680703769E+03  0.12500202299E+03 0.  0.
          2    1    1    2  501    0 -0.71420111985E+02  0.78746460119E+02 -0.72254092048E+03  0.73031994301E+03  0.00000000000E+00 0. -1.
          1    1    1    2  502    0 -0.35334819852E+02 -0.20907403644E+02  0.13555652921E+03  0.14163771260E+03  0.00000000000E+00 0. -1.
         22    1    3    3    0    0  0.72852161759E+02 -0.97353985566E+02 -0.23117004742E+03  0.26119882619E+03  0.00000000000E+00 0. -1.
         22    1    3    3    0    0  0.33902770077E+02  0.39514929091E+02 -0.80187920950E+02  0.95608211500E+02  0.00000000000E+00 0. -1.
</event>
<event>
 7    1  0.6330892E-006  0.5941860E+03  0.7818608E-02  0.1165585E+00
          2   -1    0    0  502    0  0.00000000000E+00  0.00000000000E+00  0.14260395483E+04  0.14260395483E+04  0.00000000000E+00 0. -1.
          1   -1    0    0  501    0 -0.00000000000E+00 -0.00000000000E+00 -0.77635399235E+03  0.77635399235E+03  0.00000000000E+00 0. -1.
         25    2    1    2    0    0 -0.55485855684E+03 -0.45500709226E+02  0.20032701936E+03  0.60472543593E+03  0.12499442201E+03 0.  0.
          2    1    1    2  501    0 -0.53008314074E+02 -0.17864517881E+02 -0.48115568934E+03  0.48439634572E+03  0.00000000000E+00 0. -1.
          1    1    1    2  502    0  0.60786687092E+03  0.63365227107E+02  0.93051422597E+03  0.11132717591E+04  0.00000000000E+00 0. -1.
         22    1    3    3    0    0 -0.23052849011E+03  0.38161484297E+02  0.57753674281E+02  0.24069725909E+03  0.00000000000E+00 0. -1.
         22    1    3    3    0    0 -0.32433006673E+03 -0.83662193523E+02  0.14257334508E+03  0.36402817684E+03  0.00000000000E+00 0. -1.
</event>
<event>
 7    1  0.6330892E-006  0.8692691E+02  0.7818608E-02  0.1401912E+00
          2   -1    0    0  502    0  0.00000000000E+00  0.00000000000E+00  0.13647997862E+04  0.13647997862E+04  0.00000000000E+00 0. -1.
          1   -1    0    0  501    0 -0.00000000000E+00 -0.00000000000E+00 -0.10012297004E+03  0.10012297004E+03  0.00000000000E+00 0. -1.
         25    2    1    2    0    0 -0.27371082718E+02  0.93653049717E+02  0.16077201260E+03  0.22581517042E+03  0.12499912507E+03 0.  0.
          2    1    1    2  501    0  0.56159906325E+02 -0.65742728601E+02 -0.39457956939E+02  0.95041947623E+02  0.00000000000E+00 0. -1.
          1    1    1    2  502    0 -0.28788823606E+02 -0.27910321116E+02  0.11433627606E+04  0.11440656382E+04  0.00000000000E+00 0. -1.
         22    1    3    3    0    0 -0.14117948948E+02  0.11150516961E+03  0.16826666666E+03  0.20235214464E+03  0.00000000000E+00 0. -1.
         22    1    3    3    0    0 -0.13253133771E+02 -0.17852119891E+02 -0.74946540617E+01  0.23463025782E+02  0.00000000000E+00 0. -1.
</event>
<event>
 7    1  0.6330892E-006  0.8711540E+02  0.7818608E-02  0.1357942E+00
          2   -1    0    0  502    0  0.00000000000E+00  0.00000000000E+00  0.31626839161E+04  0.31626839161E+04  0.00000000000E+00 0. -1.
          1   -1    0    0  501    0 -0.00000000000E+00 -0.00000000000E+00 -0.17490668471E+03  0.17490668471E+03  0.00000000000E+00 0. -1.
         25    2    1    2    0    0 -0.11847366923E+03 -0.13856895010E+02  0.51613497566E+02  0.18033190525E+03  0.12501047589E+03 0.  0.
          2    1    1    2  501    0  0.36875424333E+02  0.43824899180E+02 -0.10246539531E+03  0.11738643850E+03  0.00000000000E+00 0. -1.
          1    1    1    2  502    0  0.81598244896E+02 -0.29968004170E+02  0.30386291291E+04  0.30398722571E+04  0.00000000000E+00 0. -1.
         22    1    3    3    0    0 -0.92742729038E+02  0.43055756344E+02  0.49555547556E+01  0.10236976832E+03  0.00000000000E+00 0.  1.
         22    1    3    3    0    0 -0.25730940191E+02 -0.56912651354E+02  0.46657942810E+02  0.77962136929E+02  0.00000000000E+00 0.  1.
</event>
<event>
 7    1  0.6330892E-006  0.7025426E+02  0.7818608E-02  0.1453102E+00
          2   -1    0    0  502    0  0.00000000000E+00  0.00000000000E+00  0.27831092813E+03  0.27831092813E+03  0.00000000000E+00 0. -1.
          1   -1    0    0  501    0 -0.00000000000E+00 -0.00000000000E+00 -0.17306470036E+04  0.17306470036E+04  0.00000000000E+00 0. -1.
         25    2    1    2    0    0  0.41297545025E+02  0.49969396173E+02  0.41750955410E+00  0.14076375406E+03  0.12494731836E+03 0.  0.
          2    1    1    2  501    0 -0.13640587231E+02 -0.69059189025E+02 -0.16583631144E+04  0.16598564566E+04  0.00000000000E+00 0. -1.
          1    1    1    2  502    0 -0.27656957794E+02  0.19089792852E+02  0.20560952932E+03  0.20833772115E+03  0.00000000000E+00 0. -1.
         22    1    3    3    0    0  0.61525040935E+02  0.73659171160E+02 -0.26531674039E+02  0.99573761029E+02  0.00000000000E+00 0. -1.
         22    1    3    3    0    0 -0.20227495910E+02 -0.23689774987E+02  0.26949183593E+02  0.41189993033E+02  0.00000000000E+00 0. -1.
</event>
<event>
 7    1  0.6330892E-006  0.9344460E+02  0.7818608E-02  0.1296874E+00
          2   -1    0    0  502    0  0.00000000000E+00  0.00000000000E+00  0.25312891680E+04  0.25312891680E+04  0.00000000000E+00 0. -1.
          1   -1    0    0  501    0 -0.00000000000E+00 -0.00000000000E+00 -0.37452312014E+03  0.37452312014E+03  0.00000000000E+00 0. -1.
         25    2    1    2    0    0  0.61269702512E+01  0.56920925908E+01 -0.33072410059E+02  0.12956910462E+03  0.12499771551E+03 0.  0.
          2    1    1    2  501    0  0.79623640898E+02 -0.45271898682E+02 -0.28512634412E+03  0.29947704605E+03  0.00000000000E+00 0. -1.
          1    1    1    2  502    0 -0.85750611150E+02  0.39579806091E+02  0.24749648020E+04  0.24767661375E+04  0.00000000000E+00 0. -1.
         22    1    3    3    0    0  0.20223271435E+02 -0.30431946857E+02 -0.68119919351E+02  0.77300760084E+02  0.00000000000E+00 0.  1.
         22    1    3    3    0    0 -0.14096301184E+02  0.36124039448E+02  0.35047509293E+02  0.52268344538E+02  0.00000000000E+00 0.  1.
</event>
<event>
 7    1  0.6330892E-006  0.2254475E+03  0.7818608E-02  0.1233090E+00
          2   -1    0    0  502    0  0.00000000000E+00  0.00000000000E+00  0.19919194248E+03  0.19919194248E+03  0.00000000000E+00 0. -1.
          1   -1    0    0  501    0 -0.00000000000E+00 -0.00000000000E+00 -0.81802392158E+03  0.81802392158E+03  0.00000000000E+00 0. -1.
         25    2    1    2    0    0 -0.86147269947E+02  0.20713300703E+03 -0.64219474982E+02  0.26471436337E+03  0.12499647390E+03 0.  0.
          2    1    1    2  501    0  0.66732922779E+02  0.23432857878E+02 -0.51245223788E+03  0.51731004042E+03  0.00000000000E+00 0. -1.
          1    1    1    2  502    0  0.19414347168E+02 -0.23056586491E+03 -0.42160266242E+02  0.23519146027E+03  0.00000000000E+00 0. -1.
         22    1    3    3    0    0  0.30442495866E+02  0.46371755135E+02 -0.30436511261E+02  0.63272951935E+02  0.00000000000E+00 0. -1.
         22    1    3    3    0    0 -0.11658976581E+03  0.16076125189E+03 -0.33782963722E+02  0.20144141143E+03  0.00000000000E+00 0. -1.
</event>
<event>
 7    1  0.6330892E-006  0.1317385E+03  0.7818608E-02  0.1303620E+00
          2   -1    0    0  502    0  0.00000000000E+00  0.00000000000E+00  0.48937262373E+03  0.48937262373E+03  0.00000000000E+00 0. -1.
          1   -1    0    0  501    0 -0.00000000000E+00 -0.00000000000E+00 -0.16671581084E+03  0.16671581084E+03  0.00000000000E+00 0. -1.
         25    2    1    2    0    0 -0.81683539836E+02  0.12642157482E+03  0.27239411810E+03  0.33537796211E+03  0.12500082652E+03 0.  0.
          2    1    1    2  501    0 -0.20730303278E+02 -0.57426331798E+02 -0.10552689377E+03  0.12191576750E+03  0.00000000000E+00 0. -1.
          1    1    1    2  502    0  0.10241384311E+03 -0.68995243024E+02  0.15578958855E+03  0.19879470496E+03  0.00000000000E+00 0. -1.
         22    1    3    3    0    0  0.27509401676E+02  0.61154269971E+02  0.75676189686E+02  0.10111131293E+03  0.00000000000E+00 0.  1.
         22    1    3    3    0    0 -0.10919294151E+03  0.65267304850E+02  0.19671792841E+03  0.23426664918E+03  0.00000000000E+00 0.  1.
</event>
<event>
 7    1  0.6330892E-006  0.5333553E+02  0.7818608E-02  0.1492636E+00
          2   -1    0    0  502    0  0.00000000000E+00  0.00000000000E+00  0.31464925223E+03  0.31464925223E+03  0.00000000000E+00 0. -1.
          1   -1    0    0  501    0 -0.00000000000E+00 -0.00000000000E+00 -0.27562238300E+03  0.27562238300E+03  0.00000000000E+00 0. -1.
         25    2    1    2    0    0 -0.11980494689E+02 -0.80717942768E+02  0.15925894648E+03  0.21827761861E+03  0.12499115254E+03 0.  0.
          2    1    1    2  501    0  0.96459712622E+01  0.31961461087E+02 -0.24018271701E+03  0.24249189122E+03  0.00000000000E+00 0. -1.
          1    1    1    2  502    0  0.23345234266E+01  0.48756481680E+02  0.11995063975E+03  0.12950212540E+03  0.00000000000E+00 0. -1.
         22    1    3    3    0    0 -0.23519797430E+02  0.29207473083E+02  0.28746651907E+02  0.47250686247E+02  0.00000000000E+00 0.  1.
         22    1    3    3    0    0  0.11539302741E+02 -0.10992541585E+03  0.13051229458E+03  0.17102693236E+03  0.00000000000E+00 0.  1.
</event>
<event>
 7    1  0.6330892E-006  0.7369333E+02  0.7818608E-02  0.1420821E+00
          2   -1    0    0  502    0  0.00000000000E+00  0.00000000000E+00  0.37703470194E+03  0.37703470194E+03  0.00000000000E+00 0. -1.
          1   -1    0    0  501    0 -0.00000000000E+00 -0.00000000000E+00 -0.51304040725E+02  0.51304040725E+02  0.00000000000E+00 0. -1.
         25    2    1    2    0    0  0.43666611398E+02  0.36041100142E+02  0.15769951044E+03  0.20904553501E+03  0.12500066506E+03 0.  0.
          2    1    1    2  501    0 -0.80725816880E+02 -0.18923915668E+02  0.55992671813E+02  0.10004974459E+03  0.00000000000E+00 0. -1.
          1    1    1    2  502    0  0.37059205482E+02 -0.17117184474E+02  0.11203847896E+03  0.11924346306E+03  0.00000000000E+00 0. -1.
         22    1    3    3    0    0  0.46745373890E+02  0.88497307122E+01 -0.14132785689E+01  0.47596691798E+02  0.00000000000E+00 0.  1.
         22    1    3    3    0    0 -0.30787624919E+01  0.27191369430E+02  0.15911278901E+03  0.16144884322E+03  0.00000000000E+00 0.  1.
</event>
<event>
 7    1  0.6330892E-006  0.6826585E+02  0.7818608E-02  0.1366619E+00
          2   -1    0    0  502    0  0.00000000000E+00  0.00000000000E+00  0.43715957897E+03  0.43715957897E+03  0.00000000000E+00 0. -1.
          1   -1    0    0  501    0 -0.00000000000E+00 -0.00000000000E+00 -0.71531770411E+02  0.71531770411E+02  0.00000000000E+00 0. -1.
         25    2    1    2    0    0  0.10975150957E+02 -0.56253508677E+01  0.31735329001E+03  0.34130625350E+03  0.12499899796E+03 0.  0.
          2    1    1    2  501    0 -0.81826493344E+01  0.73534761575E+02 -0.13885113612E+02  0.75280231735E+02  0.00000000000E+00 0. -1.
          1    1    1    2  502    0 -0.27925016224E+01 -0.67909410708E+02  0.62159632164E+02  0.92104864142E+02  0.00000000000E+00 0. -1.
         22    1    3    3    0    0  0.26616477730E+02  0.47224458170E+02  0.73654360829E+02  0.91452453249E+02  0.00000000000E+00 0. -1.
         22    1    3    3    0    0 -0.15641326773E+02 -0.52849809037E+02  0.24369892918E+03  0.24985380025E+03  0.00000000000E+00 0. -1.
</event>
<event>
 7    1  0.6330892E-006  0.3715067E+02  0.7818608E-02  0.1530748E+00
          2   -1    0    0  502    0  0.00000000000E+00  0.00000000000E+00  0.30525696621E+03  0.30525696621E+03  0.00000000000E+00 0. -1.
          1   -1    0    0  501    0 -0.00000000000E+00 -0.00000000000E+00 -0.74003356333E+03  0.74003356333E+03  0.00000000000E+00 0. -1.
         25    2    1    2    0    0 -0.14661314290E+02  0.44861448906E+02 -0.17745237996E+03  0.22213141604E+03  0.12500206040E+03 0.  0.
          2    1    1    2  501    0 -0.19916227312E+02 -0.31584529717E+02 -0.53837997736E+03  0.53967327028E+03  0.00000000000E+00 0. -1.
          1    1    1    2  502    0  0.34577541603E+02 -0.13276919188E+02  0.28105576020E+03  0.28348584322E+03  0.00000000000E+00 0. -1.
         22    1    3    3    0    0  0.28901271331E+02  0.59950934943E+02 -0.15919312658E+03  0.17254521041E+03  0.00000000000E+00 0. -1.
         22    1    3    3    0    0 -0.43562585622E+02 -0.15089486037E+02 -0.18259253378E+02  0.49586205630E+02  0.00000000000E+00 0. -1.
</event>
<event>
 7    1  0.6330892E-006  0.7193020E+02  0.7818608E-02  0.1493320E+00
          2   -1    0    0  502    0  0.00000000000E+00  0.00000000000E+00  0.20123835264E+03  0.20123835264E+03  0.00000000000E+00 0. -1.
          1   -1    0    0  501    0 -0.00000000000E+00 -0.00000000000E+00 -0.16443362298E+03  0.16443362298E+03  0.00000000000E+00 0. -1.
         25    2    1    2    0    0 -0.48272508687E+02  0.16928568071E+02  0.29210735383E+01  0.13509533144E+03  0.12500161756E+03 0.  0.
          2    1    1    2  501    0 -0.20842664781E+02  0.13137893054E+02 -0.85728057877E+02  0.89198210836E+02  0.00000000000E+00 0. -1.
          1    1    1    2  502    0  0.69115173469E+02 -0.30066461125E+02  0.11961171401E+03  0.14137843335E+03  0.00000000000E+00 0. -1.
         22    1    3    3    0    0 -0.73414752227E+02 -0.24275640335E+02 -0.22513380972E+02  0.80534991656E+02  0.00000000000E+00 0. -1.
         22    1    3    3    0    0  0.25142243540E+02  0.41204208407E+02  0.25434454510E+02  0.54560339780E+02  0.00000000000E+00 0. -1.
</event>
<event>
 7    1  0.6330892E-006  0.1640589E+03  0.7818608E-02  0.1339025E+00
          2   -1    0    0  502    0  0.00000000000E+00  0.00000000000E+00  0.12007219946E+04  0.12007219946E+04  0.00000000000E+00 0. -1.
          1   -1    0    0  501    0 -0.00000000000E+00 -0.00000000000E+00 -0.12438112010E+03  0.12438112010E+03  0.00000000000E+00 0. -1.
         25    2    1    2    0    0 -0.13793631526E+03  0.30194015240E+02  0.41305307823E+03  0.45406533396E+03  0.12499750573E+03 0.  0.
          2    1    1    2  501    0  0.15651083430E+03 -0.60743381462E+02 -0.35283061647E+02  0.17155259859E+03  0.00000000000E+00 0. -1.
          1    1    1    2  502    0 -0.18574519042E+02  0.30549366222E+02  0.69857085792E+03  0.69948518217E+03  0.00000000000E+00 0. -1.
         22    1    3    3    0    0 -0.13870736095E+03 -0.16387013956E+02  0.33809612501E+03  0.36581040985E+03  0.00000000000E+00 0.  1.
         22    1    3    3    0    0  0.77104569105E+00  0.46581029197E+02  0.74956953220E+02  0.88254924103E+02  0.00000000000E+00 0.  1.
</event>
<event>
 7    1  0.6330892E-006  0.1122318E+03  0.7818608E-02  0.1283803E+00
          2   -1    0    0  502    0  0.00000000000E+00  0.00000000000E+00  0.11784453329E+04  0.11784453329E+04  0.00000000000E+00 0. -1.
          1   -1    0    0  501    0 -0.00000000000E+00 -0.00000000000E+00 -0.34167584671E+03  0.34167584671E+03  0.00000000000E+00 0. -1.
         25    2    1    2    0    0 -0.16527963631E+03  0.10807108648E+02  0.41991310492E+03  0.46838641643E+03  0.12499867054E+03 0.  0.
          2    1    1    2  501    0  0.10117858206E+03  0.46804543973E+02 -0.30500857259E+03  0.32474297554E+03  0.00000000000E+00 0. -1.
          1    1    1    2  502    0  0.64101054248E+02 -0.57611652621E+02  0.72186495388E+03  0.72699178765E+03  0.00000000000E+00 0. -1.
         22    1    3    3    0    0 -0.14183625055E+02  0.24724120438E+02  0.19502071345E+03  0.19709270921E+03  0.00000000000E+00 0. -1.
         22    1    3    3    0    0 -0.15109601125E+03 -0.13917011790E+02  0.22489239147E+03  0.27129370722E+03  0.00000000000E+00 0. -1.
</event>
<event>
 7    1  0.6330892E-006  0.1583832E+03  0.7818608E-02  0.1289580E+00
          2   -1    0    0  502    0  0.00000000000E+00  0.00000000000E+00  0.14070964728E+03  0.14070964728E+03  0.00000000000E+00 0. -1.
          1   -1    0    0  501    0 -0.00000000000E+00 -0.00000000000E+00 -0.10441969179E+04  0.10441969179E+04  0.00000000000E+00 0. -1.
         25    2    1    2    0    0 -0.68772852809E+02 -0.15576120314E+03 -0.34502918912E+03  0.40455113872E+03  0.12500089922E+03 0.  0.
          2    1    1    2  501    0  0.57812848883E+02 -0.17606590807E+01 -0.61115932587E+03  0.61389017504E+03  0.00000000000E+00 0. -1.
          1    1    1    2  502    0  0.10960003926E+02  0.15752186222E+03  0.52701244396E+02  0.16646525140E+03  0.00000000000E+00 0. -1.
         22    1    3    3    0    0  0.19141384252E+02 -0.75978102738E+02 -0.21321375670E+03  0.22715450850E+03  0.00000000000E+00 0. -1.
         22    1    3    3    0    0 -0.87914237061E+02 -0.79783100399E+02 -0.13181543243E+03  0.17739663022E+03  0.00000000000E+00 0. -1.
</event>
<event>
 7    1  0.6330892E-006  0.7166765E+02  0.7818608E-02  0.1485342E+00
          2   -1    0    0  502    0  0.00000000000E+00  0.00000000000E+00  0.34597267394E+04  0.34597267394E+04  0.00000000000E+00 0. -1.
          1   -1    0    0  501    0 -0.00000000000E+00 -0.00000000000E+00 -0.76535370680E+02  0.76535370680E+02  0.00000000000E+00 0. -1.
         25    2    1    2    0    0 -0.89694332449E+02 -0.77907854050E+00  0.11605370197E+04  0.11706906241E+04  0.12499873251E+03 0.  0.
          2    1    1    2  501    0  0.21239403910E+02  0.15242304338E+02 -0.68515509158E+02  0.73333587906E+02  0.00000000000E+00 0. -1.
          1    1    1    2  502    0  0.68454928539E+02 -0.14463225798E+02  0.22911698582E+04  0.22922378981E+04  0.00000000000E+00 0. -1.
         22    1    3    3    0    0 -0.10105748134E+03 -0.28247015966E+01  0.11517575101E+04  0.11561859519E+04  0.00000000000E+00 0.  1.
         22    1    3    3    0    0  0.11363148894E+02  0.20456230561E+01  0.87795096489E+01  0.14504672218E+02  0.00000000000E+00 0.  1.
</event>
<event>
 7    1  0.6330892E-006  0.5353811E+02  0.7818608E-02  0.1540024E+00
          2   -1    0    0  502    0  0.00000000000E+00  0.00000000000E+00  0.16713044728E+04  0.16713044728E+04  0.00000000000E+00 0. -1.
          1   -1    0    0  501    0 -0.00000000000E+00 -0.00000000000E+00 -0.32264676471E+03  0.32264676471E+03  0.00000000000E+00 0. -1.
         25    2    1    2    0    0  0.11466749613E+02  0.27766512473E+02  0.21811027988E+03  0.25317911837E+03  0.12500042492E+03 0.  0.
          2    1    1    2  501    0  0.97335548690E+01  0.22141841286E+02 -0.30412002249E+03  0.30508030304E+03  0.00000000000E+00 0. -1.
          1    1    1    2  502    0 -0.21200304482E+02 -0.49908353760E+02  0.14346674507E+04  0.14356918161E+04  0.00000000000E+00 0. -1.
         22    1    3    3    0    0  0.67370716732E+02  0.11349077118E+02  0.95418245432E+02  0.11735525802E+03  0.00000000000E+00 0.  1.
         22    1    3    3    0    0 -0.55903967119E+02  0.16417435356E+02  0.12269203445E+03  0.13582386035E+03  0.00000000000E+00 0.  1.
</event>
<event>
 7    1  0.6330892E-006  0.1909441E+03  0.7818608E-02  0.1321300E+00
          2   -1    0    0  502    0  0.00000000000E+00  0.00000000000E+00  0.13682145841E+04  0.13682145841E+04  0.00000000000E+00 0. -1.
          1   -1    0    0  501    0 -0.00000000000E+00 -0.00000000000E+00 -0.45004412960E+03  0.45004412960E+03  0.00000000000E+00 0. -1.
         25    2    1    2    0    0  0.63537980716E+02 -0.20529030895E+03 -0.12630851717E+03  0.27885487782E+03  0.12500006173E+03 0.  0.
          2    1    1    2  501    0 -0.43853505913E+02  0.17526677737E+03 -0.21419604848E+03  0.28021691672E+03  0.00000000000E+00 0. -1.
          1    1    1    2  502    0 -0.19684474803E+02  0.30023531575E+02  0.12586750202E+04  0.12591869191E+04  0.00000000000E+00 0. -1.
         22    1    3    3    0    0  0.31864846865E+02 -0.37400896768E+02 -0.92429002747E+02  0.10467719949E+03  0.00000000000E+00 0. -1.
         22    1    3    3    0    0  0.31673133852E+02 -0.16788941218E+03 -0.33879514423E+02  0.17417767833E+03  0.00000000000E+00 0. -1.
</event>
<event>
 7    1  0.6330892E-006  0.4577912E+02  0.7818608E-02  0.1478799E+00
          2   -1    0    0  502    0  0.00000000000E+00  0.00000000000E+00  0.28755959079E+03  0.28755959079E+03  0.00000000000E+00 0. -1.
          1   -1    0    0  501    0 -0.00000000000E+00 -0.00000000000E+00 -0.85126827662E+03  0.85126827662E+03  0.00000000000E+00 0. -1.
         25    2    1    2    0    0  0.18551599311E+02  0.79937226943E+02  0.68447244621E+01  0.14969747881E+03  0.12501345056E+03 0.  0.
          2    1    1    2  501    0 -0.23942929948E+02 -0.35544689748E+02 -0.77685575862E+03  0.77803699049E+03  0.00000000000E+00 0. -1.
          1    1    1    2  502    0  0.53913306367E+01 -0.44392537194E+02  0.20630234832E+03  0.21109339812E+03  0.00000000000E+00 0. -1.
         22    1    3    3    0    0  0.25649564818E+02  0.92575522297E+02  0.47044623457E+02  0.10696412529E+03  0.00000000000E+00 0.  1.
         22    1    3    3    0    0 -0.70979655062E+01 -0.12638295354E+02 -0.40199898995E+02  0.42733353519E+02  0.00000000000E+00 0.  1.
</event>
<event>
 7    1  0.9049762E-006  0.9702856E+02  0.7818608E-02  0.1425422E+00
          2   -1    0    0  502    0  0.00000000000E+00  0.00000000000E+00  0.16267406858E+04  0.16267406858E+04  0.00000000000E+00 0. -1.
          1   -1    0    0  501    0 -0.00000000000E+00 -0.00000000000E+00 -0.15503573674E+04  0.15503573674E+04  0.00000000000E+00 0. -1.
         25    2    1    2    0    0  0.21539288021E+02  0.12014676600E+03 -0.22020488955E+03  0.28109527951E+03  0.12500070589E+03 0.  0.
          2    1    1    2  501    0 -0.18792067312E+02 -0.23296134908E+02 -0.12980643956E+04  0.12984094219E+04  0.00000000000E+00 0. -1.
          1    1    1    2  502    0 -0.27472207087E+01 -0.96850631093E+02  0.15946526035E+04  0.15975933519E+04  0.00000000000E+00 0. -1.
         22    1    3    3    0    0 -0.31557246662E+02  0.11691005836E+03 -0.16179296228E+03  0.20209102950E+03  0.00000000000E+00 0.  1.
         22    1    3    3    0    0  0.53096534683E+02  0.32367076420E+01 -0.58411927266E+02  0.79004250003E+02  0.00000000000E+00 0.  1.
</event>
<event>
 7    1  0.6330892E-006  0.1050599E+03  0.7818608E-02  0.1411365E+00
          2   -1    0    0  502    0  0.00000000000E+00  0.00000000000E+00  0.36989949612E+03  0.36989949612E+03  0.00000000000E+00 0. -1.
          1   -1    0    0  501    0 -0.00000000000E+00 -0.00000000000E+00 -0.59351624253E+03  0.59351624253E+03  0.00000000000E+00 0. -1.
         25    2    1    2    0    0 -0.64474073974E+02 -0.39735426291E+02 -0.21515379462E+03  0.26009989172E+03  0.12499995207E+03 0.  0.
          2    1    1    2  501    0 -0.22308658389E+02 -0.21245228050E+02 -0.34709610467E+03  0.34846053124E+03  0.00000000000E+00 0. -1.
          1    1    1    2  502    0  0.86782732363E+02  0.60980654341E+02  0.33863315288E+03  0.35485531568E+03  0.00000000000E+00 0. -1.
         22    1    3    3    0    0 -0.10070551789E+03 -0.22171954644E+02 -0.13020497358E+03  0.16609193855E+03  0.00000000000E+00 0. -1.
         22    1    3    3    0    0  0.36231443912E+02 -0.17563471648E+02 -0.84948821035E+02  0.94007953172E+02  0.00000000000E+00 0. -1.
</event>
<event>
 7    1  0.6330892E-006  0.9928599E+02  0.7818608E-02  0.1359675E+00
          2   -1    0    0  502    0  0.00000000000E+00  0.00000000000E+00  0.11606172144E+04  0.11606172144E+04  0.00000000000E+00 0. -1.
          1   -1    0    0  501    0 -0.00000000000E+00 -0.00000000000E+00 -0.10441713152E+04  0.10441713152E+04  0.00000000000E+00 0. -1.
         25    2    1    2    0    0 -0.90609392703E+02  0.44283861777E+02  0.16522083626E+03  0.23042008727E+03  0.12499747767E+03 0.  0.
          2    1    1    2  501    0  0.32616992290E+02  0.37269024007E+02 -0.10083620516E+04  0.10095775727E+04  0.00000000000E+00 0. -1.
          1    1    1    2  502    0  0.57992400412E+02 -0.81552885784E+02  0.95958711447E+03  0.96479086954E+03  0.00000000000E+00 0. -1.
         22    1    3    3    0    0 -0.53841625082E+02  0.83414238937E+02  0.71290488740E+02  0.12222597774E+03  0.00000000000E+00 0.  1.
         22    1    3    3    0    0 -0.36767767620E+02 -0.39130377160E+02  0.93930347525E+02  0.10819410954E+03  0.00000000000E+00 0.  1.
</event>
<event>
 7    1  0.6330892E-006  0.1180394E+03  0.7818608E-02  0.1265048E+00
          2   -1    0    0  502    0  0.00000000000E+00  0.00000000000E+00  0.15761196277E+04  0.15761196277E+04  0.00000000000E+00 0. -1.
          1   -1    0    0  501    0 -0.00000000000E+00 -0.00000000000E+00 -0.13108408686E+04  0.13108408686E+04  0.00000000000E+00 0. -1.
         25    2    1    2    0    0 -0.11168535222E+03  0.14637775862E+03  0.96146103359E+02  0.24240958264E+03  0.12497306288E+03 0.  0.
          2    1    1    2  501    0  0.10686400220E+03 -0.48381848538E+02 -0.12332117621E+04  0.12387784178E+04  0.00000000000E+00 0. -1.
          1    1    1    2  502    0  0.48213500172E+01 -0.97995910087E+02  0.14023444179E+04  0.14057724959E+04  0.00000000000E+00 0. -1.
         22    1    3    3    0    0 -0.15558162370E+02  0.57419812843E+01 -0.27363675594E+02  0.31996835896E+02  0.00000000000E+00 0. -1.
         22    1    3    3    0    0 -0.96127189852E+02  0.14063577734E+03  0.12350977895E+03  0.21041274675E+03  0.00000000000E+00 0. -1.
</event>
<event>
 7    1  0.6330892E-006  0.3290046E+02  0.7818608E-02  0.1639472E+00
          2   -1    0    0  502    0  0.00000000000E+00  0.00000000000E+00  0.39044258583E+03  0.39044258583E+03  0.00000000000E+00 0. -1.
          1   -1    0    0  501    0 -0.00000000000E+00 -0.00000000000E+00 -0.26782701204E+03  0.26782701204E+03  0.00000000000E+00 0. -1.
         25    2    1    2    0    0 -0.11426036118E+02  0.25591840380E+02  0.77792298029E+02  0.14987607114E+03  0.12500279385E+03 0.  0.
          2    1    1    2  501    0 -0.18412718837E+02 -0.11006712725E+02 -0.23028787213E+03  0.23128484600E+03  0.00000000000E+00 0. -1.
          1    1    1    2  502    0  0.29838754955E+02 -0.14585127655E+02  0.27511114789E+03  0.27710868073E+03  0.00000000000E+00 0. -1.
         22    1    3    3    0    0  0.13002198684E+02 -0.28015586373E+01 -0.31580737070E+02  0.34267314678E+02  0.00000000000E+00 0. -1.
         22    1    3    3    0    0 -0.24428234802E+02  0.28393399017E+02  0.10937303510E+03  0.11560875646E+03  0.00000000000E+00 0. -1.
</event>
<event>
 7    1  0.6330892E-006  0.7921046E+02  0.7818608E-02  0.1350555E+00
          2   -1    0    0  502    0  0.00000000000E+00  0.00000000000E+00  0.80125397334E+03  0.80125397334E+03  0.00000000000E+00 0. -1.
          1   -1    0    0  501    0 -0.00000000000E+00 -0.00000000000E+00 -0.56155893950E+03  0.56155893950E+03  0.00000000000E+00 0. -1.
         25    2    1    2    0    0  0.56255925942E+02 -0.72077765870E+02  0.40102238572E+03  0.42988851278E+03  0.12500098414E+03 0.  0.
          2    1    1    2  501    0  0.24929100331E+02  0.62255342143E+02 -0.54069753630E+03  0.54484035591E+03  0.00000000000E+00 0. -1.
          1    1    1    2  502    0 -0.81185026273E+02  0.98224237275E+01  0.37937018442E+03  0.38808404416E+03  0.00000000000E+00 0. -1.
         22    1    3    3    0    0 -0.26135437202E+02 -0.65180649135E+02  0.21862736331E+03  0.22962905323E+03  0.00000000000E+00 0.  1.
         22    1    3    3    0    0  0.82391363144E+02 -0.68971167351E+01  0.18239502240E+03  0.20025945954E+03  0.00000000000E+00 0.  1.
</event>
<event>
 7    1  0.6330892E-006  0.6900560E+02  0.7818608E-02  0.1363917E+00
          2   -1    0    0  502    0  0.00000000000E+00  0.00000000000E+00  0.20678025789E+04  0.20678025789E+04  0.00000000000E+00 0. -1.
          1   -1    0    0  501    0 -0.00000000000E+00 -0.00000000000E+00 -0.80131976645E+02  0.80131976645E+02  0.00000000000E+00 0. -1.
         25    2    1    2    0    0 -0.47801159322E+02  0.48962535236E+02  0.80642243251E+03  0.81891687590E+03  0.12500171712E+03 0.  0.
          2    1    1    2  501    0  0.65129288149E+02  0.22802383963E+02 -0.56429125486E+02  0.89140445883E+02  0.00000000000E+00 0. -1.
          1    1    1    2  502    0 -0.17328128827E+02 -0.71764919199E+02  0.12376772953E+04  0.12398772338E+04  0.00000000000E+00 0. -1.
         22    1    3    3    0    0 -0.53680967560E+02  0.54850165916E+02  0.80693855118E+03  0.81058004686E+03  0.00000000000E+00 0.  1.
         22    1    3    3    0    0  0.58798082382E+01 -0.58876306801E+01 -0.51611867234E+00  0.83368290391E+01  0.00000000000E+00 0.  1.
</event>
<event>
 7    1  0.6330892E-006  0.1814586E+03  0.7818608E-02  0.1281830E+00
          2   -1    0    0  502    0  0.00000000000E+00  0.00000000000E+00  0.43540295520E+03  0.43540295520E+03  0.00000000000E+00 0. -1.
          1   -1    0    0  501    0 -0.00000000000E+00 -0.00000000000E+00 -0.58978989824E+03  0.58978989824E+03  0.00000000000E+00 0. -1.
         25    2    1    2    0    0  0.19264920973E+03  0.82026050842E+00  0.45791400817E+02  0.23417086691E+03  0.12499900672E+03 0.  0.
          2    1    1    2  501    0 -0.17386575160E+03  0.50139977885E+02 -0.47634964197E+03  0.50956088779E+03  0.00000000000E+00 0. -1.
          1    1    1    2  502    0 -0.18783458135E+02 -0.50960238393E+02  0.27617129812E+03  0.28146109873E+03  0.00000000000E+00 0. -1.
         22    1    3    3    0    0  0.19867039095E+03 -0.20888174164E+02  0.21305800418E+02  0.20089842506E+03  0.00000000000E+00 0. -1.
         22    1    3    3    0    0 -0.60211812223E+01  0.21708434672E+02  0.24485600399E+02  0.33272441842E+02  0.00000000000E+00 0. -1.
</event>
<event>
 7    1  0.6330892E-006  0.7201120E+02  0.7818608E-02  0.1469521E+00
          2   -1    0    0  502    0  0.00000000000E+00  0.00000000000E+00  0.95698889260E+03  0.95698889260E+03  0.00000000000E+00 0. -1.
          1   -1    0    0  501    0 -0.00000000000E+00 -0.00000000000E+00 -0.20885441174E+04  0.20885441174E+04  0.00000000000E+00 0. -1.
         25    2    1    2    0    0  0.95997497714E+02  0.18107474801E+02 -0.14834648727E+03  0.21719727319E+03  0.12499829993E+03 0.  0.
          2    1    1    2  501    0 -0.71491686563E+02 -0.24034972829E+01 -0.19048711961E+04  0.19062138158E+04  0.00000000000E+00 0. -1.
          1    1    1    2  502    0 -0.24505811151E+02 -0.15703977518E+02  0.92166245853E+03  0.92212192098E+03  0.00000000000E+00 0. -1.
         22    1    3    3    0    0  0.29076827157E+02 -0.46344411448E+02 -0.96156967138E+02  0.11063195144E+03  0.00000000000E+00 0.  1.
         22    1    3    3    0    0  0.66920670557E+02  0.64451886249E+02 -0.52189520130E+02  0.10656532175E+03  0.00000000000E+00 0.  1.
</event>
<event>
 7    1  0.6330892E-006  0.1221729E+03  0.7818608E-02  0.1269315E+00
          2   -1    0    0  502    0  0.00000000000E+00  0.00000000000E+00  0.62938787949E+03  0.62938787949E+03  0.00000000000E+00 0. -1.
          1   -1    0    0  501    0 -0.00000000000E+00 -0.00000000000E+00 -0.97028914372E+03  0.97028914372E+03  0.00000000000E+00 0. -1.
         25    2    1    2    0    0 -0.61309812764E+02 -0.14789905967E+03 -0.90129487464E+02  0.22222073394E+03  0.12500282032E+03 0.  0.
          2    1    1    2  501    0 -0.24843332211E+02  0.11876430095E+03 -0.80587205430E+03  0.81495516333E+03  0.00000000000E+00 0. -1.
          1    1    1    2  502    0  0.86153144974E+02  0.29134758723E+02  0.55510027754E+03  0.56250112594E+03  0.00000000000E+00 0. -1.
         22    1    3    3    0    0 -0.71966851914E+02 -0.11662935105E+03 -0.12211944051E+02  0.13758911613E+03  0.00000000000E+00 0. -1.
         22    1    3    3    0    0  0.10657039151E+02 -0.31269708617E+02 -0.77917543413E+02  0.84631617803E+02  0.00000000000E+00 0. -1.
</event>
<event>
 7    1  0.6992284E-006  0.9020082E+02  0.7818608E-02  0.1385953E+00
          2   -1    0    0  502    0  0.00000000000E+00  0.00000000000E+00  0.11434993173E+04  0.11434993173E+04  0.00000000000E+00 0. -1.
          1   -1    0    0  501    0 -0.00000000000E+00 -0.00000000000E+00 -0.15202803494E+04  0.15202803494E+04  0.00000000000E+00 0. -1.
         25    2    1    2    0    0 -0.71120597616E+02  0.57763844977E+02 -0.20149442684E+03  0.25420409663E+03  0.12499967001E+03 0.  0.
          2    1    1    2  501    0  0.88984568380E+02 -0.17666652711E+02 -0.12904066960E+04  0.12935918232E+04  0.00000000000E+00 0. -1.
          1    1    1    2  502    0 -0.17863970765E+02 -0.40097192266E+02  0.11151200908E+04  0.11159837468E+04  0.00000000000E+00 0. -1.
         22    1    3    3    0    0  0.32766830925E+02  0.79080819953E+01 -0.19925395790E+02  0.39156409017E+02  0.00000000000E+00 0. -1.
         22    1    3    3    0    0 -0.10388742854E+03  0.49855762981E+02 -0.18156903105E+03  0.21504768761E+03  0.00000000000E+00 0. -1.
</event>
<event>
 7    1  0.6330892E-006  0.3895846E+02  0.7818608E-02  0.1542595E+00
          2   -1    0    0  502    0  0.00000000000E+00  0.00000000000E+00  0.34740835201E+03  0.34740835201E+03  0.00000000000E+00 0. -1.
          1   -1    0    0  501    0 -0.00000000000E+00 -0.00000000000E+00 -0.85813589685E+03  0.85813589685E+03  0.00000000000E+00 0. -1.
         25    2    1    2    0    0 -0.51116607928E+01 -0.50303864626E+01 -0.43984077439E+02  0.13269948315E+03  0.12499247936E+03 0.  0.
          2    1    1    2  501    0 -0.12969139717E+02 -0.30004721158E+02 -0.76816278949E+03  0.76885795375E+03  0.00000000000E+00 0. -1.
          1    1    1    2  502    0  0.18080800510E+02  0.35035107621E+02  0.30141932209E+03  0.30398681196E+03  0.00000000000E+00 0. -1.
         22    1    3    3    0    0  0.15416172651E+02 -0.22066363038E+02 -0.81973233541E+02  0.86279741388E+02  0.00000000000E+00 0.  1.
         22    1    3    3    0    0 -0.20527833444E+02  0.17035976576E+02  0.37989156101E+02  0.46419741760E+02  0.00000000000E+00 0.  1.
</event>
<event>
 7    1  0.6330892E-006  0.7077836E+02  0.7818608E-02  0.1378647E+00
          2   -1    0    0  502    0  0.00000000000E+00  0.00000000000E+00  0.11218285509E+04  0.11218285509E+04  0.00000000000E+00 0. -1.
          1   -1    0    0  501    0 -0.00000000000E+00 -0.00000000000E+00 -0.16522407974E+03  0.16522407974E+03  0.00000000000E+00 0. -1.
         25    2    1    2    0    0 -0.99492388888E+02  0.76607780476E+02  0.14430705757E+03  0.22850950645E+03  0.12499832079E+03 0.  0.
          2    1    1    2  501    0  0.37415182648E+02 -0.46089660962E+02 -0.11460261278E+03  0.12906553218E+03  0.00000000000E+00 0. -1.
          1    1    1    2  502    0  0.62077206240E+02 -0.30518119515E+02  0.92690002636E+03  0.92947759200E+03  0.00000000000E+00 0. -1.
         22    1    3    3    0    0 -0.11759186346E+03  0.79418228286E+02  0.15262104180E+03  0.20839453864E+03  0.00000000000E+00 0.  1.
         22    1    3    3    0    0  0.18099474569E+02 -0.28104478098E+01 -0.83139842253E+01  0.20114967816E+02  0.00000000000E+00 0.  1.
</event>
<event>
 7    1  0.6330892E-006  0.1845342E+03  0.7818608E-02  0.1276330E+00
          2   -1    0    0  502    0  0.00000000000E+00  0.00000000000E+00  0.12707763689E+04  0.12707763689E+04  0.00000000000E+00 0. -1.
          1   -1    0    0  501    0 -0.00000000000E+00 -0.00000000000E+00 -0.28142679217E+03  0.28142679217E+03  0.00000000000E+00 0. -1.
         25    2    1    2    0    0 -0.15958791304E+03 -0.61576579464E+02  0.44792274354E+03  0.49549932241E+03  0.12499926882E+03 0.  0.
          2    1    1    2  501    0 -0.33311689114E+02  0.45363179696E+02 -0.24264627354E+03  0.24908773708E+03  0.00000000000E+00 0. -1.
          1    1    1    2  502    0  0.19289960215E+03  0.16213399768E+02  0.78407310675E+03  0.80761610161E+03  0.00000000000E+00 0. -1.
         22    1    3    3    0    0 -0.10624857042E+03  0.22724319440E+01  0.35596951019E+03  0.37149456907E+03  0.00000000000E+00 0.  1.
         22    1    3    3    0    0 -0.53339342616E+02 -0.63849011408E+02  0.91953233350E+02  0.12400475334E+03  0.00000000000E+00 0.  1.
</event>
<event>
 7    1  0.6330892E-006  0.6298444E+02  0.7818608E-02  0.1491427E+00
          2   -1    0    0  502    0  0.00000000000E+00  0.00000000000E+00  0.63359483558E+03  0.63359483558E+03  0.00000000000E+00 0. -1.
          1   -1    0    0  501    0 -0.00000000000E+00 -0.00000000000E+00 -0.35639423484E+03  0.35639423484E+03  0.00000000000E+00 0. -1.
         25    2    1    2    0    0 -0.24739796505E+02  0.72057001322E+02  0.61569268112E+02  0.15880900605E+03  0.12500102662E+03 0.  0.
          2    1    1    2  501    0 -0.15434366559E+02 -0.23970157847E+02 -0.30523235029E+03  0.30656088433E+03  0.00000000000E+00 0. -1.
          1    1    1    2  502    0  0.40174163064E+02 -0.48086843475E+02  0.52086368291E+03  0.52461918004E+03  0.00000000000E+00 0. -1.
         22    1    3    3    0    0 -0.26546298073E+02 -0.29327801918E+02 -0.11575295517E+01  0.39574812462E+02  0.00000000000E+00 0.  1.
         22    1    3    3    0    0  0.18065015685E+01  0.10138480324E+03  0.62726797664E+02  0.11923419359E+03  0.00000000000E+00 0.  1.
</event>
<event>
 7    1  0.6330892E-006  0.7716043E+02  0.7818608E-02  0.1356754E+00
          2   -1    0    0  502    0  0.00000000000E+00  0.00000000000E+00  0.25936911679E+04  0.25936911679E+04  0.00000000000E+00 0. -1.
          1   -1    0    0  501    0 -0.00000000000E+00 -0.00000000000E+00 -0.75166990226E+03  0.75166990226E+03  0.00000000000E+00 0. -1.
         25    2    1    2    0    0  0.93944276146E+02 -0.92217216919E+02 -0.78290165105E+02  0.19767148882E+03  0.12496049546E+03 0.  0.
          2    1    1    2  501    0 -0.61312774758E+02  0.22512792066E+02 -0.61136472782E+03  0.61484381153E+03  0.00000000000E+00 0. -1.
          1    1    1    2  502    0 -0.32631501387E+02  0.69704424853E+02  0.25316761585E+04  0.25328457698E+04  0.00000000000E+00 0. -1.
         22    1    3    3    0    0  0.10796855192E+03 -0.95006339486E+02 -0.29476898965E+02  0.14680701726E+03  0.00000000000E+00 0.  1.
         22    1    3    3    0    0 -0.14024275771E+02  0.27891225674E+01 -0.48813266140E+02  0.50864471558E+02  0.00000000000E+00 0.  1.
</event>
<event>
 7    1  0.6330892E-006  0.7481853E+02  0.7818608E-02  0.1401680E+00
          2   -1    0    0  502    0  0.00000000000E+00  0.00000000000E+00  0.25159937712E+03  0.25159937712E+03  0.00000000000E+00 0. -1.
          1   -1    0    0  501    0 -0.00000000000E+00 -0.00000000000E+00 -0.14298044421E+04  0.14298044421E+04  0.00000000000E+00 0. -1.
         25    2    1    2    0    0  0.40019179867E+02  0.64113266170E+02  0.24195964902E+02  0.14806359576E+03  0.12500135206E+03 0.  0.
          2    1    1    2  501    0  0.30774726761E+02 -0.35088002966E+02 -0.13586035558E+04  0.13594049705E+04  0.00000000000E+00 0. -1.
          1    1    1    2  502    0 -0.70793906628E+02 -0.29025263204E+02  0.15620252596E+03  0.17393525300E+03  0.00000000000E+00 0. -1.
         22    1    3    3    0    0 -0.40899944885E+02  0.97077661405E+00  0.19488595427E+02  0.45316147790E+02  0.00000000000E+00 0.  1.
         22    1    3    3    0    0  0.80919124752E+02  0.63142489556E+02  0.47073694757E+01  0.10274744797E+03  0.00000000000E+00 0.  1.
</event>
<event>
 7    1  0.6330892E-006  0.1473798E+03  0.7818608E-02  0.1299638E+00
          2   -1    0    0  502    0  0.00000000000E+00  0.00000000000E+00  0.10115578126E+04  0.10115578126E+04  0.00000000000E+00 0. -1.
          1   -1    0    0  501    0 -0.00000000000E+00 -0.00000000000E+00 -0.81460261379E+03  0.81460261379E+03  0.00000000000E+00 0. -1.
         25    2    1    2    0    0 -0.19691629418E+03  0.21699665863E+02  0.88325358640E+02  0.25034561710E+03  0.12499862644E+03 0.  0.
          2    1    1    2  501    0  0.14527191079E+03  0.14837309089E+01 -0.72543089395E+03  0.73983519206E+03  0.00000000000E+00 0. -1.
          1    1    1    2  502    0  0.51644383394E+02 -0.23183396772E+02  0.83406073411E+03  0.83597961722E+03  0.00000000000E+00 0. -1.
         22    1    3    3    0    0 -0.16929418873E+03  0.37570195934E+02  0.19500946743E+02  0.17450595658E+03  0.00000000000E+00 0. -1.
         22    1    3    3    0    0 -0.27622105453E+02 -0.15870530072E+02  0.68824411897E+02  0.75839660518E+02  0.00000000000E+00 0. -1.
</event>
<event>
 7    1  0.6330892E-006  0.5462731E+02  0.7818608E-02  0.1525548E+00
          2   -1    0    0  502    0  0.00000000000E+00  0.00000000000E+00  0.40551102686E+03  0.40551102686E+03  0.00000000000E+00 0. -1.
          1   -1    0    0  501    0 -0.00000000000E+00 -0.00000000000E+00 -0.40936887212E+03  0.40936887212E+03  0.00000000000E+00 0. -1.
         25    2    1    2    0    0  0.54797835246E+02  0.28427625118E+01  0.18880575886E+03  0.23298912951E+03  0.12500174337E+03 0.  0.
          2    1    1    2  501    0 -0.42102613586E+01 -0.25728488567E+02 -0.38286461437E+03  0.38375121415E+03  0.00000000000E+00 0. -1.
          1    1    1    2  502    0 -0.50587573888E+02  0.22885726055E+02  0.19020101023E+03  0.19813955532E+03  0.00000000000E+00 0. -1.
         22    1    3    3    0    0  0.11592074537E+02  0.34276962425E+02  0.17374989316E+03  0.17747763724E+03  0.00000000000E+00 0.  1.
         22    1    3    3    0    0  0.43205760709E+02 -0.31434199913E+02  0.15055865700E+02  0.55511492275E+02  0.00000000000E+00 0.  1.
</event>
<event>
 7    1  0.6330892E-006  0.4370181E+02  0.7818608E-02  0.1551039E+00
          2   -1    0    0  502    0  0.00000000000E+00  0.00000000000E+00  0.23931942321E+04  0.23931942321E+04  0.00000000000E+00 0. -1.
          1   -1    0    0  501    0 -0.00000000000E+00 -0.00000000000E+00 -0.57911438319E+02  0.57911438319E+02  0.00000000000E+00 0. -1.
         25    2    1    2    0    0  0.18134319200E+02  0.21633449040E+02  0.36411489433E+03  0.38600701797E+03  0.12499960801E+03 0.  0.
          2    1    1    2  501    0 -0.43149712201E+02 -0.99832282639E+01 -0.36407893675E+02  0.57333212290E+02  0.00000000000E+00 0. -1.
          1    1    1    2  502    0  0.25015393001E+02 -0.11650220776E+02  0.20075757931E+04  0.20077654402E+04  0.00000000000E+00 0. -1.
         22    1    3    3    0    0  0.24748231433E+02 -0.49779748738E+02  0.13745658632E+03  0.14827276036E+03  0.00000000000E+00 0. -1.
         22    1    3    3    0    0 -0.66139122328E+01  0.71413197777E+02  0.22665830801E+03  0.23773425761E+03  0.00000000000E+00 0. -1.
</event>
<event>
 7    1  0.6330892E-006  0.1095877E+03  0.7818608E-02  0.1297110E+00
          2   -1    0    0  502    0  0.00000000000E+00  0.00000000000E+00  0.12420042620E+04  0.12420042620E+04  0.00000000000E+00 0. -1.
          1   -1    0    0  501    0 -0.00000000000E+00 -0.00000000000E+00 -0.31504656921E+02  0.31504656921E+02  0.00000000000E+00 0. -1.
         25    2    1    2    0    0 -0.56632712571E+02  0.62476275840E+02  0.59983251483E+03  0.61849362631E+03  0.12499908305E+03 0.  0.
          2    1    1    2  501    0 -0.14832496347E+02  0.76506064448E+02  0.25211974551E+03  0.26388927019E+03  0.00000000000E+00 0. -1.
          1    1    1    2  502    0  0.71465208918E+02 -0.13898234029E+03  0.35854734478E+03  0.39112602246E+03  0.00000000000E+00 0. -1.
         22    1    3    3    0    0  0.31742357642E+02  0.13390452603E+02  0.30228788940E+03  0.30424471987E+03  0.00000000000E+00 0. -1.
         22    1    3    3    0    0 -0.88375070213E+02  0.49085823238E+02  0.29754462543E+03  0.31424890645E+03  0.00000000000E+00 0. -1.
</event>
<event>
 7    1  0.6330892E-006  0.7000440E+02  0.7818608E-02  0.1525430E+00
          2   -1    0    0  502    0  0.00000000000E+00  0.00000000000E+00  0.94694817549E+03  0.94694817549E+03  0.00000000000E+00 0. -1.
          1   -1    0    0  501    0 -0.00000000000E+00 -0.00000000000E+00 -0.35759258072E+02  0.35759258072E+02  0.00000000000E+00 0. -1.
         25    2    1    2    0    0 -0.48518601071E+02  0.16903615990E+02  0.15638018419E+03  0.20668578318E+03  0.12499785630E+03 0.  0.
          2    1    1    2  501    0 -0.20296736309E+02  0.16019030628E+01  0.26924634516E+01  0.20537111717E+02  0.00000000000E+00 0. -1.
          1    1    1    2  502    0  0.68815337380E+02 -0.18505519053E+02  0.75211626978E+03  0.75548453866E+03  0.00000000000E+00 0. -1.
         22    1    3    3    0    0  0.15690893932E+02  0.39353439918E+02  0.75303407769E+01  0.43030261654E+02  0.00000000000E+00 0. -1.
         22    1    3    3    0    0 -0.64209495002E+02 -0.22449823928E+02  0.14884984341E+03  0.16365552153E+03  0.00000000000E+00 0. -1.
</event>
<event>
 7    1  0.6330892E-006  0.1105513E+03  0.7818608E-02  0.1263979E+00
          2   -1    0    0  502    0  0.00000000000E+00  0.00000000000E+00  0.55843815961E+03  0.55843815961E+03  0.00000000000E+00 0. -1.
          1   -1    0    0  501    0 -0.00000000000E+00 -0.00000000000E+00 -0.67361036030E+03  0.67361036030E+03  0.00000000000E+00 0. -1.
         25    2    1    2    0    0  0.16474123293E+02  0.54146492545E+02  0.34023057516E+02  0.14137077852E+03  0.12499955673E+03 0.  0.
          2    1    1    2  501    0 -0.10906047562E+03  0.18094303290E+02 -0.60754586374E+03  0.61752211920E+03  0.00000000000E+00 0. -1.
          1    1    1    2  502    0  0.92586352330E+02 -0.72240795835E+02  0.45835060553E+03  0.47315562219E+03  0.00000000000E+00 0. -1.
         22    1    3    3    0    0  0.33528788964E+02  0.37147706343E+02  0.77161110842E+02  0.91967215911E+02  0.00000000000E+00 0.  1.
         22    1    3    3    0    0 -0.17054665671E+02  0.16998786202E+02 -0.43138053327E+02  0.49403562607E+02  0.00000000000E+00 0.  1.
</event>
<event>
 7    1  0.6330892E-006  0.8075025E+02  0.7818608E-02  0.1392665E+00
          2   -1    0    0  502    0  0.00000000000E+00  0.00000000000E+00  0.11712048129E+04  0.11712048129E+04  0.00000000000E+00 0. -1.
          1   -1    0    0  501    0 -0.00000000000E+00 -0.00000000000E+00 -0.74751439788E+02  0.74751439788E+02  0.00000000000E+00 0. -1.
         25    2    1    2    0    0 -0.76240413086E+01 -0.73534504286E+02  0.40977471791E+03  0.43474876573E+03  0.12500288211E+03 0.  0.
          2    1    1    2  501    0  0.52801165375E+02  0.62705541309E+02 -0.34207288429E+02  0.88826159196E+02  0.00000000000E+00 0. -1.
          1    1    1    2  502    0 -0.45177124066E+02  0.10828962977E+02  0.72088594367E+03  0.72238132780E+03  0.00000000000E+00 0. -1.
         22    1    3    3    0    0  0.58091394690E+02 -0.36353614328E+02  0.22291906823E+03  0.23321472164E+03  0.00000000000E+00 0. -1.
         22    1    3    3    0    0 -0.65715435999E+02 -0.37180889958E+02  0.18685564968E+03  0.20153404408E+03  0.00000000000E+00 0. -1.
</event>
<event>
 7    1  0.6330892E-006  0.1394328E+03  0.7818608E-02  0.1242322E+00
          2   -1    0    0  502    0  0.00000000000E+00  0.00000000000E+00  0.10212460956E+03  0.10212460956E+03  0.00000000000E+00 0. -1.
          1   -1    0    0  501    0 -0.00000000000E+00 -0.00000000000E+00 -0.25993972928E+04  0.25993972928E+04  0.00000000000E+00 0. -1.
         25    2    1    2    0    0 -0.11987370403E+03  0.59498649527E+02 -0.18423603805E+03  0.25978527183E+03  0.12504269483E+03 0.  0.
          2    1    1    2  501    0  0.46990509329E+02 -0.13381098976E+03 -0.23316827373E+04  0.23359918399E+04  0.00000000000E+00 0. -1.
          1    1    1    2  502    0  0.72883194702E+02  0.74312340234E+02  0.18646092105E+02  0.10574479057E+03  0.00000000000E+00 0. -1.
         22    1    3    3    0    0 -0.78916508688E+02  0.16341040738E+02 -0.18335022875E+03  0.20028018209E+03  0.00000000000E+00 0. -1.
         22    1    3    3    0    0 -0.40957195343E+02  0.43157608789E+02 -0.88580929800E+00  0.59505089739E+02  0.00000000000E+00 0. -1.
</event>
<event>
 7    1  0.6330892E-006  0.6995328E+02  0.7818608E-02  0.1432376E+00
          2   -1    0    0  502    0  0.00000000000E+00  0.00000000000E+00  0.22945268625E+04  0.22945268625E+04  0.00000000000E+00 0. -1.
          1   -1    0    0  501    0 -0.00000000000E+00 -0.00000000000E+00 -0.20079962696E+02  0.20079962696E+02  0.00000000000E+00 0. -1.
         25    2    1    2    0    0  0.23904854697E+01  0.34938971431E+02  0.34508046274E+03  0.36869044849E+03  0.12500269956E+03 0.  0.
          2    1    1    2  501    0 -0.16617386542E+02  0.35702560130E+02  0.43515036633E+02  0.58688744649E+02  0.00000000000E+00 0. -1.
          1    1    1    2  502    0  0.14226901073E+02 -0.70641531561E+02  0.18858514005E+04  0.18872276321E+04  0.00000000000E+00 0. -1.
         22    1    3    3    0    0  0.37267978762E+02  0.53239321593E+02  0.30735732522E+03  0.31415259504E+03  0.00000000000E+00 0.  1.
         22    1    3    3    0    0 -0.34877493292E+02 -0.18300350162E+02  0.37723137525E+02  0.54537853452E+02  0.00000000000E+00 0.  1.
</event>
<event>
 7    1  0.6330892E-006  0.1034762E+03  0.7818608E-02  0.1304147E+00
          2   -1    0    0  502    0  0.00000000000E+00  0.00000000000E+00  0.17565485290E+03  0.17565485290E+03  0.00000000000E+00 0. -1.
          1   -1    0    0  501    0 -0.00000000000E+00 -0.00000000000E+00 -0.68424011991E+03  0.68424011991E+03  0.00000000000E+00 0. -1.
         25    2    1    2    0    0 -0.85558689580E+02  0.10726772172E+02 -0.24013200110E+03  0.28411804258E+03  0.12499732462E+03 0.  0.
          2    1    1    2  501    0  0.24204345416E+01 -0.77316732358E+02 -0.39948851669E+03  0.40690884799E+03  0.00000000000E+00 0. -1.
          1    1    1    2  502    0  0.83138255039E+02  0.66589960186E+02  0.13103525078E+03  0.16886808223E+03  0.00000000000E+00 0. -1.
         22    1    3    3    0    0 -0.67596369416E+02  0.62316140458E+02 -0.11251149454E+03  0.14529764941E+03  0.00000000000E+00 0.  1.
         22    1    3    3    0    0 -0.17962320164E+02 -0.51589368285E+02 -0.12762050656E+03  0.13882039317E+03  0.00000000000E+00 0.  1.
</event>
<event>
 7    1  0.6330892E-006  0.1431191E+03  0.7818608E-02  0.1235733E+00
          2   -1    0    0  502    0  0.00000000000E+00  0.00000000000E+00  0.14897281761E+04  0.14897281761E+04  0.00000000000E+00 0. -1.
          1   -1    0    0  501    0 -0.00000000000E+00 -0.00000000000E+00 -0.14406571238E+04  0.14406571238E+04  0.00000000000E+00 0. -1.
         25    2    1    2    0    0  0.15165525351E+03 -0.99353264392E+02 -0.16906677703E+03  0.27763047637E+03  0.12499887700E+03 0.  0.
          2    1    1    2  501    0 -0.88477221346E+01  0.10807437819E+03 -0.12113154388E+04  0.12161593012E+04  0.00000000000E+00 0. -1.
          1    1    1    2  502    0 -0.14280753138E+03 -0.87211138017E+01  0.14294532682E+04  0.14365955223E+04  0.00000000000E+00 0. -1.
         22    1    3    3    0    0  0.15163305514E+03 -0.10517082236E+03 -0.10305298470E+03  0.21136083588E+03  0.00000000000E+00 0. -1.
         22    1    3    3    0    0  0.22198370208E-01  0.58175579655E+01 -0.66013792327E+02  0.66269640491E+02  0.00000000000E+00 0. -1.
</event>
<event>
 7    1  0.6330892E-006  0.1412761E+03  0.7818608E-02  0.1411741E+00
          2   -1    0    0  502    0  0.00000000000E+00  0.00000000000E+00  0.91310532479E+02  0.91310532479E+02  0.00000000000E+00 0. -1.
          1   -1    0    0  501    0 -0.00000000000E+00 -0.00000000000E+00 -0.13630795494E+04  0.13630795494E+04  0.00000000000E+00 0. -1.
         25    2    1    2    0    0  0.11759811435E+03  0.37035444552E+02 -0.34459181524E+03  0.38674105611E+03  0.12499673874E+03 0.  0.
          2    1    1    2  501    0  0.18183355516E+02  0.13824840553E+02 -0.92228944748E+03  0.92257226577E+03  0.00000000000E+00 0. -1.
          1    1    1    2  502    0 -0.13578146987E+03 -0.50860285105E+02 -0.48877542334E+01  0.14507676004E+03  0.00000000000E+00 0. -1.
         22    1    3    3    0    0  0.14429343911E+03  0.36627843054E+02 -0.29141731661E+03  0.32724035185E+03  0.00000000000E+00 0.  1.
         22    1    3    3    0    0 -0.26695324757E+02  0.40760149882E+00 -0.53174498628E+02  0.59500704258E+02  0.00000000000E+00 0.  1.
</event>
<event>
 7    1  0.6330892E-006  0.8873068E+02  0.7818608E-02  0.1377841E+00
          2   -1    0    0  502    0  0.00000000000E+00  0.00000000000E+00  0.11647447832E+04  0.11647447832E+04  0.00000000000E+00 0. -1.
          1   -1    0    0  501    0 -0.00000000000E+00 -0.00000000000E+00 -0.11398066447E+04  0.11398066447E+04  0.00000000000E+00 0. -1.
         25    2    1    2    0    0 -0.66611777647E+02 -0.19628552366E+02  0.61177168168E+03  0.62826051675E+03  0.12499710962E+03 0.  0.
          2    1    1    2  501    0 -0.35049042142E+02  0.32306296198E+02 -0.11262367117E+04  0.11272449880E+04  0.00000000000E+00 0. -1.
          1    1    1    2  502    0  0.10166081979E+03 -0.12677743832E+02  0.53940316858E+03  0.54904592316E+03  0.00000000000E+00 0. -1.
         22    1    3    3    0    0  0.24319314381E+02 -0.35537293336E+02  0.11117035981E+03  0.11921903023E+03  0.00000000000E+00 0. -1.
         22    1    3    3    0    0 -0.90931092028E+02  0.15908740970E+02  0.50060132187E+03  0.50904148652E+03  0.00000000000E+00 0. -1.
</event>
<event>
 7    1  0.6330892E-006  0.1265816E+03  0.7818608E-02  0.1320741E+00
          2   -1    0    0  502    0  0.00000000000E+00  0.00000000000E+00  0.99813536267E+03  0.99813536267E+03  0.00000000000E+00 0. -1.
          1   -1    0    0  501    0 -0.00000000000E+00 -0.00000000000E+00 -0.63788557016E+03  0.63788557016E+03  0.00000000000E+00 0. -1.
         25    2    1    2    0    0  0.11983279930E+03 -0.23434382468E+02  0.33302155978E+03  0.37608130842E+03  0.12499888476E+03 0.  0.
          2    1    1    2  501    0 -0.12305493098E+03 -0.30896655982E+02 -0.60865170769E+03  0.62173468672E+03  0.00000000000E+00 0. -1.
          1    1    1    2  502    0  0.32221316870E+01  0.54331038450E+02  0.63587994042E+03  0.63820493769E+03  0.00000000000E+00 0. -1.
         22    1    3    3    0    0  0.64230199532E+02 -0.36155962255E+02  0.54212305262E+02  0.91497246846E+02  0.00000000000E+00 0.  1.
         22    1    3    3    0    0  0.55602599765E+02  0.12721579788E+02  0.27880925452E+03  0.28458406157E+03  0.00000000000E+00 0.  1.
</event>
<event>
 7    1  0.6330892E-006  0.1138999E+03  0.7818608E-02  0.1383112E+00
          2   -1    0    0  502    0  0.00000000000E+00  0.00000000000E+00  0.10143777518E+04  0.10143777518E+04  0.00000000000E+00 0. -1.
          1   -1    0    0  501    0 -0.00000000000E+00 -0.00000000000E+00 -0.51630852525E+03  0.51630852525E+03  0.00000000000E+00 0. -1.
         25    2    1    2    0    0 -0.10514949844E+03  0.45073742350E+02  0.22372505245E+03  0.28065306389E+03  0.12500073562E+03 0.  0.
          2    1    1    2  501    0  0.11354460998E+03 -0.10506318670E+02 -0.48075670849E+03  0.49409490379E+03  0.00000000000E+00 0. -1.
          1    1    1    2  502    0 -0.83951115401E+01 -0.34567423679E+02  0.75510088260E+03  0.75593830938E+03  0.00000000000E+00 0. -1.
         22    1    3    3    0    0  0.97259611072E+01  0.53361323268E+02  0.74320587940E+02  0.92008559016E+02  0.00000000000E+00 0.  1.
         22    1    3    3    0    0 -0.11487545955E+03 -0.82875809178E+01  0.14940446451E+03  0.18864450487E+03  0.00000000000E+00 0.  1.
</event>
<event>
 7    1  0.6330892E-006  0.7688538E+02  0.7818608E-02  0.1381454E+00
          2   -1    0    0  502    0  0.00000000000E+00  0.00000000000E+00  0.57760954754E+03  0.57760954754E+03  0.00000000000E+00 0. -1.
          1   -1    0    0  501    0 -0.00000000000E+00 -0.00000000000E+00 -0.56847774013E+03  0.56847774013E+03  0.00000000000E+00 0. -1.
         25    2    1    2    0    0 -0.12130513633E+02 -0.34208659512E+02  0.46221594643E+02  0.13812632152E+03  0.12500025255E+03 0.  0.
          2    1    1    2  501    0 -0.51282338499E+02 -0.14933266188E+02 -0.51782767334E+03  0.52057504738E+03  0.00000000000E+00 0. -1.
          1    1    1    2  502    0  0.63412852132E+02  0.49141925700E+02  0.48073788610E+03  0.48738591877E+03  0.00000000000E+00 0. -1.
         22    1    3    3    0    0 -0.58673646283E+02 -0.53831974333E+02  0.29605526574E+02  0.84952724692E+02  0.00000000000E+00 0.  1.
         22    1    3    3    0    0  0.46543132651E+02  0.19623314821E+02  0.16616068069E+02  0.53173596827E+02  0.00000000000E+00 0.  1.
</event>
<event>
 7    1  0.6330892E-006  0.1575562E+03  0.7818608E-02  0.1334625E+00
          2   -1    0    0  502    0  0.00000000000E+00  0.00000000000E+00  0.10020284335E+04  0.10020284335E+04  0.00000000000E+00 0. -1.
          1   -1    0    0  501    0 -0.00000000000E+00 -0.00000000000E+00 -0.43337136283E+03  0.43337136283E+03  0.00000000000E+00 0. -1.
         25    2    1    2    0    0  0.94614034752E+02 -0.13481355031E+03  0.48939935049E+03  0.53128682247E+03  0.12500981784E+03 0.  0.
          2    1    1    2  501    0 -0.57742091834E+02  0.14650857695E+03 -0.39658183508E+03  0.42670371946E+03  0.00000000000E+00 0. -1.
          1    1    1    2  502    0 -0.36871942919E+02 -0.11695026635E+02  0.47583955529E+03  0.47740925441E+03  0.00000000000E+00 0. -1.
         22    1    3    3    0    0  0.69452430524E+01  0.25552567958E+00  0.19987408806E+03  0.19999488187E+03  0.00000000000E+00 0. -1.
         22    1    3    3    0    0  0.87668791700E+02 -0.13506907599E+03  0.28952526243E+03  0.33129194061E+03  0.00000000000E+00 0. -1.
</event>
<event>
 7    1  0.6330892E-006  0.2888213E+03  0.7818608E-02  0.1167803E+00
          2   -1    0    0  502    0  0.00000000000E+00  0.00000000000E+00  0.57290340951E+03  0.57290340951E+03  0.00000000000E+00 0. -1.
          1   -1    0    0  501    0 -0.00000000000E+00 -0.00000000000E+00 -0.13428329349E+04  0.13428329349E+04  0.00000000000E+00 0. -1.
         25    2    1    2    0    0 -0.36542886775E+03  0.75405125340E+02  0.20400014946E+03  0.44324446524E+03  0.12500161868E+03 0.  0.
          2    1    1    2  501    0  0.28484881912E+03  0.26407642722E+01 -0.11929098039E+04  0.12264500087E+04  0.00000000000E+00 0. -1.
          1    1    1    2  502    0  0.80580048629E+02 -0.78045889612E+02  0.21898012908E+03  0.24604187053E+03  0.00000000000E+00 0. -1.
         22    1    3    3    0    0 -0.31236842326E+03  0.46240943246E+02  0.21457831307E+03  0.38178018430E+03  0.00000000000E+00 0.  1.
         22    1    3    3    0    0 -0.53060444489E+02  0.29164182094E+02 -0.10578163606E+02  0.61464280943E+02  0.00000000000E+00 0.  1.
</event>
<event>
 7    1  0.6330892E-006  0.1080036E+03  0.7818608E-02  0.1282375E+00
          2   -1    0    0  502    0  0.00000000000E+00  0.00000000000E+00  0.11645575063E+04  0.11645575063E+04  0.00000000000E+00 0. -1.
          1   -1    0    0  501    0 -0.00000000000E+00 -0.00000000000E+00 -0.34453947246E+03  0.34453947246E+03  0.00000000000E+00 0. -1.
         25    2    1    2    0    0 -0.20633866612E+02  0.17367514799E+00  0.34899123414E+03  0.37127587404E+03  0.12500042609E+03 0.  0.
          2    1    1    2  501    0  0.10491298122E+03 -0.33907921814E+02 -0.32161942038E+03  0.33999342987E+03  0.00000000000E+00 0. -1.
          1    1    1    2  502    0 -0.84279114604E+02  0.33734246666E+02  0.79264622007E+03  0.79782767484E+03  0.00000000000E+00 0. -1.
         22    1    3    3    0    0 -0.26607341886E+02  0.37240106221E+02  0.32150214059E+03  0.32474359509E+03  0.00000000000E+00 0.  1.
         22    1    3    3    0    0  0.59734752738E+01 -0.37066431073E+02  0.27489093553E+02  0.46532278944E+02  0.00000000000E+00 0.  1.
</event>
<event>
 7    1  0.6330892E-006  0.3655684E+02  0.7818608E-02  0.1537332E+00
          2   -1    0    0  502    0  0.00000000000E+00  0.00000000000E+00  0.23002428909E+04  0.23002428909E+04  0.00000000000E+00 0. -1.
          1   -1    0    0  501    0 -0.00000000000E+00 -0.00000000000E+00 -0.10964155351E+04  0.10964155351E+04  0.00000000000E+00 0. -1.
         25    2    1    2    0    0 -0.96944318639E+01  0.70202928301E+02  0.13627182949E+03  0.19803337747E+03  0.12499909571E+03 0.  0.
          2    1    1    2  501    0  0.12556753688E+02 -0.34267527618E+02 -0.10650698822E+04  0.10656949796E+04  0.00000000000E+00 0. -1.
          1    1    1    2  502    0 -0.28623218244E+01 -0.35935400683E+02  0.21326254085E+04  0.21329300689E+04  0.00000000000E+00 0. -1.
         22    1    3    3    0    0 -0.26768212709E+02 -0.16740527785E+02  0.95340209939E+02  0.10043175849E+03  0.00000000000E+00 0. -1.
         22    1    3    3    0    0  0.17073780845E+02  0.86943456086E+02  0.40931619550E+02  0.97601618980E+02  0.00000000000E+00 0. -1.
</event>
<event>
 7    1  0.6330892E-006  0.9693735E+02  0.7818608E-02  0.1448291E+00
          2   -1    0    0  502    0  0.00000000000E+00  0.00000000000E+00  0.54807463067E+03  0.54807463067E+03  0.00000000000E+00 0. -1.
          1   -1    0    0  501    0 -0.00000000000E+00 -0.00000000000E+00 -0.17754553314E+04  0.17754553314E+04  0.00000000000E+00 0. -1.
         25    2    1    2    0    0 -0.82785940064E+02  0.19998788432E+02  0.14762675297E+02  0.15197587525E+03  0.12500106665E+03 0.  0.
          2    1    1    2  501    0 -0.43394086425E+01  0.24857089454E+02 -0.17015880406E+04  0.17017751218E+04  0.00000000000E+00 0. -1.
          1    1    1    2  502    0  0.87125348706E+02 -0.44855877886E+02  0.45944466456E+03  0.46977896501E+03  0.00000000000E+00 0. -1.
         22    1    3    3    0    0 -0.16403143791E+02  0.54426661012E+02 -0.30555204811E+02  0.64536385832E+02  0.00000000000E+00 0.  1.
         22    1    3    3    0    0 -0.66382796273E+02 -0.34427872580E+02  0.45317880108E+02  0.87439489414E+02  0.00000000000E+00 0.  1.
</event>
<event>
 7    1  0.6330892E-006  0.1136575E+03  0.7818608E-02  0.1356859E+00
          2   -1    0    0  502    0  0.00000000000E+00  0.00000000000E+00  0.13522134266E+04  0.13522134266E+04  0.00000000000E+00 0. -1.
          1   -1    0    0  501    0 -0.00000000000E+00 -0.00000000000E+00 -0.91593923123E+03  0.91593923123E+03  0.00000000000E+00 0. -1.
         25    2    1    2    0    0 -0.15056382541E+03  0.64653519501E+01  0.51758314383E+03  0.55338417107E+03  0.12502185296E+03 0.  0.
          2    1    1    2  501    0  0.11230929521E+03  0.15879291426E+02 -0.89385132054E+03  0.90101926335E+03  0.00000000000E+00 0. -1.
          1    1    1    2  502    0  0.38254530205E+02 -0.22344643377E+02  0.81254237211E+03  0.81374922344E+03  0.00000000000E+00 0. -1.
         22    1    3    3    0    0 -0.65470251748E+02 -0.55363264954E+02  0.29485529330E+03  0.30706854114E+03  0.00000000000E+00 0.  1.
         22    1    3    3    0    0 -0.85093573666E+02  0.61828616904E+02  0.22272785053E+03  0.24631562993E+03  0.00000000000E+00 0.  1.
</event>
<event>
 7    1  0.6330892E-006  0.7936898E+02  0.7818608E-02  0.1442488E+00
          2   -1    0    0  502    0  0.00000000000E+00  0.00000000000E+00  0.28204943576E+03  0.28204943576E+03  0.00000000000E+00 0. -1.
          1   -1    0    0  501    0 -0.00000000000E+00 -0.00000000000E+00 -0.77218813943E+03  0.77218813943E+03  0.00000000000E+00 0. -1.
         25    2    1    2    0    0 -0.42011350160E+02  0.23373674838E+02  0.30995295268E+02  0.13746373327E+03  0.12499714964E+03 0.  0.
          2    1    1    2  501    0  0.68963422758E+02 -0.40943947475E+02 -0.71538992951E+03  0.71987159393E+03  0.00000000000E+00 0. -1.
          1    1    1    2  502    0 -0.26952072597E+02  0.17570272637E+02  0.19425593057E+03  0.19690224798E+03  0.00000000000E+00 0. -1.
         22    1    3    3    0    0  0.26189086437E+02  0.46311160723E+02  0.37686933665E+02  0.65198902023E+02  0.00000000000E+00 0. -1.
         22    1    3    3    0    0 -0.68200436598E+02 -0.22937485884E+02 -0.66916383969E+01  0.72264831248E+02  0.00000000000E+00 0. -1.
</event>
<event>
 7    1  0.6330892E-006  0.2774489E+02  0.7818608E-02  0.1647468E+00
          2   -1    0    0  502    0  0.00000000000E+00  0.00000000000E+00  0.84445327888E+03  0.84445327888E+03  0.00000000000E+00 0. -1.
          1   -1    0    0  501    0 -0.00000000000E+00 -0.00000000000E+00 -0.24477466673E+02  0.24477466673E+02  0.00000000000E+00 0. -1.
         25    2    1    2    0    0  0.33026137742E+02 -0.37388027397E+02  0.37678075248E+03  0.40009529941E+03  0.12499569114E+03 0.  0.
          2    1    1    2  501    0 -0.12997328050E+02  0.23617625561E+02  0.20655371174E+01  0.27036812259E+02  0.00000000000E+00 0. -1.
          1    1    1    2  502    0 -0.20028809692E+02  0.13770401836E+02  0.44112952261E+03  0.44179863388E+03  0.00000000000E+00 0. -1.
         22    1    3    3    0    0 -0.94173226800E+01 -0.66024450242E+02  0.30323446688E+03  0.31048197355E+03  0.00000000000E+00 0. -1.
         22    1    3    3    0    0  0.42443460422E+02  0.28636422845E+02  0.73546285603E+02  0.89613325861E+02  0.00000000000E+00 0. -1.
</event>
<event>
 7    1  0.6330892E-006  0.1069493E+03  0.7818608E-02  0.1316118E+00
          2   -1    0    0  502    0  0.00000000000E+00  0.00000000000E+00  0.11955867403E+04  0.11955867403E+04  0.00000000000E+00 0. -1.
          1   -1    0    0  501    0 -0.00000000000E+00 -0.00000000000E+00 -0.77963941395E+03  0.77963941395E+03  0.00000000000E+00 0. -1.
         25    2    1    2    0    0 -0.51941863875E+01  0.41713983983E+02  0.25031650351E+03  0.28293074167E+03  0.12499766646E+03 0.  0.
          2    1    1    2  501    0 -0.76141044209E+01 -0.10762127529E+03 -0.75829572633E+03  0.76593258323E+03  0.00000000000E+00 0. -1.
          1    1    1    2  502    0  0.12808290808E+02  0.65907291303E+02  0.92392654913E+03  0.92636282933E+03  0.00000000000E+00 0. -1.
         22    1    3    3    0    0  0.41029201525E+02 -0.21197213053E+02  0.50638114959E+02  0.68534195155E+02  0.00000000000E+00 0. -1.
         22    1    3    3    0    0 -0.46223387912E+02  0.62911197036E+02  0.19967838856E+03  0.21439654652E+03  0.00000000000E+00 0. -1.
</event>
<event>
 7    1  0.6330892E-006  0.5539906E+02  0.7818608E-02  0.1538781E+00
          2   -1    0    0  502    0  0.00000000000E+00  0.00000000000E+00  0.13672582290E+04  0.13672582290E+04  0.00000000000E+00 0. -1.
          1   -1    0    0  501    0 -0.00000000000E+00 -0.00000000000E+00 -0.14324140391E+02  0.14324140391E+02  0.00000000000E+00 0. -1.
         25    2    1    2    0    0  0.29205256835E+02  0.17722623857E+02  0.32668154007E+03  0.35144438627E+03  0.12500115838E+03 0.  0.
          2    1    1    2  501    0  0.15131008345E+02  0.18064722398E+02  0.13309898269E+03  0.13516886032E+03  0.00000000000E+00 0. -1.
          1    1    1    2  502    0 -0.44336265180E+02 -0.35787346255E+02  0.89315356583E+03  0.89496912278E+03  0.00000000000E+00 0. -1.
         22    1    3    3    0    0  0.76168958682E+02 -0.26317054029E+01  0.16282327231E+03  0.17977779103E+03  0.00000000000E+00 0.  1.
         22    1    3    3    0    0 -0.46963701847E+02  0.20354329260E+02  0.16385826776E+03  0.17166659525E+03  0.00000000000E+00 0.  1.
</event>
<event>
 7    1  0.6330892E-006  0.1623448E+03  0.7818608E-02  0.1200889E+00
          2   -1    0    0  502    0  0.00000000000E+00  0.00000000000E+00  0.51775695285E+03  0.51775695285E+03  0.00000000000E+00 0. -1.
          1   -1    0    0  501    0 -0.00000000000E+00 -0.00000000000E+00 -0.10095316519E+04  0.10095316519E+04  0.00000000000E+00 0. -1.
         25    2    1    2    0    0 -0.14985054423E+03  0.41873158974E+02 -0.77428321444E+02  0.21407178502E+03  0.12499214829E+03 0.  0.
          2    1    1    2  501    0  0.69921979317E+02 -0.15433194706E+03 -0.84457723703E+03  0.86140474945E+03  0.00000000000E+00 0. -1.
          1    1    1    2  502    0  0.79928564909E+02  0.11245878809E+03  0.43023085939E+03  0.45181207031E+03  0.00000000000E+00 0. -1.
         22    1    3    3    0    0 -0.13636593797E+03 -0.18482809711E+02 -0.56860889733E+02  0.14889742803E+03  0.00000000000E+00 0. -1.
         22    1    3    3    0    0 -0.13484606254E+02  0.60355968685E+02 -0.20567431711E+02  0.65174356989E+02  0.00000000000E+00 0. -1.
</event>
<event>
 7    1  0.6330892E-006  0.4943678E+02  0.7818608E-02  0.1475179E+00
          2   -1    0    0  502    0  0.00000000000E+00  0.00000000000E+00  0.24033477381E+03  0.24033477381E+03  0.00000000000E+00 0. -1.
          1   -1    0    0  501    0 -0.00000000000E+00 -0.00000000000E+00 -0.27670634527E+03  0.27670634527E+03  0.00000000000E+00 0. -1.
         25    2    1    2    0    0  0.11031530782E+01 -0.11881504333E+02  0.13004719003E+03  0.18077467039E+03  0.12499929091E+03 0.  0.
          2    1    1    2  501    0 -0.31613485683E+02  0.38846007400E+02 -0.24376502625E+03  0.24885701274E+03  0.00000000000E+00 0. -1.
          1    1    1    2  502    0  0.30510332605E+02 -0.26964503067E+02  0.77346264751E+02  0.87409435945E+02  0.00000000000E+00 0. -1.
         22    1    3    3    0    0  0.29517236668E+02 -0.56664082475E+02  0.10308356560E+03  0.12127780918E+03  0.00000000000E+00 0. -1.
         22    1    3    3    0    0 -0.28414083590E+02  0.44782578142E+02  0.26963624433E+02  0.59496861210E+02  0.00000000000E+00 0. -1.
</event>
<event>
 7    1  0.6330892E-006  0.7315052E+02  0.7818608E-02  0.1354982E+00
          2   -1    0    0  502    0  0.00000000000E+00  0.00000000000E+00  0.22435020418E+04  0.22435020418E+04  0.00000000000E+00 0. -1.
          1   -1    0    0  501    0 -0.00000000000E+00 -0.00000000000E+00 -0.91364660849E+03  0.91364660849E+03  0.00000000000E+00 0. -1.
         25    2    1    2    0    0  0.16125437546E+02  0.57091885442E+02  0.80596797238E+02  0.16012637726E+03  0.12500039940E+03 0.  0.
          2    1    1    2  501    0  0.53520049024E+02 -0.50722076034E+02 -0.87174899372E+03  0.87486195065E+03  0.00000000000E+00 0. -1.
          1    1    1    2  502    0 -0.69645486570E+02 -0.63698094084E+01  0.21210076297E+04  0.21221603223E+04  0.00000000000E+00 0. -1.
         22    1    3    3    0    0  0.33615657084E+02 -0.22298470845E+02  0.66266453650E+02  0.77578844298E+02  0.00000000000E+00 0. -1.
         22    1    3    3    0    0 -0.17490219537E+02  0.79390356287E+02  0.14330343588E+02  0.82547532962E+02  0.00000000000E+00 0. -1.
</event>
<event>
 7    1  0.6330892E-006  0.7651770E+02  0.7818608E-02  0.1441558E+00
          2   -1    0    0  502    0  0.00000000000E+00  0.00000000000E+00  0.58902520875E+03  0.58902520875E+03  0.00000000000E+00 0. -1.
          1   -1    0    0  501    0 -0.00000000000E+00 -0.00000000000E+00 -0.87584063449E+03  0.87584063449E+03  0.00000000000E+00 0. -1.
         25    2    1    2    0    0 -0.22533506055E+02  0.55129761855E+02 -0.18354363577E+03  0.22991543350E+03  0.12500316312E+03 0.  0.
          2    1    1    2  501    0  0.25740923835E+02  0.21602588847E+02 -0.66607964280E+03  0.66692680075E+03  0.00000000000E+00 0. -1.
          1    1    1    2  502    0 -0.32074177802E+01 -0.76732350702E+02  0.56280785283E+03  0.56802360900E+03  0.00000000000E+00 0. -1.
         22    1    3    3    0    0 -0.39448009902E+01  0.94235443917E+02 -0.13719610315E+03  0.16648919204E+03  0.00000000000E+00 0. -1.
         22    1    3    3    0    0 -0.18588705065E+02 -0.39105682063E+02 -0.46347532620E+02  0.63426241458E+02  0.00000000000E+00 0. -1.
</event>
<event>
 7    1  0.7854623E-006  0.1432671E+03  0.7818608E-02  0.1245716E+00
          2   -1    0    0  502    0  0.00000000000E+00  0.00000000000E+00  0.14093525412E+04  0.14093525412E+04  0.00000000000E+00 0. -1.
          1   -1    0    0  501    0 -0.00000000000E+00 -0.00000000000E+00 -0.84455720927E+03  0.84455720927E+03  0.00000000000E+00 0. -1.
         25    2    1    2    0    0 -0.35694228116E+02 -0.97867576428E+02 -0.38339837056E+03  0.41649955023E+03  0.12500169741E+03 0.  0.
          2    1    1    2  501    0 -0.92401133554E+02  0.32324932459E+02 -0.43544341948E+03  0.44631137372E+03  0.00000000000E+00 0. -1.
          1    1    1    2  502    0  0.12809536167E+03  0.65542643969E+02  0.13836371219E+04  0.13910988265E+04  0.00000000000E+00 0. -1.
         22    1    3    3    0    0 -0.36890928681E+02  0.13788869473E+02 -0.43263739842E+02  0.58504911977E+02  0.00000000000E+00 0.  1.
         22    1    3    3    0    0  0.11967005649E+01 -0.11165644590E+03 -0.34013463071E+03  0.35799463825E+03  0.00000000000E+00 0.  1.
</event>
<event>
 7    1  0.6330892E-006  0.7910457E+02  0.7818608E-02  0.1475225E+00
          2   -1    0    0  502    0  0.00000000000E+00  0.00000000000E+00  0.31538643954E+03  0.31538643954E+03  0.00000000000E+00 0. -1.
          1   -1    0    0  501    0 -0.00000000000E+00 -0.00000000000E+00 -0.15334120020E+03  0.15334120020E+03  0.00000000000E+00 0. -1.
         25    2    1    2    0    0 -0.43862351075E+02 -0.88885831951E+02  0.13711822989E+03  0.21035811826E+03  0.12499812794E+03 0.  0.
          2    1    1    2  501    0  0.92958805221E+01  0.23679262931E+02 -0.10549250095E+03  0.10851630589E+03  0.00000000000E+00 0. -1.
          1    1    1    2  502    0  0.34566470553E+02  0.65206569020E+02  0.13041951040E+03  0.14985321559E+03  0.00000000000E+00 0. -1.
         22    1    3    3    0    0  0.41760374324E+02 -0.14309268417E+02  0.24745275444E+02  0.50606449027E+02  0.00000000000E+00 0. -1.
         22    1    3    3    0    0 -0.85622725399E+02 -0.74576563534E+02  0.11237295445E+03  0.15975166924E+03  0.00000000000E+00 0. -1.
</event>
<event>
 7    1  0.6330892E-006  0.1021618E+03  0.7818608E-02  0.1337761E+00
          2   -1    0    0  502    0  0.00000000000E+00  0.00000000000E+00  0.39624925563E+03  0.39624925563E+03  0.00000000000E+00 0. -1.
          1   -1    0    0  501    0 -0.00000000000E+00 -0.00000000000E+00 -0.12410880799E+04  0.12410880799E+04  0.00000000000E+00 0. -1.
         25    2    1    2    0    0 -0.13770380482E+03 -0.62401298681E+02 -0.88408792634E+02  0.21516923483E+03  0.12500170024E+03 0.  0.
          2    1    1    2  501    0  0.58008618609E+02  0.21529047307E+01 -0.10810064317E+04  0.10825638735E+04  0.00000000000E+00 0. -1.
          1    1    1    2  502    0  0.79695186216E+02  0.60248393951E+02  0.32457640004E+03  0.33960422722E+03  0.00000000000E+00 0. -1.
         22    1    3    3    0    0 -0.56396262983E+02  0.35949977120E+02 -0.17280790272E+02  0.69076515878E+02  0.00000000000E+00 0.  1.
         22    1    3    3    0    0 -0.81307541841E+02 -0.98351275802E+02 -0.71128002362E+02  0.14609271896E+03  0.00000000000E+00 0.  1.
</event>
<event>
 7    1  0.6330892E-006  0.1817591E+03  0.7818608E-02  0.1292021E+00
          2   -1    0    0  502    0  0.00000000000E+00  0.00000000000E+00  0.87275398080E+03  0.87275398080E+03  0.00000000000E+00 0. -1.
          1   -1    0    0  501    0 -0.00000000000E+00 -0.00000000000E+00 -0.15379942128E+04  0.15379942128E+04  0.00000000000E+00 0. -1.
         25    2    1    2    0    0 -0.18100940205E+03 -0.12389395036E+03 -0.57961169404E+03  0.63220902754E+03  0.12499769624E+03 0.  0.
          2    1    1    2  501    0  0.13708913446E+03  0.10158088911E+03 -0.92354599644E+03  0.93917480554E+03  0.00000000000E+00 0. -1.
          1    1    1    2  502    0  0.43920267589E+02  0.22313061243E+02  0.83791745845E+03  0.83936436056E+03  0.00000000000E+00 0. -1.
         22    1    3    3    0    0 -0.14231253404E+03 -0.23539931817E+02 -0.35445010252E+03  0.38267722811E+03  0.00000000000E+00 0.  1.
         22    1    3    3    0    0 -0.38696868009E+02 -0.10035401854E+03 -0.22516159152E+03  0.24953179943E+03  0.00000000000E+00 0.  1.
</event>
<event>
 7    1  0.6330892E-006  0.7441190E+02  0.7818608E-02  0.1357208E+00
          2   -1    0    0  502    0  0.00000000000E+00  0.00000000000E+00  0.43818262663E+03  0.43818262663E+03  0.00000000000E+00 0. -1.
          1   -1    0    0  501    0 -0.00000000000E+00 -0.00000000000E+00 -0.37459747996E+03  0.37459747996E+03  0.00000000000E+00 0. -1.
         25    2    1    2    0    0  0.15383291366E+02  0.48626753176E+02  0.25873397247E+02  0.13746102786E+03  0.12499957887E+03 0.  0.
          2    1    1    2  501    0  0.51503853313E+02 -0.57469188001E+02 -0.31085084020E+03  0.32028674547E+03  0.00000000000E+00 0. -1.
          1    1    1    2  502    0 -0.66887144679E+02  0.88424348250E+01  0.34856258962E+03  0.35503233326E+03  0.00000000000E+00 0. -1.
         22    1    3    3    0    0  0.14410696955E+02  0.45301496167E+02  0.74682608033E+02  0.88529010411E+02  0.00000000000E+00 0.  1.
         22    1    3    3    0    0  0.97259441155E+00  0.33252570089E+01 -0.48809210787E+02  0.48932017450E+02  0.00000000000E+00 0.  1.
</event>
<event>
 7    1  0.6330892E-006  0.1630157E+03  0.7818608E-02  0.1312945E+00
          2   -1    0    0  502    0  0.00000000000E+00  0.00000000000E+00  0.29055156280E+04  0.29055156280E+04  0.00000000000E+00 0. -1.
          1   -1    0    0  501    0 -0.00000000000E+00 -0.00000000000E+00 -0.21414216638E+03  0.21414216638E+03  0.00000000000E+00 0. -1.
         25    2    1    2    0    0  0.60001825039E+02  0.10514481895E+03  0.63024188340E+03  0.65382238087E+03  0.12499288851E+03 0.  0.
          2    1    1    2  501    0 -0.91968424006E+02 -0.13727891994E+03 -0.16835019190E+03  0.23589294179E+03  0.00000000000E+00 0. -1.
          1    1    1    2  502    0  0.31966598967E+02  0.32134100989E+02  0.22294817701E+04  0.22299424717E+04  0.00000000000E+00 0. -1.
         22    1    3    3    0    0 -0.21157358716E+02  0.69156685707E+02  0.16452074605E+03  0.17971465407E+03  0.00000000000E+00 0.  1.
         22    1    3    3    0    0  0.81159183755E+02  0.35988133243E+02  0.46572113735E+03  0.47410772681E+03  0.00000000000E+00 0.  1.
</event>
<event>
 7    1  0.6330892E-006  0.8083212E+02  0.7818608E-02  0.1453525E+00
          2   -1    0    0  502    0  0.00000000000E+00  0.00000000000E+00  0.91539442098E+03  0.91539442098E+03  0.00000000000E+00 0. -1.
          1   -1    0    0  501    0 -0.00000000000E+00 -0.00000000000E+00 -0.18905329686E+04  0.18905329686E+04  0.00000000000E+00 0. -1.
         25    2    1    2    0    0  0.74249979342E+02  0.55232730052E+02 -0.63937864127E+02  0.16815319072E+03  0.12499492462E+03 0.  0.
          2    1    1    2  501    0 -0.27213240689E+02  0.10356430406E+02 -0.17724810986E+04  0.17727202433E+04  0.00000000000E+00 0. -1.
          1    1    1    2  502    0 -0.47036738653E+02 -0.65589160458E+02  0.86128041505E+03  0.86505395560E+03  0.00000000000E+00 0. -1.
         22    1    3    3    0    0 -0.18012563659E+02  0.43499594577E+02  0.11423817560E+02  0.48447608667E+02  0.00000000000E+00 0.  1.
         22    1    3    3    0    0  0.92262543001E+02  0.11733135476E+02 -0.75361681687E+02  0.11970558206E+03  0.00000000000E+00 0.  1.
</event>
<event>
 7    1  0.6330892E-006  0.5211237E+02  0.7818608E-02  0.1472941E+00
          2   -1    0    0  502    0  0.00000000000E+00  0.00000000000E+00  0.79386064916E+03  0.79386064916E+03  0.00000000000E+00 0. -1.
          1   -1    0    0  501    0 -0.00000000000E+00 -0.00000000000E+00 -0.70854141021E+02  0.70854141021E+02  0.00000000000E+00 0. -1.
         25    2    1    2    0    0 -0.45386188822E+02 -0.22290517920E+02  0.52136077610E+02  0.14457152761E+03  0.12500393067E+03 0.  0.
          2    1    1    2  501    0  0.20205981567E+02  0.52396566743E+02  0.87199631515E+01  0.56830622511E+02  0.00000000000E+00 0. -1.
          1    1    1    2  502    0  0.25180207255E+02 -0.30106048823E+02  0.66215046738E+03  0.66331264006E+03  0.00000000000E+00 0. -1.
         22    1    3    3    0    0 -0.52905714567E+02 -0.28133228189E+02  0.88558029926E+02  0.10692529086E+03  0.00000000000E+00 0. -1.
         22    1    3    3    0    0  0.75195257445E+01  0.58427102686E+01 -0.36421952316E+02  0.37646236747E+02  0.00000000000E+00 0. -1.
</event>
<event>
 7    1  0.6330892E-006  0.1802281E+03  0.7818608E-02  0.1226464E+00
          2   -1    0    0  502    0  0.00000000000E+00  0.00000000000E+00  0.13278258857E+04  0.13278258857E+04  0.00000000000E+00 0. -1.
          1   -1    0    0  501    0 -0.00000000000E+00 -0.00000000000E+00 -0.25877860870E+04  0.25877860870E+04  0.00000000000E+00 0. -1.
         25    2    1    2    0    0  0.12304191062E+03  0.20651619696E+03  0.84357720389E+03  0.88602751446E+03  0.12503601914E+03 0.  0.
          2    1    1    2  501    0 -0.36269994365E+02 -0.87522368053E+02 -0.25539498983E+04  0.25557065091E+04  0.00000000000E+00 0. -1.
          1    1    1    2  502    0 -0.86771916255E+02 -0.11899382891E+03  0.45041249314E+03  0.47387794921E+03  0.00000000000E+00 0. -1.
         22    1    3    3    0    0 -0.23256890982E+02  0.31741708692E+02  0.79918319979E+02  0.89080620323E+02  0.00000000000E+00 0.  1.
         22    1    3    3    0    0  0.14629880160E+03  0.17477448827E+03  0.76365888391E+03  0.79694689414E+03  0.00000000000E+00 0.  1.
</event>
<event>
 7    1  0.6330892E-006  0.1692267E+03  0.7818608E-02  0.1289242E+00
          2   -1    0    0  502    0  0.00000000000E+00  0.00000000000E+00  0.19394882598E+04  0.19394882598E+04  0.00000000000E+00 0. -1.
          1   -1    0    0  501    0 -0.00000000000E+00 -0.00000000000E+00 -0.44939881421E+03  0.44939881421E+03  0.00000000000E+00 0. -1.
         25    2    1    2    0    0 -0.17555424504E+03 -0.20543985978E+02  0.13155819677E+03  0.25332471842E+03  0.12499802204E+03 0.  0.
          2    1    1    2  501    0  0.15393351649E+03  0.70359924966E+02 -0.36963576893E+03  0.40654230802E+03  0.00000000000E+00 0. -1.
          1    1    1    2  502    0  0.21620728547E+02 -0.49815938988E+02  0.17281670178E+04  0.17290200476E+04  0.00000000000E+00 0. -1.
         22    1    3    3    0    0 -0.14991467257E+03  0.26373831496E+02  0.59127019297E+02  0.16329725181E+03  0.00000000000E+00 0. -1.
         22    1    3    3    0    0 -0.25639572472E+02 -0.46917817474E+02  0.72431177474E+02  0.90027466605E+02  0.00000000000E+00 0. -1.
</event>
<event>
 7    1  0.6330892E-006  0.1082416E+03  0.7818608E-02  0.1344211E+00
          2   -1    0    0  502    0  0.00000000000E+00  0.00000000000E+00  0.27325726002E+03  0.27325726002E+03  0.00000000000E+00 0. -1.
          1   -1    0    0  501    0 -0.00000000000E+00 -0.00000000000E+00 -0.12122587497E+04  0.12122587497E+04  0.00000000000E+00 0. -1.
         25    2    1    2    0    0 -0.13085790843E+03 -0.85256231905E+02 -0.17772918644E+03  0.26759150337E+03  0.12500052674E+03 0.  0.
          2    1    1    2  501    0  0.83633679152E+02  0.63932468586E+02 -0.98381405824E+03  0.98943016632E+03  0.00000000000E+00 0. -1.
          1    1    1    2  502    0  0.47224229274E+02  0.21323763319E+02  0.22254175500E+03  0.22849434004E+03  0.00000000000E+00 0. -1.
         22    1    3    3    0    0 -0.12391364572E+03 -0.93501206480E+02 -0.90475358562E+02  0.17967431011E+03  0.00000000000E+00 0.  1.
         22    1    3    3    0    0 -0.69442627071E+01  0.82449745746E+01 -0.87253827877E+02  0.87917193253E+02  0.00000000000E+00 0.  1.
</event>
<event>
 7    1  0.6330892E-006  0.2420644E+03  0.7818608E-02  0.1183949E+00
          2   -1    0    0  502    0  0.00000000000E+00  0.00000000000E+00  0.73570192566E+03  0.73570192566E+03  0.00000000000E+00 0. -1.
          1   -1    0    0  501    0 -0.00000000000E+00 -0.00000000000E+00 -0.88739530100E+03  0.88739530100E+03  0.00000000000E+00 0. -1.
         25    2    1    2    0    0  0.14865800325E+03  0.67374687688E+02  0.30262954123E+03  0.36585325798E+03  0.12500166670E+03 0.  0.
          2    1    1    2  501    0 -0.24648521279E+03 -0.13897972594E+02 -0.82970521662E+03  0.86565516244E+03  0.00000000000E+00 0. -1.
          1    1    1    2  502    0  0.97827209544E+02 -0.53476715094E+02  0.37538230005E+03  0.39158880624E+03  0.00000000000E+00 0. -1.
         22    1    3    3    0    0  0.93940745846E+02  0.96863087020E+02  0.15401132418E+03  0.20476037051E+03  0.00000000000E+00 0. -1.
         22    1    3    3    0    0  0.54717257404E+02 -0.29488399332E+02  0.14861821706E+03  0.16109288747E+03  0.00000000000E+00 0. -1.
</event>
<event>
 7    1  0.6330892E-006  0.3742774E+02  0.7818608E-02  0.1614070E+00
          2   -1    0    0  502    0  0.00000000000E+00  0.00000000000E+00  0.22547997787E+03  0.22547997787E+03  0.00000000000E+00 0. -1.
          1   -1    0    0  501    0 -0.00000000000E+00 -0.00000000000E+00 -0.21321317530E+04  0.21321317530E+04  0.00000000000E+00 0. -1.
         25    2    1    2    0    0 -0.56394146139E+02 -0.14952137344E+02 -0.14275858550E+04  0.14342350851E+04  0.12500015931E+03 0.  0.
          2    1    1    2  501    0  0.21849947815E+02  0.60453461803E+00 -0.69947482431E+03  0.69981627269E+03  0.00000000000E+00 0. -1.
          1    1    1    2  502    0  0.34544198324E+02  0.14347602726E+02  0.22040890421E+03  0.22356037305E+03  0.00000000000E+00 0. -1.
         22    1    3    3    0    0 -0.17696079964E+01  0.39366609589E+02 -0.17952427348E+03  0.18379833032E+03  0.00000000000E+00 0. -1.
         22    1    3    3    0    0 -0.54624538143E+02 -0.54318746934E+02 -0.12480615815E+04  0.12504367548E+04  0.00000000000E+00 0. -1.
</event>
<event>
 7    1  0.6330892E-006  0.5271648E+02  0.7818608E-02  0.1456690E+00
          2   -1    0    0  502    0  0.00000000000E+00  0.00000000000E+00  0.12716382691E+03  0.12716382691E+03  0.00000000000E+00 0. -1.
          1   -1    0    0  501    0 -0.00000000000E+00 -0.00000000000E+00 -0.29713841624E+03  0.29713841624E+03  0.00000000000E+00 0. -1.
         25    2    1    2    0    0 -0.54539703585E+02  0.71487146816E+02 -0.43163702633E+02  0.15992500187E+03  0.12501163774E+03 0.  0.
          2    1    1    2  501    0  0.35082821325E+02 -0.25929333843E+02 -0.18377709515E+03  0.18888397340E+03  0.00000000000E+00 0. -1.
          1    1    1    2  502    0  0.19456882259E+02 -0.45557812974E+02  0.56966208454E+02  0.75493267884E+02  0.00000000000E+00 0. -1.
         22    1    3    3    0    0 -0.38588021580E+02  0.56860561271E+02  0.36195440459E+02  0.77667681487E+02  0.00000000000E+00 0.  1.
         22    1    3    3    0    0 -0.15951682005E+02  0.14626585545E+02 -0.79359143092E+02  0.82257320378E+02  0.00000000000E+00 0.  1.
</event>
<event>
 7    1  0.6330892E-006  0.1058794E+03  0.7818608E-02  0.1430609E+00
          2   -1    0    0  502    0  0.00000000000E+00  0.00000000000E+00  0.13767041879E+03  0.13767041879E+03  0.00000000000E+00 0. -1.
          1   -1    0    0  501    0 -0.00000000000E+00 -0.00000000000E+00 -0.16291679400E+04  0.16291679400E+04  0.00000000000E+00 0. -1.
         25    2    1    2    0    0  0.10853368639E+03  0.58683952757E+02 -0.20494006152E+01  0.17565009869E+03  0.12500155893E+03 0.  0.
          2    1    1    2  501    0 -0.82988587708E+02 -0.65220986295E+02 -0.15349626098E+04  0.15385873704E+04  0.00000000000E+00 0. -1.
          1    1    1    2  502    0 -0.25545098683E+02  0.65370335375E+01  0.45514489208E+02  0.52600889746E+02  0.00000000000E+00 0. -1.
         22    1    3    3    0    0 -0.27497321450E+01  0.25950189788E+02 -0.44947968285E+02  0.51973966847E+02  0.00000000000E+00 0. -1.
         22    1    3    3    0    0  0.11128341854E+03  0.32733762969E+02  0.42898567670E+02  0.12367613184E+03  0.00000000000E+00 0. -1.
</event>
<event>
 7    1  0.6330892E-006  0.5218782E+02  0.7818608E-02  0.1510215E+00
          2   -1    0    0  502    0  0.00000000000E+00  0.00000000000E+00  0.14449541471E+03  0.14449541471E+03  0.00000000000E+00 0. -1.
          1   -1    0    0  501    0 -0.00000000000E+00 -0.00000000000E+00 -0.18083060275E+04  0.18083060275E+04  0.00000000000E+00 0. -1.
         25    2    1    2    0    0 -0.22150178054E+02 -0.25164981565E+01 -0.49145629789E+03  0.50759459269E+03  0.12500405851E+03 0.  0.
          2    1    1    2  501    0 -0.30232873654E+02 -0.84272418740E+00 -0.13035496672E+04  0.13039004838E+04  0.00000000000E+00 0. -1.
          1    1    1    2  502    0  0.52383051708E+02  0.33592223439E+01  0.13119535237E+03  0.14130636562E+03  0.00000000000E+00 0. -1.
         22    1    3    3    0    0 -0.52439836414E+02  0.82648166723E+01 -0.87388268934E+02  0.10224946545E+03  0.00000000000E+00 0.  1.
         22    1    3    3    0    0  0.30289658361E+02 -0.10781314829E+02 -0.40406802895E+03  0.40534512724E+03  0.00000000000E+00 0.  1.
</event>
<event>
 7    1  0.6330892E-006  0.8436761E+02  0.7818608E-02  0.1383412E+00
          2   -1    0    0  502    0  0.00000000000E+00  0.00000000000E+00  0.21240985599E+04  0.21240985599E+04  0.00000000000E+00 0. -1.
          1   -1    0    0  501    0 -0.00000000000E+00 -0.00000000000E+00 -0.28896316291E+03  0.28896316291E+03  0.00000000000E+00 0. -1.
         25    2    1    2    0    0  0.10147870978E+03  0.55077523191E+02  0.35272660097E+03  0.39162831954E+03  0.12500089416E+03 0.  0.
          2    1    1    2  501    0 -0.19081486772E+02 -0.43943125527E+02 -0.26638780047E+03  0.27066134127E+03  0.00000000000E+00 0. -1.
          1    1    1    2  502    0 -0.82397223004E+02 -0.11134397665E+02  0.17487965965E+04  0.17507720620E+04  0.00000000000E+00 0. -1.
         22    1    3    3    0    0 -0.80236153152E+01 -0.23076152984E+02  0.12304628473E+03  0.12544829781E+03  0.00000000000E+00 0. -1.
         22    1    3    3    0    0  0.10950232509E+03  0.78153676175E+02  0.22968031624E+03  0.26618002173E+03  0.00000000000E+00 0. -1.
</event>
<event>
 7    1  0.6330892E-006  0.9861775E+02  0.7818608E-02  0.1383696E+00
          2   -1    0    0  502    0  0.00000000000E+00  0.00000000000E+00  0.33375688609E+03  0.33375688609E+03  0.00000000000E+00 0. -1.
          1   -1    0    0  501    0 -0.00000000000E+00 -0.00000000000E+00 -0.20463000086E+03  0.20463000086E+03  0.00000000000E+00 0. -1.
         25    2    1    2    0    0 -0.58729500225E+02  0.17775651587E+02  0.13437442231E+03  0.19351183279E+03  0.12500086429E+03 0.  0.
          2    1    1    2  501    0  0.99041528475E+02 -0.24628666840E+02 -0.15725168687E+03  0.18746703341E+03  0.00000000000E+00 0. -1.
          1    1    1    2  502    0 -0.40312028250E+02  0.68530152535E+01  0.15200414979E+03  0.15740802074E+03  0.00000000000E+00 0. -1.
         22    1    3    3    0    0 -0.38708293730E+02 -0.39367574111E+02  0.11307179345E+02  0.56355924264E+02  0.00000000000E+00 0.  1.
         22    1    3    3    0    0 -0.20021206495E+02  0.57143225697E+02  0.12306724296E+03  0.13715590853E+03  0.00000000000E+00 0.  1.
</event>
<event>
 7    1  0.6330892E-006  0.3993500E+02  0.7818608E-02  0.1533726E+00
          2   -1    0    0  502    0  0.00000000000E+00  0.00000000000E+00  0.24252926620E+03  0.24252926620E+03  0.00000000000E+00 0. -1.
          1   -1    0    0  501    0 -0.00000000000E+00 -0.00000000000E+00 -0.68996455114E+03  0.68996455114E+03  0.00000000000E+00 0. -1.
         25    2    1    2    0    0 -0.60704450729E+02 -0.35811125635E+02 -0.16409076844E+03  0.21798424315E+03  0.12499553159E+03 0.  0.
          2    1    1    2  501    0  0.37451777756E+02  0.11296553069E+02 -0.49682957621E+03  0.49836720956E+03  0.00000000000E+00 0. -1.
          1    1    1    2  502    0  0.23252672973E+02  0.24514572566E+02  0.21348505971E+03  0.21614236463E+03  0.00000000000E+00 0. -1.
         22    1    3    3    0    0  0.62682807009E+01  0.32319466209E+02 -0.62904885093E+01  0.33517301274E+02  0.00000000000E+00 0. -1.
         22    1    3    3    0    0 -0.66972731430E+02 -0.68130591845E+02 -0.15780027993E+03  0.18446694188E+03  0.00000000000E+00 0. -1.
</event>
<event>
 7    1  0.6330892E-006  0.7973553E+02  0.7818608E-02  0.1390735E+00
          2   -1    0    0  502    0  0.00000000000E+00  0.00000000000E+00  0.82471819503E+02  0.82471819503E+02  0.00000000000E+00 0. -1.
          1   -1    0    0  501    0 -0.00000000000E+00 -0.00000000000E+00 -0.12430309693E+04  0.12430309693E+04  0.00000000000E+00 0. -1.
         25    2    1    2    0    0 -0.14416690641E+02  0.36946848667E+02 -0.25203663572E+03  0.28411692524E+03  0.12500820319E+03 0.  0.
          2    1    1    2  501    0 -0.38706908711E+02  0.28015388408E+02 -0.94760821193E+03  0.94881210474E+03  0.00000000000E+00 0. -1.
          1    1    1    2  502    0  0.53123599352E+02 -0.64962237075E+02  0.39085697831E+02  0.92573758857E+02  0.00000000000E+00 0. -1.
         22    1    3    3    0    0 -0.47234799089E+00 -0.10425819353E+02 -0.22966740433E+03  0.22990440934E+03  0.00000000000E+00 0. -1.
         22    1    3    3    0    0 -0.13944342650E+02  0.47372668020E+02 -0.22369231398E+02  0.54212515904E+02  0.00000000000E+00 0. -1.
</event>
<event>
 7    1  0.6330892E-006  0.6973577E+02  0.7818608E-02  0.1463801E+00
          2   -1    0    0  502    0  0.00000000000E+00  0.00000000000E+00  0.11276983884E+03  0.11276983884E+03  0.00000000000E+00 0. -1.
          1   -1    0    0  501    0 -0.00000000000E+00 -0.00000000000E+00 -0.31654827165E+03  0.31654827165E+03  0.00000000000E+00 0. -1.
         25    2    1    2    0    0 -0.23845241513E+02 -0.40922790126E+02 -0.35254118459E+02  0.13824468173E+03  0.12500187544E+03 0.  0.
          2    1    1    2  501    0 -0.27046360114E+02 -0.15790679996E+02 -0.20444627103E+03  0.20683116039E+03  0.00000000000E+00 0. -1.
          1    1    1    2  502    0  0.50891601627E+02  0.56713470121E+02  0.35921956672E+02  0.84242268372E+02  0.00000000000E+00 0. -1.
         22    1    3    3    0    0  0.15963050598E+02 -0.47567508111E+02 -0.69221981064E+02  0.85493680905E+02  0.00000000000E+00 0.  1.
         22    1    3    3    0    0 -0.39808292111E+02  0.66447179852E+01  0.33967862605E+02  0.52751000823E+02  0.00000000000E+00 0.  1.
</event>
<event>
 7    1  0.6330892E-006  0.5660870E+02  0.7818608E-02  0.1466054E+00
          2   -1    0    0  502    0  0.00000000000E+00  0.00000000000E+00  0.17496892852E+03  0.17496892852E+03  0.00000000000E+00 0. -1.
          1   -1    0    0  501    0 -0.00000000000E+00 -0.00000000000E+00 -0.90810292950E+03  0.90810292950E+03  0.00000000000E+00 0. -1.
         25    2    1    2    0    0  0.13016346017E+02  0.65232847759E+02 -0.13823000120E+03  0.19790127273E+03  0.12503051958E+03 0.  0.
          2    1    1    2  501    0 -0.35569521870E+02 -0.13255310422E+02 -0.73399816686E+03  0.73497904943E+03  0.00000000000E+00 0. -1.
          1    1    1    2  502    0  0.22553175852E+02 -0.51977537337E+02  0.13909416708E+03  0.15019153586E+03  0.00000000000E+00 0. -1.
         22    1    3    3    0    0  0.22363523125E+02  0.10150986585E+03 -0.96662634362E+02  0.14194380900E+03  0.00000000000E+00 0. -1.
         22    1    3    3    0    0 -0.93471771077E+01 -0.36277018090E+02 -0.41567366836E+02  0.55957463729E+02  0.00000000000E+00 0. -1.
</event>
<event>
 7    1  0.6330892E-006  0.7173438E+02  0.7818608E-02  0.1361326E+00
          2   -1    0    0  502    0  0.00000000000E+00  0.00000000000E+00  0.25333598171E+04  0.25333598171E+04  0.00000000000E+00 0. -1.
          1   -1    0    0  501    0 -0.00000000000E+00 -0.00000000000E+00 -0.46814517769E+03  0.46814517769E+03  0.00000000000E+00 0. -1.
         25    2    1    2    0    0 -0.15839821016E+02  0.97892024614E+02  0.10245748198E+04  0.10369244308E+04  0.12499986176E+03 0.  0.
          2    1    1    2  501    0 -0.40306674434E+02 -0.54274408071E+02 -0.45865015465E+03  0.46360576327E+03  0.00000000000E+00 0. -1.
          1    1    1    2  502    0  0.56146495450E+02 -0.43617616543E+02  0.14992899743E+04  0.15009748008E+04  0.00000000000E+00 0. -1.
         22    1    3    3    0    0 -0.15631226551E+02  0.88507612878E+02  0.10235426325E+04  0.10274811207E+04  0.00000000000E+00 0. -1.
         22    1    3    3    0    0 -0.20859446518E+00  0.93844117355E+01  0.10321872598E+01  0.94433101088E+01  0.00000000000E+00 0. -1.
</event>
<event>
 7    1  0.6330892E-006  0.7810933E+02  0.7818608E-02  0.1390631E+00
          2   -1    0    0  502    0  0.00000000000E+00  0.00000000000E+00  0.59440028852E+03  0.59440028852E+03  0.00000000000E+00 0. -1.
          1   -1    0    0  501    0 -0.00000000000E+00 -0.00000000000E+00 -0.35433474967E+03  0.35433474967E+03  0.00000000000E+00 0. -1.
         25    2    1    2    0    0 -0.49521583764E+02 -0.11208018779E+03  0.35673069258E+03  0.39736202024E+03  0.12500172936E+03 0.  0.
          2    1    1    2  501    0  0.16935536483E+02  0.75731044507E+02 -0.32667416502E+03  0.33576481887E+03  0.00000000000E+00 0. -1.
          1    1    1    2  502    0  0.32586047281E+02  0.36349143285E+02  0.21000901128E+03  0.21560819909E+03  0.00000000000E+00 0. -1.
         22    1    3    3    0    0 -0.46086886182E+02 -0.12787019694E+03  0.21265207537E+03  0.25238005766E+03  0.00000000000E+00 0.  1.
         22    1    3    3    0    0 -0.34346975817E+01  0.15790009148E+02  0.14407861721E+03  0.14498196258E+03  0.00000000000E+00 0.  1.
</event>
<event>
 7    1  0.6330892E-006  0.5164813E+02  0.7818608E-02  0.1465250E+00
          2   -1    0    0  502    0  0.00000000000E+00  0.00000000000E+00  0.88268343178E+03  0.88268343178E+03  0.00000000000E+00 0. -1.
          1   -1    0    0  501    0 -0.00000000000E+00 -0.00000000000E+00 -0.12250872987E+03  0.12250872987E+03  0.00000000000E+00 0. -1.
         25    2    1    2    0    0  0.46472011922E+02  0.39165466474E+02  0.60675731608E+03  0.62247322157E+03  0.12499955722E+03 0.  0.
          2    1    1    2  501    0 -0.39784471398E+02  0.12974693732E+02 -0.10812801987E+03  0.11594315643E+03  0.00000000000E+00 0. -1.
          1    1    1    2  502    0 -0.66875405237E+01 -0.52140160206E+02  0.26154540570E+03  0.26677578366E+03  0.00000000000E+00 0. -1.
         22    1    3    3    0    0 -0.10076342407E+02  0.18033515880E+02  0.10509812434E+02  0.23177500484E+02  0.00000000000E+00 0.  1.
         22    1    3    3    0    0  0.56548354329E+02  0.21131950594E+02  0.59624750364E+03  0.59929572109E+03  0.00000000000E+00 0.  1.
</event>
<event>
 7    1  0.6330892E-006  0.8124628E+02  0.7818608E-02  0.1409825E+00
          2   -1    0    0  502    0  0.00000000000E+00  0.00000000000E+00  0.21517600772E+04  0.21517600772E+04  0.00000000000E+00 0. -1.
          1   -1    0    0  501    0 -0.00000000000E+00 -0.00000000000E+00 -0.40659153878E+03  0.40659153878E+03  0.00000000000E+00 0. -1.
         25    2    1    2    0    0  0.22829310688E+02 -0.55079708536E+02  0.31081126879E+03  0.34027271159E+03  0.12500768668E+03 0.  0.
          2    1    1    2  501    0 -0.29295299140E+02 -0.27699129416E+02 -0.38987699005E+03  0.39195602265E+03  0.00000000000E+00 0. -1.
          1    1    1    2  502    0  0.64659884525E+01  0.82778837952E+02  0.18242342597E+04  0.18261228817E+04  0.00000000000E+00 0. -1.
         22    1    3    3    0    0  0.13478343905E+01 -0.55892791672E+02  0.31364571506E+03  0.31858979173E+03  0.00000000000E+00 0.  1.
         22    1    3    3    0    0  0.21481476297E+02  0.81308313554E+00 -0.28344462730E+01  0.21682919862E+02  0.00000000000E+00 0.  1.
</event>
<event>
 7    1  0.6330892E-006  0.7765184E+02  0.7818608E-02  0.1434852E+00
          2   -1    0    0  502    0  0.00000000000E+00  0.00000000000E+00  0.20430404481E+04  0.20430404481E+04  0.00000000000E+00 0. -1.
          1   -1    0    0  501    0 -0.00000000000E+00 -0.00000000000E+00 -0.72819585883E+03  0.72819585883E+03  0.00000000000E+00 0. -1.
         25    2    1    2    0    0 -0.46221489090E+02  0.56799087111E+02 -0.30685721630E+03  0.33933803772E+03  0.12500556107E+03 0.  0.
          2    1    1    2  501    0  0.72597970996E+02 -0.34068177639E+02 -0.40097806608E+03  0.40891871514E+03  0.00000000000E+00 0. -1.
          1    1    1    2  502    0 -0.26376481906E+02 -0.22730909471E+02  0.20226798717E+04  0.20229795541E+04  0.00000000000E+00 0. -1.
         22    1    3    3    0    0 -0.46608311301E+02  0.93305752316E+02 -0.18792178481E+03  0.21492532495E+03  0.00000000000E+00 0. -1.
         22    1    3    3    0    0  0.38682221118E+00 -0.36506665206E+02 -0.11893543149E+03  0.12441271277E+03  0.00000000000E+00 0. -1.
</event>
<event>
 7    1  0.6330892E-006  0.7155639E+02  0.7818608E-02  0.1441852E+00
          2   -1    0    0  502    0  0.00000000000E+00  0.00000000000E+00  0.15455769306E+04  0.15455769306E+04  0.00000000000E+00 0. -1.
          1   -1    0    0  501    0 -0.00000000000E+00 -0.00000000000E+00 -0.24281267894E+03  0.24281267894E+03  0.00000000000E+00 0. -1.
         25    2    1    2    0    0  0.71563001120E+02  0.29746297792E+02  0.12369759030E+04  0.12456898264E+04  0.12501061366E+03 0.  0.
          2    1    1    2  501    0 -0.71307198939E+02  0.61085263256E+01 -0.23198590051E+03  0.24277456364E+03  0.00000000000E+00 0. -1.
          1    1    1    2  502    0 -0.25580218043E+00 -0.35854824118E+02  0.29777424912E+03  0.29992521949E+03  0.00000000000E+00 0. -1.
         22    1    3    3    0    0 -0.21594930266E+02 -0.21894223492E+02  0.12939453542E+03  0.13299866102E+03  0.00000000000E+00 0.  1.
         22    1    3    3    0    0  0.93157931386E+02  0.51640521284E+02  0.11075813676E+04  0.11126911654E+04  0.00000000000E+00 0.  1.
</event>
<event>
 7    1  0.6330892E-006  0.1034789E+03  0.7818608E-02  0.1351051E+00
          2   -1    0    0  502    0  0.00000000000E+00  0.00000000000E+00  0.15937874103E+03  0.15937874103E+03  0.00000000000E+00 0. -1.
          1   -1    0    0  501    0 -0.00000000000E+00 -0.00000000000E+00 -0.13290076565E+04  0.13290076565E+04  0.00000000000E+00 0. -1.
         25    2    1    2    0    0  0.10896286553E+03 -0.87439680939E+02 -0.20020592667E+03  0.27427338089E+03  0.12499948209E+03 0.  0.
          2    1    1    2  501    0 -0.58015368409E+02  0.83278454820E+02 -0.10839525363E+04  0.10886937976E+04  0.00000000000E+00 0. -1.
          1    1    1    2  502    0 -0.50947497124E+02  0.41612261187E+01  0.11452954747E+03  0.12541921906E+03  0.00000000000E+00 0. -1.
         22    1    3    3    0    0  0.17011057356E+02  0.31944986993E+02 -0.47708173554E+02  0.59882619266E+02  0.00000000000E+00 0. -1.
         22    1    3    3    0    0  0.91951808177E+02 -0.11938466793E+03 -0.15249775312E+03  0.21439076163E+03  0.00000000000E+00 0. -1.
</event>
<event>
 7    1  0.6330892E-006  0.9035093E+02  0.7818608E-02  0.1386127E+00
          2   -1    0    0  502    0  0.00000000000E+00  0.00000000000E+00  0.88167045875E+03  0.88167045875E+03  0.00000000000E+00 0. -1.
          1   -1    0    0  501    0 -0.00000000000E+00 -0.00000000000E+00 -0.23064033117E+03  0.23064033117E+03  0.00000000000E+00 0. -1.
         25    2    1    2    0    0  0.70179044191E+01  0.47683502743E+02 -0.21223153934E+02  0.13564090913E+03  0.12500026620E+03 0.  0.
          2    1    1    2  501    0  0.22338664327E+00  0.43761335551E+02 -0.14644744350E+03  0.15284619098E+03  0.00000000000E+00 0. -1.
          1    1    1    2  502    0 -0.72412910623E+01 -0.91444838294E+02  0.81870072502E+03  0.82382368981E+03  0.00000000000E+00 0. -1.
         22    1    3    3    0    0  0.49407503273E+02  0.67724083609E+02 -0.27741038159E+02  0.88301857729E+02  0.00000000000E+00 0. -1.
         22    1    3    3    0    0 -0.42389598854E+02 -0.20040580866E+02  0.65178842243E+01  0.47339051398E+02  0.00000000000E+00 0. -1.
</event>
<event>
 7    1  0.6330892E-006  0.8594007E+02  0.7818608E-02  0.1351459E+00
          2   -1    0    0  502    0  0.00000000000E+00  0.00000000000E+00  0.93362082141E+02  0.93362082141E+02  0.00000000000E+00 0. -1.
          1   -1    0    0  501    0 -0.00000000000E+00 -0.00000000000E+00 -0.33055143829E+03  0.33055143829E+03  0.00000000000E+00 0. -1.
         25    2    1    2    0    0  0.36422926149E+02 -0.18876055323E+00 -0.37740469177E+02  0.13555076321E+03  0.12499200460E+03 0.  0.
          2    1    1    2  501    0 -0.95862663117E+02  0.15320032663E+02 -0.20495180541E+03  0.22678094303E+03  0.00000000000E+00 0. -1.
          1    1    1    2  502    0  0.59439736968E+02 -0.15131272110E+02  0.55029184463E+01  0.61581814182E+02  0.00000000000E+00 0. -1.
         22    1    3    3    0    0 -0.37629018389E+02 -0.16830771146E+02  0.14179836999E+02  0.43592266053E+02  0.00000000000E+00 0.  1.
         22    1    3    3    0    0  0.74051944538E+02  0.16642010593E+02 -0.51920306176E+02  0.91958497160E+02  0.00000000000E+00 0.  1.
</event>
<event>
 7    1  0.6330892E-006  0.4720068E+02  0.7818608E-02  0.1516295E+00
          2   -1    0    0  502    0  0.00000000000E+00  0.00000000000E+00  0.35342924308E+04  0.35342924308E+04  0.00000000000E+00 0. -1.
          1   -1    0    0  501    0 -0.00000000000E+00 -0.00000000000E+00 -0.43832184012E+02  0.43832184012E+02  0.00000000000E+00 0. -1.
         25    2    1    2    0    0 -0.44418663490E+02 -0.26278408374E+02  0.15592262035E+04  0.15650795494E+04  0.12499627910E+03 0.  0.
          2    1    1    2  501    0  0.17570997056E+02  0.43866800473E+02 -0.27082469552E+02  0.54465551299E+02  0.00000000000E+00 0. -1.
          1    1    1    2  502    0  0.26847666433E+02 -0.17588392099E+02  0.19583165129E+04  0.19585795142E+04  0.00000000000E+00 0. -1.
         22    1    3    3    0    0 -0.57084961153E+01 -0.50105089753E+02  0.13513944244E+04  0.13523350166E+04  0.00000000000E+00 0. -1.
         22    1    3    3    0    0 -0.38710167374E+02  0.23826681379E+02  0.20783177909E+03  0.21274453273E+03  0.00000000000E+00 0. -1.
</event>
<event>
 7    1  0.6330892E-006  0.4149789E+02  0.7818608E-02  0.1539233E+00
          2   -1    0    0  502    0  0.00000000000E+00  0.00000000000E+00  0.40609543912E+03  0.40609543912E+03  0.00000000000E+00 0. -1.
          1   -1    0    0  501    0 -0.00000000000E+00 -0.00000000000E+00 -0.85317806102E+02  0.85317806102E+02  0.00000000000E+00 0. -1.
         25    2    1    2    0    0  0.41937369060E+01  0.63895021585E+02  0.87999450670E+02  0.16573838643E+03  0.12500059282E+03 0.  0.
          2    1    1    2  501    0  0.14694054602E+02 -0.27710792791E+02 -0.39452372034E+02  0.50401318801E+02  0.00000000000E+00 0. -1.
          1    1    1    2  502    0 -0.18887791508E+02 -0.36184228794E+02  0.27223055438E+03  0.27527354000E+03  0.00000000000E+00 0. -1.
         22    1    3    3    0    0  0.26158587080E+02  0.53558346408E+02 -0.13718812162E+02  0.61163501821E+02  0.00000000000E+00 0.  1.
         22    1    3    3    0    0 -0.21964850174E+02  0.10336675177E+02  0.10171826283E+03  0.10457488461E+03  0.00000000000E+00 0.  1.
</event>
<event>
 7    1  0.6330892E-006  0.1669855E+03  0.7818608E-02  0.1360036E+00
          2   -1    0    0  502    0  0.00000000000E+00  0.00000000000E+00  0.70953796368E+03  0.70953796368E+03  0.00000000000E+00 0. -1.
          1   -1    0    0  501    0 -0.00000000000E+00 -0.00000000000E+00 -0.10967090848E+04  0.10967090848E+04  0.00000000000E+00 0. -1.
         25    2    1    2    0    0  0.13705013784E+03 -0.13850770343E+03  0.86534015838E+02  0.24714645153E+03  0.12500443357E+03 0.  0.
          2    1    1    2  501    0 -0.11964014690E+03  0.11486918030E+03 -0.10092319478E+04  0.10227696798E+04  0.00000000000E+00 0. -1.
          1    1    1    2  502    0 -0.17409990941E+02  0.23638523138E+02  0.53552681088E+03  0.53633091718E+03  0.00000000000E+00 0. -1.
         22    1    3    3    0    0  0.11013205436E+03 -0.90206971089E+02  0.11677061915E+03  0.18412426382E+03  0.00000000000E+00 0.  1.
         22    1    3    3    0    0  0.26918083479E+02 -0.48300732344E+02 -0.30236603314E+02  0.63022187705E+02  0.00000000000E+00 0.  1.
</event>
<event>
 7    1  0.6330892E-006  0.3570938E+02  0.7818608E-02  0.1594966E+00
          2   -1    0    0  502    0  0.00000000000E+00  0.00000000000E+00  0.88810941254E+01  0.88810941254E+01  0.00000000000E+00 0. -1.
          1   -1    0    0  501    0 -0.00000000000E+00 -0.00000000000E+00 -0.11024871246E+04  0.11024871246E+04  0.00000000000E+00 0. -1.
         25    2    1    2    0    0  0.22055101982E+01 -0.16501114713E+02 -0.65190305639E+03  0.66398844887E+03  0.12500365692E+03 0.  0.
          2    1    1    2  501    0 -0.61335406591E+01 -0.24940404832E+02 -0.24361719763E+03  0.24496731026E+03  0.00000000000E+00 0. -1.
          1    1    1    2  502    0  0.39280304609E+01  0.41441519545E+02 -0.19808577646E+03  0.20241245960E+03  0.00000000000E+00 0. -1.
         22    1    3    3    0    0  0.16795232381E+02  0.38338628526E+02 -0.50137483327E+03  0.50311892601E+03  0.00000000000E+00 0.  1.
         22    1    3    3    0    0 -0.14589722183E+02 -0.54839743239E+02 -0.15052822312E+03  0.16086952287E+03  0.00000000000E+00 0.  1.
</event>
<event>
 7    1  0.6330892E-006  0.9107541E+02  0.7818608E-02  0.1441824E+00
          2   -1    0    0  502    0  0.00000000000E+00  0.00000000000E+00  0.17130668827E+03  0.17130668827E+03  0.00000000000E+00 0. -1.
          1   -1    0    0  501    0 -0.00000000000E+00 -0.00000000000E+00 -0.36151541822E+03  0.36151541822E+03  0.00000000000E+00 0. -1.
         25    2    1    2    0    0  0.90632611159E+02 -0.95604542759E+01 -0.68113429024E+02  0.16902804467E+03  0.12500147271E+03 0.  0.
          2    1    1    2  501    0 -0.83939793409E+02  0.36931216976E+02 -0.23245700074E+03  0.24989209851E+03  0.00000000000E+00 0. -1.
          1    1    1    2  502    0 -0.66928177499E+01 -0.27370762700E+02  0.11036169982E+03  0.11390196332E+03  0.00000000000E+00 0. -1.
         22    1    3    3    0    0 -0.25897197408E+02  0.21277010410E+02 -0.21320411504E+02  0.39723241965E+02  0.00000000000E+00 0. -1.
         22    1    3    3    0    0  0.11652980857E+03 -0.30837464685E+02 -0.46793017519E+02  0.12930480270E+03  0.00000000000E+00 0. -1.
</event>
<event>
 7    1  0.6330892E-006  0.6453420E+02  0.7818608E-02  0.1504887E+00
          2   -1    0    0  502    0  0.00000000000E+00  0.00000000000E+00  0.27371049197E+04  0.27371049197E+04  0.00000000000E+00 0. -1.
          1   -1    0    0  501    0 -0.00000000000E+00 -0.00000000000E+00 -0.26484756053E+02  0.26484756053E+02  0.00000000000E+00 0. -1.
         25    2    1    2    0    0 -0.72190819507E+02  0.46009818568E+02  0.11907560969E+04  0.12003587375E+04  0.12503039067E+03 0.  0.
          2    1    1    2  501    0  0.58892322205E+02 -0.24415325706E+02  0.25518653828E+02  0.68670338846E+02  0.00000000000E+00 0. -1.
          1    1    1    2  502    0  0.13298497302E+02 -0.21594492862E+02  0.14943454129E+04  0.14945605994E+04  0.00000000000E+00 0. -1.
         22    1    3    3    0    0 -0.64483312815E+02  0.54003037365E+02  0.11847551183E+04  0.11877369726E+04  0.00000000000E+00 0. -1.
         22    1    3    3    0    0 -0.77075066916E+01 -0.79932187976E+01  0.60009786074E+01  0.12621764948E+02  0.00000000000E+00 0. -1.
</event>
<event>
 7    1  0.6330892E-006  0.4060583E+02  0.7818608E-02  0.1559065E+00
          2   -1    0    0  502    0  0.00000000000E+00  0.00000000000E+00  0.24834460706E+03  0.24834460706E+03  0.00000000000E+00 0. -1.
          1   -1    0    0  501    0 -0.00000000000E+00 -0.00000000000E+00 -0.34891117433E+03  0.34891117433E+03  0.00000000000E+00 0. -1.
         25    2    1    2    0    0  0.19538419252E+02  0.81597038987E+01 -0.34603214440E+02  0.13141920487E+03  0.12500117745E+03 0.  0.
          2    1    1    2  501    0 -0.39780910783E+02  0.11497886912E+02 -0.26327800550E+03  0.26651459706E+03  0.00000000000E+00 0. -1.
          1    1    1    2  502    0  0.20242491531E+02 -0.19657590811E+02  0.19731465267E+03  0.19932197947E+03  0.00000000000E+00 0. -1.
         22    1    3    3    0    0  0.31049691276E+02 -0.39249800289E+02 -0.58589763206E+02  0.77054464527E+02  0.00000000000E+00 0.  1.
         22    1    3    3    0    0 -0.11511272025E+02  0.47409504187E+02  0.23986548766E+02  0.54364740343E+02  0.00000000000E+00 0.  1.
</event>
<event>
 7    1  0.6330892E-006  0.9751716E+02  0.7818608E-02  0.1297668E+00
          2   -1    0    0  502    0  0.00000000000E+00  0.00000000000E+00  0.36634957331E+03  0.36634957331E+03  0.00000000000E+00 0. -1.
          1   -1    0    0  501    0 -0.00000000000E+00 -0.00000000000E+00 -0.74103992464E+03  0.74103992464E+03  0.00000000000E+00 0. -1.
         25    2    1    2    0    0  0.11167837031E+02  0.78969910314E+02  0.11588879449E+02  0.14873076248E+03  0.12500228103E+03 0.  0.
          2    1    1    2  501    0 -0.86831864341E+02 -0.71509603010E+01 -0.66000319835E+03  0.66572902200E+03  0.00000000000E+00 0. -1.
          1    1    1    2  502    0  0.75664027310E+02 -0.71818950013E+02  0.27372396758E+03  0.29292971347E+03  0.00000000000E+00 0. -1.
         22    1    3    3    0    0  0.54685688253E+02  0.34153790330E+02  0.44289301723E+02  0.78221148935E+02  0.00000000000E+00 0. -1.
         22    1    3    3    0    0 -0.43517851222E+02  0.44816119983E+02 -0.32700422273E+02  0.70509613544E+02  0.00000000000E+00 0. -1.
</event>
<event>
 7    1  0.6330892E-006  0.6281880E+02  0.7818608E-02  0.1391367E+00
          2   -1    0    0  502    0  0.00000000000E+00  0.00000000000E+00  0.54749074144E+03  0.54749074144E+03  0.00000000000E+00 0. -1.
          1   -1    0    0  501    0 -0.00000000000E+00 -0.00000000000E+00 -0.37992803219E+03  0.37992803219E+03  0.00000000000E+00 0. -1.
         25    2    1    2    0    0 -0.62355583893E+02  0.27038999120E+02 -0.10208575896E+03  0.17511759572E+03  0.12500137532E+03 0.  0.
          2    1    1    2  501    0  0.49331286737E+02  0.34750475694E+02 -0.23555774661E+03  0.24316377897E+03  0.00000000000E+00 0. -1.
          1    1    1    2  502    0  0.13024297156E+02 -0.61789474814E+02  0.50520621482E+03  0.50913739894E+03  0.00000000000E+00 0. -1.
         22    1    3    3    0    0 -0.96138703983E+02  0.18897823446E+02 -0.10046181449E+03  0.14032944917E+03  0.00000000000E+00 0.  1.
         22    1    3    3    0    0  0.33783120091E+02  0.81411756741E+01 -0.16239444667E+01  0.34788146545E+02  0.00000000000E+00 0.  1.
</event>
<event>
 7    1  0.6330892E-006  0.1522349E+03  0.7818608E-02  0.1290501E+00
          2   -1    0    0  502    0  0.00000000000E+00  0.00000000000E+00  0.15949127157E+04  0.15949127157E+04  0.00000000000E+00 0. -1.
          1   -1    0    0  501    0 -0.00000000000E+00 -0.00000000000E+00 -0.12166887131E+03  0.12166887131E+03  0.00000000000E+00 0. -1.
         25    2    1    2    0    0  0.11176495093E+03 -0.54601266857E+02  0.10734595187E+04  0.10878481411E+04  0.12500214842E+03 0.  0.
          2    1    1    2  501    0 -0.15353290290E+03  0.12002542114E+02 -0.59865599356E+02  0.16522803417E+03  0.00000000000E+00 0. -1.
          1    1    1    2  502    0  0.41767951969E+02  0.42598724743E+02  0.45964992504E+03  0.46350541178E+03  0.00000000000E+00 0. -1.
         22    1    3    3    0    0  0.48575556968E+02  0.28236135840E+02  0.18619931573E+03  0.19449177175E+03  0.00000000000E+00 0. -1.
         22    1    3    3    0    0  0.63189393962E+02 -0.82837402698E+02  0.88726020299E+03  0.89335636932E+03  0.00000000000E+00 0. -1.
</event>
<event>
 7    1  0.6330892E-006  0.5075990E+02  0.7818608E-02  0.1563631E+00
          2   -1    0    0  502    0  0.00000000000E+00  0.00000000000E+00  0.28273643473E+04  0.28273643473E+04  0.00000000000E+00 0. -1.
          1   -1    0    0  501    0 -0.00000000000E+00 -0.00000000000E+00 -0.13056720648E+04  0.13056720648E+04  0.00000000000E+00 0. -1.
         25    2    1    2    0    0  0.34643460411E+02  0.10514443078E+01  0.37365170140E+03  0.39552721382E+03  0.12499963211E+03 0.  0.
          2    1    1    2  501    0  0.13026268682E+02  0.17641311010E+02 -0.12943730982E+04  0.12945588503E+04  0.00000000000E+00 0. -1.
          1    1    1    2  502    0 -0.47669729094E+02 -0.18692755318E+02  0.24424136792E+04  0.24429503480E+04  0.00000000000E+00 0. -1.
         22    1    3    3    0    0  0.78936555649E+02 -0.16429163828E+02  0.26254109058E+03  0.27464289812E+03  0.00000000000E+00 0. -1.
         22    1    3    3    0    0 -0.44293095238E+02  0.17480608136E+02  0.11111061082E+03  0.12088431571E+03  0.00000000000E+00 0. -1.
</event>
<event>
 7    1  0.6330892E-006  0.7621235E+02  0.7818608E-02  0.1510295E+00
          2   -1    0    0  502    0  0.00000000000E+00  0.00000000000E+00  0.85089443416E+03  0.85089443416E+03  0.00000000000E+00 0. -1.
          1   -1    0    0  501    0 -0.00000000000E+00 -0.00000000000E+00 -0.45318372183E+02  0.45318372183E+02  0.00000000000E+00 0. -1.
         25    2    1    2    0    0 -0.57284088597E+02  0.72183095227E+02  0.33028170627E+03  0.36497025141E+03  0.12500165147E+03 0.  0.
          2    1    1    2  501    0  0.18406399907E+02 -0.94690269148E+01 -0.21003776794E+02  0.29489263603E+02  0.00000000000E+00 0. -1.
          1    1    1    2  502    0  0.38877688689E+02 -0.62714068312E+02  0.49629813250E+03  0.50175329133E+03  0.00000000000E+00 0. -1.
         22    1    3    3    0    0 -0.52809904143E+02 -0.80424316274E+01  0.23176545429E+03  0.23784194854E+03  0.00000000000E+00 0. -1.
         22    1    3    3    0    0 -0.44741844536E+01  0.80225526854E+02  0.98516251979E+02  0.12712830287E+03  0.00000000000E+00 0. -1.
</event>
<event>
 7    1  0.6330892E-006  0.1802121E+03  0.7818608E-02  0.1309191E+00
          2   -1    0    0  502    0  0.00000000000E+00  0.00000000000E+00  0.48010781739E+03  0.48010781739E+03  0.00000000000E+00 0. -1.
          1   -1    0    0  501    0 -0.00000000000E+00 -0.00000000000E+00 -0.13376375588E+04  0.13376375588E+04  0.00000000000E+00 0. -1.
         25    2    1    2    0    0  0.57419358740E+02 -0.17657823535E+03 -0.30611614941E+03  0.37922184406E+03  0.12500101650E+03 0.  0.
          2    1    1    2  501    0 -0.15084555940E+02  0.17925150051E+03 -0.98579640167E+03  0.10020744432E+04  0.00000000000E+00 0. -1.
          1    1    1    2  502    0 -0.42334802800E+02 -0.26732651655E+01  0.43438280966E+03  0.43644908890E+03  0.00000000000E+00 0. -1.
         22    1    3    3    0    0  0.60609093572E+02 -0.18064855172E+03 -0.21232421447E+03  0.28528745768E+03  0.00000000000E+00 0. -1.
         22    1    3    3    0    0 -0.31897348320E+01  0.40703163736E+01 -0.93791934943E+02  0.93934386377E+02  0.00000000000E+00 0. -1.
</event>
<event>
 7    1  0.6330892E-006  0.3743012E+02  0.7818608E-02  0.1542438E+00
          2   -1    0    0  502    0  0.00000000000E+00  0.00000000000E+00  0.17832592622E+04  0.17832592622E+04  0.00000000000E+00 0. -1.
          1   -1    0    0  501    0 -0.00000000000E+00 -0.00000000000E+00 -0.42134449312E+03  0.42134449312E+03  0.00000000000E+00 0. -1.
         25    2    1    2    0    0 -0.51890934300E+02  0.19539329228E+02 -0.64976446652E+02  0.15139873626E+03  0.12500073708E+03 0.  0.
          2    1    1    2  501    0  0.19977939609E+02 -0.31432227093E+02 -0.31188220605E+03  0.31409809522E+03  0.00000000000E+00 0. -1.
          1    1    1    2  502    0  0.31912994691E+02  0.11892897866E+02  0.17387734218E+04  0.17391069238E+04  0.00000000000E+00 0. -1.
         22    1    3    3    0    0 -0.14752183073E+02 -0.51992878108E+02 -0.13304289034E+02  0.55658695512E+02  0.00000000000E+00 0.  1.
         22    1    3    3    0    0 -0.37138751227E+02  0.71532207336E+02 -0.51672157618E+02  0.95740040745E+02  0.00000000000E+00 0.  1.
</event>
<event>
 7    1  0.6330892E-006  0.1412162E+03  0.7818608E-02  0.1248863E+00
          2   -1    0    0  502    0  0.00000000000E+00  0.00000000000E+00  0.30091027412E+03  0.30091027412E+03  0.00000000000E+00 0. -1.
          1   -1    0    0  501    0 -0.00000000000E+00 -0.00000000000E+00 -0.14786087008E+04  0.14786087008E+04  0.00000000000E+00 0. -1.
         25    2    1    2    0    0  0.70189515626E+02 -0.23135637376E+02 -0.17421045968E+02  0.14625698384E+03  0.12500314659E+03 0.  0.
          2    1    1    2  501    0  0.69789043985E+02 -0.66251079699E+02 -0.13657070066E+04  0.13690928909E+04  0.00000000000E+00 0. -1.
          1    1    1    2  502    0 -0.13997855961E+03  0.89386717075E+02  0.20542962581E+03  0.26416910020E+03  0.00000000000E+00 0. -1.
         22    1    3    3    0    0  0.65358407205E+02  0.11530816109E+02 -0.61150706308E+02  0.90244611997E+02  0.00000000000E+00 0.  1.
         22    1    3    3    0    0  0.48311084202E+01 -0.34666453485E+02  0.43729660340E+02  0.56012371841E+02  0.00000000000E+00 0.  1.
</event>
<event>
 7    1  0.6330892E-006  0.1665304E+03  0.7818608E-02  0.1226559E+00
          2   -1    0    0  502    0  0.00000000000E+00  0.00000000000E+00  0.19006002188E+04  0.19006002188E+04  0.00000000000E+00 0. -1.
          1   -1    0    0  501    0 -0.00000000000E+00 -0.00000000000E+00 -0.18378108590E+03  0.18378108590E+03  0.00000000000E+00 0. -1.
         25    2    1    2    0    0 -0.16049771617E+03 -0.15333515977E+03  0.60868241494E+03  0.65984125729E+03  0.12500005779E+03 0.  0.
          2    1    1    2  501    0  0.58065742419E+02  0.15350497534E+03 -0.11290730389E+03  0.19920709618E+03  0.00000000000E+00 0. -1.
          1    1    1    2  502    0  0.10243197375E+03 -0.16981556888E+00  0.12210440218E+04  0.12253329512E+04  0.00000000000E+00 0. -1.
         22    1    3    3    0    0 -0.13860705010E+03 -0.96291548231E+02  0.29154373095E+03  0.33687048498E+03  0.00000000000E+00 0. -1.
         22    1    3    3    0    0 -0.21890666068E+02 -0.57043611540E+02  0.31713868400E+03  0.32297077231E+03  0.00000000000E+00 0. -1.
</event>
<event>
 7    1  0.6330892E-006  0.5509111E+02  0.7818608E-02  0.1420005E+00
          2   -1    0    0  502    0  0.00000000000E+00  0.00000000000E+00  0.39200857343E+03  0.39200857343E+03  0.00000000000E+00 0. -1.
          1   -1    0    0  501    0 -0.00000000000E+00 -0.00000000000E+00 -0.52014018141E+03  0.52014018141E+03  0.00000000000E+00 0. -1.
         25    2    1    2    0    0  0.22233626824E+02 -0.45031580585E+02 -0.11706395519E+03  0.17846889857E+03  0.12500000297E+03 0.  0.
          2    1    1    2  501    0  0.33162384897E+02  0.43991895660E+02 -0.36818815837E+03  0.37228691975E+03  0.00000000000E+00 0. -1.
          1    1    1    2  502    0 -0.55396011721E+02  0.10396849252E+01  0.35712050558E+03  0.36139293651E+03  0.00000000000E+00 0. -1.
         22    1    3    3    0    0  0.67277730777E+02 -0.56565916573E+02 -0.70661762201E+02  0.11277890146E+03  0.00000000000E+00 0. -1.
         22    1    3    3    0    0 -0.45044103953E+02  0.11534335988E+02 -0.46402192984E+02  0.65689997118E+02  0.00000000000E+00 0. -1.
</event>
<event>
 7    1  0.6330892E-006  0.3739656E+02  0.7818608E-02  0.1583863E+00
          2   -1    0    0  502    0  0.00000000000E+00  0.00000000000E+00  0.11633533295E+04  0.11633533295E+04  0.00000000000E+00 0. -1.
          1   -1    0    0  501    0 -0.00000000000E+00 -0.00000000000E+00 -0.39315607959E+03  0.39315607959E+03  0.00000000000E+00 0. -1.
         25    2    1    2    0    0 -0.54431668249E+02  0.19289022762E+02  0.46852096983E+03  0.48833535803E+03  0.12499859928E+03 0.  0.
          2    1    1    2  501    0  0.37359221629E+02  0.64177668399E+00 -0.38208585647E+03  0.38390848523E+03  0.00000000000E+00 0. -1.
          1    1    1    2  502    0  0.17072446620E+02 -0.19930799446E+02  0.68376213652E+03  0.68426556580E+03  0.00000000000E+00 0. -1.
         22    1    3    3    0    0 -0.40991539005E+02 -0.48405203942E+02  0.15840741521E+03  0.17063492969E+03  0.00000000000E+00 0. -1.
         22    1    3    3    0    0 -0.13440129244E+02  0.67694226704E+02  0.31011355462E+03  0.31770042833E+03  0.00000000000E+00 0. -1.
</event>
<event>
 7    1  0.6330892E-006  0.1099300E+03  0.7818608E-02  0.1366011E+00
          2   -1    0    0  502    0  0.00000000000E+00  0.00000000000E+00  0.37385992375E+03  0.37385992375E+03  0.00000000000E+00 0. -1.
          1   -1    0    0  501    0 -0.00000000000E+00 -0.00000000000E+00 -0.54045776490E+03  0.54045776490E+03  0.00000000000E+00 0. -1.
         25    2    1    2    0    0  0.89601833684E+02 -0.31641191491E+02  0.19567430946E+02  0.15823239843E+03  0.12499981584E+03 0.  0.
          2    1    1    2  501    0 -0.83737078656E+02  0.73654834852E+02 -0.46288664302E+03  0.47613126060E+03  0.00000000000E+00 0. -1.
          1    1    1    2  502    0 -0.58647550277E+01 -0.42013643361E+02  0.27672137092E+03  0.27995402963E+03  0.00000000000E+00 0. -1.
         22    1    3    3    0    0  0.27221583706E+02 -0.75470753459E+01  0.69338469767E+02  0.74871866247E+02  0.00000000000E+00 0.  1.
         22    1    3    3    0    0  0.62380249977E+02 -0.24094116146E+02 -0.49771038821E+02  0.83360532180E+02  0.00000000000E+00 0.  1.
</event>
<event>
 7    1  0.6330892E-006  0.3437225E+02  0.7818608E-02  0.1569194E+00
          2   -1    0    0  502    0  0.00000000000E+00  0.00000000000E+00  0.73422135197E+03  0.73422135197E+03  0.00000000000E+00 0. -1.
          1   -1    0    0  501    0 -0.00000000000E+00 -0.00000000000E+00 -0.56342296670E+02  0.56342296670E+02  0.00000000000E+00 0. -1.
         25    2    1    2    0    0 -0.49207243070E+02 -0.11596709568E+02  0.11683678117E+03  0.17841412909E+03  0.12499972633E+03 0.  0.
          2    1    1    2  501    0  0.27486267879E+02 -0.14914278352E+02 -0.15282620550E+02  0.34806452154E+02  0.00000000000E+00 0. -1.
          1    1    1    2  502    0  0.21720975191E+02  0.26510987920E+02  0.57632489467E+03  0.57734306739E+03  0.00000000000E+00 0. -1.
         22    1    3    3    0    0 -0.87429348160E+02  0.14401407319E+02  0.76245034877E+02  0.11689566628E+03  0.00000000000E+00 0. -1.
         22    1    3    3    0    0  0.38222105090E+02 -0.25998116887E+02  0.40591746297E+02  0.61518462811E+02  0.00000000000E+00 0. -1.
</event>
<event>
 7    1  0.6330892E-006  0.8415938E+02  0.7818608E-02  0.1386725E+00
          2   -1    0    0  502    0  0.00000000000E+00  0.00000000000E+00  0.16375764237E+04  0.16375764237E+04  0.00000000000E+00 0. -1.
          1   -1    0    0  501    0 -0.00000000000E+00 -0.00000000000E+00 -0.81407570687E+03  0.81407570687E+03  0.00000000000E+00 0. -1.
         25    2    1    2    0    0  0.32803800458E+02 -0.45788361468E+02  0.28073588928E+03  0.31242692947E+03  0.12500113343E+03 0.  0.
          2    1    1    2  501    0 -0.77751373344E+02  0.32913769003E+02 -0.79558819962E+03  0.80005573282E+03  0.00000000000E+00 0. -1.
          1    1    1    2  502    0  0.44947572886E+02  0.12874592464E+02  0.13383530272E+04  0.13391694683E+04  0.00000000000E+00 0. -1.
         22    1    3    3    0    0 -0.29254616284E+02  0.83676527814E+00  0.10227619920E+02  0.31002208942E+02  0.00000000000E+00 0.  1.
         22    1    3    3    0    0  0.62058416742E+02 -0.46625126746E+02  0.27050826936E+03  0.28142472053E+03  0.00000000000E+00 0.  1.
</event>
<event>
 7    1  0.6330892E-006  0.5037199E+02  0.7818608E-02  0.1570440E+00
          2   -1    0    0  502    0  0.00000000000E+00  0.00000000000E+00  0.87134494681E+02  0.87134494681E+02  0.00000000000E+00 0. -1.
          1   -1    0    0  501    0 -0.00000000000E+00 -0.00000000000E+00 -0.29411247304E+03  0.29411247304E+03  0.00000000000E+00 0. -1.
         25    2    1    2    0    0 -0.67217212963E+02 -0.38380468872E+00 -0.11052272273E+03  0.17988756336E+03  0.12500384869E+03 0.  0.
          2    1    1    2  501    0  0.47739523228E+02  0.86859624039E+01 -0.14257808307E+03  0.15060882376E+03  0.00000000000E+00 0. -1.
          1    1    1    2  502    0  0.19477689735E+02 -0.83021577152E+01  0.46122827444E+02  0.50750580604E+02  0.00000000000E+00 0. -1.
         22    1    3    3    0    0 -0.99660376360E+02  0.53181437764E+01 -0.51527426330E+02  0.11231896070E+03  0.00000000000E+00 0. -1.
         22    1    3    3    0    0  0.32443163397E+02 -0.57019484651E+01 -0.58995296401E+02  0.67568602657E+02  0.00000000000E+00 0. -1.
</event>
<event>
 7    1  0.6330892E-006  0.1261171E+03  0.7818608E-02  0.1267076E+00
          2   -1    0    0  502    0  0.00000000000E+00  0.00000000000E+00  0.65346457413E+03  0.65346457413E+03  0.00000000000E+00 0. -1.
          1   -1    0    0  501    0 -0.00000000000E+00 -0.00000000000E+00 -0.50345111695E+03  0.50345111695E+03  0.00000000000E+00 0. -1.
         25    2    1    2    0    0  0.70490910689E+02 -0.11746613248E+02  0.97602778466E+02  0.17394818569E+03  0.12499887011E+03 0.  0.
          2    1    1    2  501    0  0.61804775116E+02  0.65472041379E+02 -0.45089639743E+03  0.45979775950E+03  0.00000000000E+00 0. -1.
          1    1    1    2  502    0 -0.13229568581E+03 -0.53725428131E+02  0.50330707614E+03  0.52316974588E+03  0.00000000000E+00 0. -1.
         22    1    3    3    0    0  0.14100792404E+02 -0.51854953735E+01 -0.30406142483E+02  0.33915412564E+02  0.00000000000E+00 0. -1.
         22    1    3    3    0    0  0.56390118285E+02 -0.65611178749E+01  0.12800892095E+03  0.14003277313E+03  0.00000000000E+00 0. -1.
</event>
<event>
 7    1  0.6330892E-006  0.9217672E+02  0.7818608E-02  0.1377963E+00
          2   -1    0    0  502    0  0.00000000000E+00  0.00000000000E+00  0.40999779498E+03  0.40999779498E+03  0.00000000000E+00 0. -1.
          1   -1    0    0  501    0 -0.00000000000E+00 -0.00000000000E+00 -0.52148790459E+03  0.52148790459E+03  0.00000000000E+00 0. -1.
         25    2    1    2    0    0 -0.75690540479E+02 -0.47960049467E+02 -0.15183229706E+03  0.21611931743E+03  0.12500115469E+03 0.  0.
          2    1    1    2  501    0  0.94427301433E+02  0.61252637587E+01 -0.32943661735E+03  0.34275723036E+03  0.00000000000E+00 0. -1.
          1    1    1    2  502    0 -0.18736760954E+02  0.41834785708E+02  0.36977880481E+03  0.37260915178E+03  0.00000000000E+00 0. -1.
         22    1    3    3    0    0 -0.25580838898E+02 -0.86688685714E+02 -0.85737790739E+02  0.12458040099E+03  0.00000000000E+00 0. -1.
         22    1    3    3    0    0 -0.50109701581E+02  0.38728636247E+02 -0.66094506323E+02  0.91538916446E+02  0.00000000000E+00 0. -1.
</event>
<event>
 7    1  0.6330892E-006  0.5798546E+02  0.7818608E-02  0.1519860E+00
          2   -1    0    0  502    0  0.00000000000E+00  0.00000000000E+00  0.33034418144E+03  0.33034418144E+03  0.00000000000E+00 0. -1.
          1   -1    0    0  501    0 -0.00000000000E+00 -0.00000000000E+00 -0.21228869854E+03  0.21228869854E+03  0.00000000000E+00 0. -1.
         25    2    1    2    0    0 -0.71037575752E+02 -0.40493729906E+02 -0.73718740456E+02  0.16657110567E+03  0.12500160486E+03 0.  0.
          2    1    1    2  501    0  0.18310443293E+02  0.17760923945E+02 -0.87398619303E+02  0.91045271207E+02  0.00000000000E+00 0. -1.
          1    1    1    2  502    0  0.52727132458E+02  0.22732805961E+02  0.27917284266E+03  0.28501650311E+03  0.00000000000E+00 0. -1.
         22    1    3    3    0    0 -0.15599419356E+02 -0.79706886431E+02 -0.44902855952E+02  0.92805151266E+02  0.00000000000E+00 0. -1.
         22    1    3    3    0    0 -0.55438156396E+02  0.39213156524E+02 -0.28815884504E+02  0.73765954403E+02  0.00000000000E+00 0. -1.
</event>
<event>
 7    1  0.6330892E-006  0.3107261E+03  0.7818608E-02  0.1328991E+00
          2   -1    0    0  502    0  0.00000000000E+00  0.00000000000E+00  0.14374267781E+04  0.14374267781E+04  0.00000000000E+00 0. -1.
          1   -1    0    0  501    0 -0.00000000000E+00 -0.00000000000E+00 -0.15344531954E+03  0.15344531954E+03  0.00000000000E+00 0. -1.
         25    2    1    2    0    0 -0.87228794436E+02  0.28581696650E+03  0.50639573737E+03  0.60113273712E+03  0.12499489547E+03 0.  0.
          2    1    1    2  501    0  0.10355695973E+03 -0.29838989837E+03  0.12956457791E+03  0.34139061968E+03  0.00000000000E+00 0. -1.
          1    1    1    2  502    0 -0.16328165295E+02  0.12572931877E+02  0.64802114329E+03  0.64834874084E+03  0.00000000000E+00 0. -1.
         22    1    3    3    0    0 -0.37368205051E+02  0.26766722886E+03  0.40915273298E+03  0.49035506223E+03  0.00000000000E+00 0.  1.
         22    1    3    3    0    0 -0.49860589384E+02  0.18149737637E+02  0.97243004393E+02  0.11077767489E+03  0.00000000000E+00 0.  1.
</event>
<event>
 7    1  0.6330892E-006  0.9079680E+02  0.7818608E-02  0.1403108E+00
          2   -1    0    0  502    0  0.00000000000E+00  0.00000000000E+00  0.35593619798E+03  0.35593619798E+03  0.00000000000E+00 0. -1.
          1   -1    0    0  501    0 -0.00000000000E+00 -0.00000000000E+00 -0.17636005708E+04  0.17636005708E+04  0.00000000000E+00 0. -1.
         25    2    1    2    0    0 -0.83796121484E+02 -0.54732530933E+02 -0.37576687432E+03  0.40846578206E+03  0.12500444536E+03 0.  0.
          2    1    1    2  501    0  0.51367711875E+02  0.74594663342E+02 -0.13689184776E+04  0.13719113688E+04  0.00000000000E+00 0. -1.
          1    1    1    2  502    0  0.32428409609E+02 -0.19862132409E+02  0.33702097910E+03  0.33915961789E+03  0.00000000000E+00 0. -1.
         22    1    3    3    0    0  0.17588306119E+02 -0.43952215603E+02 -0.19757569718E+03  0.20316816159E+03  0.00000000000E+00 0.  1.
         22    1    3    3    0    0 -0.10138442760E+03 -0.10780315329E+02 -0.17819117714E+03  0.20529762047E+03  0.00000000000E+00 0.  1.
</event>
<event>
 7    1  0.6330892E-006  0.6339973E+02  0.7818608E-02  0.1409245E+00
          2   -1    0    0  502    0  0.00000000000E+00  0.00000000000E+00  0.12798174085E+04  0.12798174085E+04  0.00000000000E+00 0. -1.
          1   -1    0    0  501    0 -0.00000000000E+00 -0.00000000000E+00 -0.27692046501E+02  0.27692046501E+02  0.00000000000E+00 0. -1.
         25    2    1    2    0    0  0.38230190940E+02 -0.10406876913E+03  0.60707151876E+03  0.62964610973E+03  0.12500615346E+03 0.  0.
          2    1    1    2  501    0 -0.22087298461E+02  0.54742576148E+02  0.41681720069E+02  0.72263159248E+02  0.00000000000E+00 0. -1.
          1    1    1    2  502    0 -0.16142892478E+02  0.49326192984E+02  0.60337212320E+03  0.60560018605E+03  0.00000000000E+00 0. -1.
         22    1    3    3    0    0  0.91762343551E+01  0.27534342766E+02  0.67063763469E+02  0.73074562462E+02  0.00000000000E+00 0. -1.
         22    1    3    3    0    0  0.29053956585E+02 -0.13160311190E+03  0.54000775530E+03  0.55657154727E+03  0.00000000000E+00 0. -1.
</event>
<event>
 7    1  0.6330892E-006  0.1193587E+03  0.7818608E-02  0.1288184E+00
          2   -1    0    0  502    0  0.00000000000E+00  0.00000000000E+00  0.57989325483E+03  0.57989325483E+03  0.00000000000E+00 0. -1.
          1   -1    0    0  501    0 -0.00000000000E+00 -0.00000000000E+00 -0.17137831794E+04  0.17137831794E+04  0.00000000000E+00 0. -1.
         25    2    1    2    0    0  0.18698932064E+03  0.28786854298E+02 -0.28481793393E+03  0.36405951094E+03  0.12499753198E+03 0.  0.
          2    1    1    2  501    0 -0.10955083467E+03 -0.35873790115E+02 -0.13841379346E+04  0.13889298528E+04  0.00000000000E+00 0. -1.
          1    1    1    2  502    0 -0.77438485977E+02  0.70869358173E+01  0.53506594394E+03  0.54068707044E+03  0.00000000000E+00 0. -1.
         22    1    3    3    0    0  0.31331712324E+02  0.91174206000E+01 -0.16077330569E+03  0.16405139249E+03  0.00000000000E+00 0.  1.
         22    1    3    3    0    0  0.15565760832E+03  0.19669433698E+02 -0.12404462824E+03  0.20000811845E+03  0.00000000000E+00 0.  1.
</event>
<event>
 7    1  0.6330892E-006  0.6147648E+02  0.7818608E-02  0.1440487E+00
          2   -1    0    0  502    0  0.00000000000E+00  0.00000000000E+00  0.97875305752E+03  0.97875305752E+03  0.00000000000E+00 0. -1.
          1   -1    0    0  501    0 -0.00000000000E+00 -0.00000000000E+00 -0.44268639420E+03  0.44268639420E+03  0.00000000000E+00 0. -1.
         25    2    1    2    0    0  0.52499333759E+02  0.46424692515E+02  0.74733516318E+03  0.76094887034E+03  0.12498761949E+03 0.  0.
          2    1    1    2  501    0  0.85944080501E+01 -0.41276823438E+02 -0.43064693876E+03  0.43270593463E+03  0.00000000000E+00 0. -1.
          1    1    1    2  502    0 -0.61093741809E+02 -0.51478690767E+01  0.21937843890E+03  0.22778464675E+03  0.00000000000E+00 0. -1.
         22    1    3    3    0    0  0.39917251708E+02  0.13273892502E+02  0.70263375800E+03  0.70389188168E+03  0.00000000000E+00 0.  1.
         22    1    3    3    0    0  0.12582082051E+02  0.33150800013E+02  0.44701405171E+02  0.57056988656E+02  0.00000000000E+00 0.  1.
</event>
<event>
 7    1  0.6330892E-006  0.6867496E+02  0.7818608E-02  0.1365203E+00
          2   -1    0    0  502    0  0.00000000000E+00  0.00000000000E+00  0.94692669911E+03  0.94692669911E+03  0.00000000000E+00 0. -1.
          1   -1    0    0  501    0 -0.00000000000E+00 -0.00000000000E+00 -0.71803525139E+03  0.71803525139E+03  0.00000000000E+00 0. -1.
         25    2    1    2    0    0  0.59002413087E+02  0.24775232757E+02 -0.17102953035E+03  0.22129338213E+03  0.12499825524E+03 0.  0.
          2    1    1    2  501    0 -0.91303792728E+01 -0.71533439091E+02 -0.51810554271E+03  0.52310013394E+03  0.00000000000E+00 0. -1.
          1    1    1    2  502    0 -0.49872033815E+02  0.46758206334E+02  0.91802652079E+03  0.92056843444E+03  0.00000000000E+00 0. -1.
         22    1    3    3    0    0 -0.19064024473E+02  0.51070816107E+02 -0.93163043810E+02  0.10793988150E+03  0.00000000000E+00 0. -1.
         22    1    3    3    0    0  0.78066437561E+02 -0.26295583350E+02 -0.77866486540E+02  0.11335350062E+03  0.00000000000E+00 0. -1.
</event>
<event>
 7    1  0.6330892E-006  0.1047148E+03  0.7818608E-02  0.1347057E+00
          2   -1    0    0  502    0  0.00000000000E+00  0.00000000000E+00  0.61185468840E+03  0.61185468840E+03  0.00000000000E+00 0. -1.
          1   -1    0    0  501    0 -0.00000000000E+00 -0.00000000000E+00 -0.84406031926E+02  0.84406031926E+02  0.00000000000E+00 0. -1.
         25    2    1    2    0    0 -0.61164767262E+02 -0.13807175556E+03  0.32620483628E+03  0.38057730347E+03  0.12499820105E+03 0.  0.
          2    1    1    2  501    0  0.38268791669E+02  0.91086661157E+02 -0.88414892523E+01  0.99194012868E+02  0.00000000000E+00 0. -1.
          1    1    1    2  502    0  0.22895975593E+02  0.46985094405E+02  0.21008530945E+03  0.21648940399E+03  0.00000000000E+00 0. -1.
         22    1    3    3    0    0 -0.58804391956E+02 -0.61381344662E+01  0.64565126385E+02  0.87545923681E+02  0.00000000000E+00 0.  1.
         22    1    3    3    0    0 -0.23603753057E+01 -0.13193362110E+03  0.26163970989E+03  0.29303137979E+03  0.00000000000E+00 0.  1.
</event>
<event>
 7    1  0.6330892E-006  0.8442429E+02  0.7818608E-02  0.1328919E+00
          2   -1    0    0  502    0  0.00000000000E+00  0.00000000000E+00  0.95097785341E+03  0.95097785341E+03  0.00000000000E+00 0. -1.
          1   -1    0    0  501    0 -0.00000000000E+00 -0.00000000000E+00 -0.33416772478E+03  0.33416772478E+03  0.00000000000E+00 0. -1.
         25    2    1    2    0    0 -0.84263842576E+02 -0.17524685864E+02  0.42143211264E+02  0.15750782831E+03  0.12500062377E+03 0.  0.
          2    1    1    2  501    0  0.19407827672E+02  0.73372875165E+02 -0.26907091809E+03  0.27957002977E+03  0.00000000000E+00 0. -1.
          1    1    1    2  502    0  0.64856014904E+02 -0.55848189301E+02  0.84373783546E+03  0.84806772012E+03  0.00000000000E+00 0. -1.
         22    1    3    3    0    0  0.16015425007E+02 -0.35930886535E+02  0.39163971137E+02  0.55509810669E+02  0.00000000000E+00 0. -1.
         22    1    3    3    0    0 -0.10027926758E+03  0.18406200671E+02  0.29792401275E+01  0.10199801764E+03  0.00000000000E+00 0. -1.
</event>
<event>
 7    1  0.6330892E-006  0.1173999E+03  0.7818608E-02  0.1373465E+00
          2   -1    0    0  502    0  0.00000000000E+00  0.00000000000E+00  0.12323501051E+04  0.12323501051E+04  0.00000000000E+00 0. -1.
          1   -1    0    0  501    0 -0.00000000000E+00 -0.00000000000E+00 -0.14686352938E+03  0.14686352938E+03  0.00000000000E+00 0. -1.
         25    2    1    2    0    0 -0.10846611674E+03 -0.10533524984E+03  0.23518536172E+03  0.30625371245E+03  0.12497507224E+03 0.  0.
          2    1    1    2  501    0  0.23652790057E+02  0.28898732862E+02 -0.10469859105E+03  0.11115928304E+03  0.00000000000E+00 0. -1.
          1    1    1    2  502    0  0.84813326680E+02  0.76436516979E+02  0.95499980504E+03  0.96180063898E+03  0.00000000000E+00 0. -1.
         22    1    3    3    0    0  0.18125279798E+02 -0.69920465025E+01 -0.24753760060E+01  0.19584227543E+02  0.00000000000E+00 0.  1.
         22    1    3    3    0    0 -0.12659139653E+03 -0.98343203339E+02  0.23766073772E+03  0.28666948490E+03  0.00000000000E+00 0.  1.
</event>
<event>
 7    1  0.6330892E-006  0.3945895E+03  0.7818608E-02  0.1271810E+00
          2   -1    0    0  502    0  0.00000000000E+00  0.00000000000E+00  0.21781909015E+03  0.21781909015E+03  0.00000000000E+00 0. -1.
          1   -1    0    0  501    0 -0.00000000000E+00 -0.00000000000E+00 -0.31845127001E+04  0.31845127001E+04  0.00000000000E+00 0. -1.
         25    2    1    2    0    0  0.18366280279E+03  0.32341300851E+03 -0.13488070640E+04  0.14047182949E+04  0.12499997083E+03 0.  0.
          2    1    1    2  501    0  0.51252390280E+01  0.27006008214E+02 -0.15988857683E+04  0.15991220381E+04  0.00000000000E+00 0. -1.
          1    1    1    2  502    0 -0.18878804182E+03 -0.35041901672E+03 -0.19000777609E+02  0.39849145733E+03  0.00000000000E+00 0. -1.
         22    1    3    3    0    0  0.33191480755E+02  0.31517595703E+02 -0.35781909161E+03  0.36073471631E+03  0.00000000000E+00 0. -1.
         22    1    3    3    0    0  0.15047132203E+03  0.29189541281E+03 -0.99098797243E+03  0.10439835785E+04  0.00000000000E+00 0. -1.
</event>
<event>
 7    1  0.6330892E-006  0.6325473E+02  0.7818608E-02  0.1512228E+00
          2   -1    0    0  502    0  0.00000000000E+00  0.00000000000E+00  0.27434466704E+04  0.27434466704E+04  0.00000000000E+00 0. -1.
          1   -1    0    0  501    0 -0.00000000000E+00 -0.00000000000E+00 -0.33404661166E+02  0.33404661166E+02  0.00000000000E+00 0. -1.
         25    2    1    2    0    0 -0.39920998337E+02 -0.66055941073E+02  0.67903675744E+03  0.69474660564E+03  0.12499941854E+03 0.  0.
          2    1    1    2  501    0  0.23985555586E+02  0.55329335403E+01 -0.19030417762E+02  0.31113936275E+02  0.00000000000E+00 0. -1.
          1    1    1    2  502    0  0.15935442750E+02  0.60523007532E+02  0.20500356696E+04  0.20509907897E+04  0.00000000000E+00 0. -1.
         22    1    3    3    0    0  0.17645334040E+02  0.11995951399E+02  0.22210622518E+02  0.30798902837E+02  0.00000000000E+00 0. -1.
         22    1    3    3    0    0 -0.57566332377E+02 -0.78051892472E+02  0.65682613492E+03  0.66394770280E+03  0.00000000000E+00 0. -1.
</event>
<event>
 7    1  0.6330892E-006  0.8048850E+02  0.7818608E-02  0.1371149E+00
          2   -1    0    0  502    0  0.00000000000E+00  0.00000000000E+00  0.23392932103E+03  0.23392932103E+03  0.00000000000E+00 0. -1.
          1   -1    0    0  501    0 -0.00000000000E+00 -0.00000000000E+00 -0.10567362253E+04  0.10567362253E+04  0.00000000000E+00 0. -1.
         25    2    1    2    0    0  0.81798026783E+02  0.63963750176E+02 -0.11753384134E+03  0.20055603191E+03  0.12500495811E+03 0.  0.
          2    1    1    2  501    0 -0.27442958021E+02 -0.75278866994E+02 -0.89185258492E+03  0.89544461414E+03  0.00000000000E+00 0. -1.
          1    1    1    2  502    0 -0.54355068763E+02  0.11315116817E+02  0.18657952200E+03  0.19466490027E+03  0.00000000000E+00 0. -1.
         22    1    3    3    0    0 -0.87000946660E+01  0.48649746673E+01 -0.87924605545E+02  0.88487829028E+02  0.00000000000E+00 0.  1.
         22    1    3    3    0    0  0.90498121449E+02  0.59098775509E+02 -0.29609235795E+02  0.11206820288E+03  0.00000000000E+00 0.  1.
</event>
<event>
 7    1  0.6330892E-006  0.1008650E+03  0.7818608E-02  0.1289158E+00
          2   -1    0    0  502    0  0.00000000000E+00  0.00000000000E+00  0.53322378080E+03  0.53322378080E+03  0.00000000000E+00 0. -1.
          1   -1    0    0  501    0 -0.00000000000E+00 -0.00000000000E+00 -0.46101099624E+03  0.46101099624E+03  0.00000000000E+00 0. -1.
         25    2    1    2    0    0  0.75852801461E+02 -0.58716665411E+02  0.43454442804E+03  0.46222709563E+03  0.12499493472E+03 0.  0.
          2    1    1    2  501    0 -0.83750900209E+02 -0.56209796817E+02 -0.39865659347E+03  0.41121871803E+03  0.00000000000E+00 0. -1.
          1    1    1    2  502    0  0.78980987484E+01  0.11492646223E+03  0.36324949986E+02  0.12078896339E+03  0.00000000000E+00 0. -1.
         22    1    3    3    0    0  0.50770553512E+02 -0.85452710810E+02  0.18506639553E+03  0.21006995416E+03  0.00000000000E+00 0.  1.
         22    1    3    3    0    0  0.25082247949E+02  0.26736045399E+02  0.24947803251E+03  0.25215714146E+03  0.00000000000E+00 0.  1.
</event>
<event>
 7    1  0.6330892E-006  0.1301089E+03  0.7818608E-02  0.1356137E+00
          2   -1    0    0  502    0  0.00000000000E+00  0.00000000000E+00  0.23143513352E+03  0.23143513352E+03  0.00000000000E+00 0. -1.
          1   -1    0    0  501    0 -0.00000000000E+00 -0.00000000000E+00 -0.58765839765E+03  0.58765839765E+03  0.00000000000E+00 0. -1.
         25    2    1    2    0    0 -0.53647208629E+02 -0.99763503365E+02  0.94486235235E+02  0.19335236362E+03  0.12500683290E+03 0.  0.
          2    1    1    2  501    0  0.92091416539E+02  0.93584720434E+02 -0.52537490579E+03  0.54153275112E+03  0.00000000000E+00 0. -1.
          1    1    1    2  502    0 -0.38444207910E+02  0.61787829313E+01  0.74665406424E+02  0.84208416425E+02  0.00000000000E+00 0. -1.
         22    1    3    3    0    0 -0.70361924810E+02 -0.19447891826E+02  0.82968206741E+02  0.11051128580E+03  0.00000000000E+00 0. -1.
         22    1    3    3    0    0  0.16714716181E+02 -0.80315611539E+02  0.11518028493E+02  0.82841077820E+02  0.00000000000E+00 0. -1.
</event>
<event>
 7    1  0.6330892E-006  0.9715799E+02  0.7818608E-02  0.1341085E+00
          2   -1    0    0  502    0  0.00000000000E+00  0.00000000000E+00  0.12715619452E+04  0.12715619452E+04  0.00000000000E+00 0. -1.
          1   -1    0    0  501    0 -0.00000000000E+00 -0.00000000000E+00 -0.53907629601E+03  0.53907629601E+03  0.00000000000E+00 0. -1.
         25    2    1    2    0    0  0.67985149168E+02  0.40387426752E+01  0.20166890476E+03  0.24684892028E+03  0.12500300135E+03 0.  0.
          2    1    1    2  501    0  0.19177850721E+02 -0.56117802150E+02 -0.51231073914E+03  0.51573180153E+03  0.00000000000E+00 0. -1.
          1    1    1    2  502    0 -0.87162999888E+02  0.52079059475E+02  0.10431274836E+04  0.10480575194E+04  0.00000000000E+00 0. -1.
         22    1    3    3    0    0  0.94342336621E+01 -0.56952428301E+02  0.85825700837E+02  0.10343420507E+03  0.00000000000E+00 0.  1.
         22    1    3    3    0    0  0.58550915505E+02  0.60991170976E+02  0.11584320393E+03  0.14341471521E+03  0.00000000000E+00 0.  1.
</event>
<event>
 7    1  0.6330892E-006  0.5151601E+02  0.7818608E-02  0.1454630E+00
          2   -1    0    0  502    0  0.00000000000E+00  0.00000000000E+00  0.15009119416E+04  0.15009119416E+04  0.00000000000E+00 0. -1.
          1   -1    0    0  501    0 -0.00000000000E+00 -0.00000000000E+00 -0.13052329625E+02  0.13052329625E+02  0.00000000000E+00 0. -1.
         25    2    1    2    0    0  0.17069803336E+02 -0.88223438396E+01  0.56422587230E+03  0.57822411106E+03  0.12499230257E+03 0.  0.
          2    1    1    2  501    0 -0.38786031912E+02  0.48599316212E+02  0.17468249145E+03  0.18541904602E+03  0.00000000000E+00 0. -1.
          1    1    1    2  502    0  0.21716228577E+02 -0.39776972373E+02  0.74895124827E+03  0.75032111419E+03  0.00000000000E+00 0. -1.
         22    1    3    3    0    0 -0.11365618501E+01  0.17118318138E+02  0.53449217214E+03  0.53476743606E+03  0.00000000000E+00 0. -1.
         22    1    3    3    0    0  0.18206365186E+02 -0.25940661977E+02  0.29733700160E+02  0.43456675003E+02  0.00000000000E+00 0. -1.
</event>
<event>
 7    1  0.6330892E-006  0.7128632E+02  0.7818608E-02  0.1432321E+00
          2   -1    0    0  502    0  0.00000000000E+00  0.00000000000E+00  0.81213833703E+03  0.81213833703E+03  0.00000000000E+00 0. -1.
          1   -1    0    0  501    0 -0.00000000000E+00 -0.00000000000E+00 -0.46497008276E+03  0.46497008276E+03  0.00000000000E+00 0. -1.
         25    2    1    2    0    0 -0.89867571009E+02 -0.12534733165E+02 -0.71204584532E+02  0.17008122712E+03  0.12499692439E+03 0.  0.
          2    1    1    2  501    0  0.67724984852E+02 -0.19156113831E+02 -0.34023319674E+03  0.34743669702E+03  0.00000000000E+00 0. -1.
          1    1    1    2  502    0  0.22142586157E+02  0.31690846996E+02  0.75860603555E+03  0.75959049564E+03  0.00000000000E+00 0. -1.
         22    1    3    3    0    0 -0.10386055670E+03 -0.35587436566E+02 -0.19135909946E+02  0.11144354593E+03  0.00000000000E+00 0.  1.
         22    1    3    3    0    0  0.13992985691E+02  0.23052703401E+02 -0.52068674586E+02  0.58637681194E+02  0.00000000000E+00 0.  1.
</event>
<event>
 7    1  0.1074406E-005  0.1191116E+03  0.7818608E-02  0.1319593E+00
          2   -1    0    0  502    0  0.00000000000E+00  0.00000000000E+00  0.16943602583E+04  0.16943602583E+04  0.00000000000E+00 0. -1.
          1   -1    0    0  501    0 -0.00000000000E+00 -0.00000000000E+00 -0.11374715066E+04  0.11374715066E+04  0.00000000000E+00 0. -1.
         25    2    1    2    0    0 -0.41593099221E+02 -0.71692395164E+02 -0.22797982735E+03  0.27289021748E+03  0.12499793474E+03 0.  0.
          2    1    1    2  501    0 -0.58139883257E+02  0.58728024282E+01 -0.88393540574E+03  0.88586485276E+03  0.00000000000E+00 0. -1.
          1    1    1    2  502    0  0.99732982478E+02  0.65819592736E+02  0.16688039848E+04  0.16730766947E+04  0.00000000000E+00 0. -1.
         22    1    3    3    0    0 -0.43248769111E+02 -0.53485109554E+02 -0.31657790241E+02  0.75718747062E+02  0.00000000000E+00 0. -1.
         22    1    3    3    0    0  0.16556698907E+01 -0.18207285610E+02 -0.19632203711E+03  0.19717147042E+03  0.00000000000E+00 0. -1.
</event>
<event>
 7    1  0.6330892E-006  0.9300302E+02  0.7818608E-02  0.1315932E+00
          2   -1    0    0  502    0  0.00000000000E+00  0.00000000000E+00  0.43028510655E+03  0.43028510655E+03  0.00000000000E+00 0. -1.
          1   -1    0    0  501    0 -0.00000000000E+00 -0.00000000000E+00 -0.55551083953E+03  0.55551083953E+03  0.00000000000E+00 0. -1.
         25    2    1    2    0    0  0.89681918267E+02  0.13394695844E+03 -0.26665495419E+03  0.33573044529E+03  0.12500173264E+03 0.  0.
          2    1    1    2  501    0 -0.19279571595E+02 -0.74896116792E+02 -0.24289451742E+03  0.25490954628E+03  0.00000000000E+00 0. -1.
          1    1    1    2  502    0 -0.70402346672E+02 -0.59050841645E+02  0.38432373863E+03  0.39515595452E+03  0.00000000000E+00 0. -1.
         22    1    3    3    0    0  0.10114667766E+03  0.15054365723E+03 -0.22153804593E+03  0.28630953343E+03  0.00000000000E+00 0. -1.
         22    1    3    3    0    0 -0.11464759394E+02 -0.16596698794E+02 -0.45116908260E+02  0.49420911867E+02  0.00000000000E+00 0. -1.
</event>
<event>
 7    1  0.6330892E-006  0.5213888E+02  0.7818608E-02  0.1449492E+00
          2   -1    0    0  502    0  0.00000000000E+00  0.00000000000E+00  0.36452408637E+04  0.36452408637E+04  0.00000000000E+00 0. -1.
          1   -1    0    0  501    0 -0.00000000000E+00 -0.00000000000E+00 -0.41848380897E+03  0.41848380897E+03  0.00000000000E+00 0. -1.
         25    2    1    2    0    0 -0.90016795585E+01 -0.79491474010E+01  0.59134901666E+03  0.60453515777E+03  0.12499951316E+03 0.  0.
          2    1    1    2  501    0  0.50731588321E+02 -0.12565459597E+02 -0.41005458290E+03  0.41337192186E+03  0.00000000000E+00 0. -1.
          1    1    1    2  502    0 -0.41729908762E+02  0.20514606998E+02  0.30454626210E+04  0.30458175931E+04  0.00000000000E+00 0. -1.
         22    1    3    3    0    0  0.34482853978E+02  0.26250868057E+02  0.87360361159E+02  0.97519269860E+02  0.00000000000E+00 0. -1.
         22    1    3    3    0    0 -0.43484533536E+02 -0.34200015458E+02  0.50398865550E+03  0.50701588791E+03  0.00000000000E+00 0. -1.
</event>
<event>
 7    1  0.6330892E-006  0.8991973E+02  0.7818608E-02  0.1446372E+00
          2   -1    0    0  502    0  0.00000000000E+00  0.00000000000E+00  0.29949548308E+04  0.29949548308E+04  0.00000000000E+00 0. -1.
          1   -1    0    0  501    0 -0.00000000000E+00 -0.00000000000E+00 -0.45481125823E+03  0.45481125823E+03  0.00000000000E+00 0. -1.
         25    2    1    2    0    0  0.62402292715E+02  0.25429483013E+01 -0.15139818985E+03  0.20602846196E+03  0.12500321006E+03 0.  0.
          2    1    1    2  501    0  0.27590643692E+02 -0.15150268314E+00 -0.27472402056E+03  0.27610605579E+03  0.00000000000E+00 0. -1.
          1    1    1    2  502    0 -0.89992936407E+02 -0.23914456182E+01  0.29662657830E+04  0.29676315713E+04  0.00000000000E+00 0. -1.
         22    1    3    3    0    0  0.53528500894E+02  0.60677094553E+02 -0.89187528403E+02  0.12042186444E+03  0.00000000000E+00 0. -1.
         22    1    3    3    0    0  0.88737918216E+01 -0.58134146252E+02 -0.62210661445E+02  0.85606597521E+02  0.00000000000E+00 0. -1.
</event>
<event>
 7    1  0.6330892E-006  0.5587425E+02  0.7818608E-02  0.1552866E+00
          2   -1    0    0  502    0  0.00000000000E+00  0.00000000000E+00  0.21826691454E+03  0.21826691454E+03  0.00000000000E+00 0. -1.
          1   -1    0    0  501    0 -0.00000000000E+00 -0.00000000000E+00 -0.15859517154E+03  0.15859517154E+03  0.00000000000E+00 0. -1.
         25    2    1    2    0    0 -0.39805683895E+02  0.32402536485E+01 -0.41228308479E+02  0.13754801387E+03  0.12499876394E+03 0.  0.
          2    1    1    2  501    0  0.60286693712E+02  0.27257370625E+01 -0.55186266659E+02  0.81776763870E+02  0.00000000000E+00 0. -1.
          1    1    1    2  502    0 -0.20481009817E+02 -0.59659907109E+01  0.15608631814E+03  0.15753730834E+03  0.00000000000E+00 0. -1.
         22    1    3    3    0    0 -0.50870576895E+02  0.40317698307E+02 -0.65223342975E+02  0.92018568014E+02  0.00000000000E+00 0.  1.
         22    1    3    3    0    0  0.11064893001E+02 -0.37077444659E+02  0.23995034496E+02  0.45529445857E+02  0.00000000000E+00 0.  1.
</event>
<event>
 7    1  0.6330892E-006  0.2361973E+03  0.7818608E-02  0.1248984E+00
          2   -1    0    0  502    0  0.00000000000E+00  0.00000000000E+00  0.15022344220E+04  0.15022344220E+04  0.00000000000E+00 0. -1.
          1   -1    0    0  501    0 -0.00000000000E+00 -0.00000000000E+00 -0.93502128658E+03  0.93502128658E+03  0.00000000000E+00 0. -1.
         25    2    1    2    0    0  0.22161887989E+03  0.81803716404E+02  0.22549930731E+03  0.34968790187E+03  0.12499966070E+03 0.  0.
          2    1    1    2  501    0 -0.25357760809E+02  0.51564698165E+02 -0.86037052215E+03  0.86228728944E+03  0.00000000000E+00 0. -1.
          1    1    1    2  502    0 -0.19626111908E+03 -0.13336841457E+03  0.12020843503E+04  0.12252805173E+04  0.00000000000E+00 0. -1.
         22    1    3    3    0    0  0.17787721599E+02  0.27996649129E+02 -0.89903165612E+01  0.34366279897E+02  0.00000000000E+00 0.  1.
         22    1    3    3    0    0  0.20383115829E+03  0.53807067275E+02  0.23448962387E+03  0.31532162197E+03  0.00000000000E+00 0.  1.
</event>
<event>
 7    1  0.6330892E-006  0.5903957E+02  0.7818608E-02  0.1528475E+00
          2   -1    0    0  502    0  0.00000000000E+00  0.00000000000E+00  0.63523295728E+03  0.63523295728E+03  0.00000000000E+00 0. -1.
          1   -1    0    0  501    0 -0.00000000000E+00 -0.00000000000E+00 -0.24759460862E+03  0.24759460862E+03  0.00000000000E+00 0. -1.
         25    2    1    2    0    0  0.79367022575E+02  0.19586870016E+02 -0.78835594016E+02  0.16888880104E+03  0.12500242590E+03 0.  0.
          2    1    1    2  501    0 -0.21347558019E+02 -0.10199726185E+02 -0.12112182565E+03  0.12341089618E+03  0.00000000000E+00 0. -1.
          1    1    1    2  502    0 -0.58019464556E+02 -0.93871438313E+01  0.58759576832E+03  0.59052786868E+03  0.00000000000E+00 0. -1.
         22    1    3    3    0    0  0.10467220441E+03  0.15619810697E+02 -0.24223263779E+02  0.10856802185E+03  0.00000000000E+00 0.  1.
         22    1    3    3    0    0 -0.25305181831E+02  0.39670593190E+01 -0.54612330237E+02  0.60320779181E+02  0.00000000000E+00 0.  1.
</event>
<event>
 7    1  0.6330892E-006  0.1067352E+03  0.7818608E-02  0.1406504E+00
          2   -1    0    0  502    0  0.00000000000E+00  0.00000000000E+00  0.64309038854E+03  0.64309038854E+03  0.00000000000E+00 0. -1.
          1   -1    0    0  501    0 -0.00000000000E+00 -0.00000000000E+00 -0.75061791555E+02  0.75061791555E+02  0.00000000000E+00 0. -1.
         25    2    1    2    0    0 -0.54512871403E+02  0.93534922158E+02  0.27868252218E+03  0.32405640305E+03  0.12501267687E+03 0.  0.
          2    1    1    2  501    0  0.24892602801E+02 -0.10424471696E+03  0.42444390386E+01  0.10725958209E+03  0.00000000000E+00 0. -1.
          1    1    1    2  502    0  0.29620268602E+02  0.10709794801E+02  0.28510163577E+03  0.28683619495E+03  0.00000000000E+00 0. -1.
         22    1    3    3    0    0 -0.89427553430E+02  0.87851829363E+02  0.18106050969E+03  0.22022293115E+03  0.00000000000E+00 0. -1.
         22    1    3    3    0    0  0.34914682027E+02  0.56830927949E+01  0.97622012488E+02  0.10383347190E+03  0.00000000000E+00 0. -1.
</event>
<event>
 7    1  0.6330892E-006  0.2441564E+03  0.7818608E-02  0.1217724E+00
          2   -1    0    0  502    0  0.00000000000E+00  0.00000000000E+00  0.27159989288E+04  0.27159989288E+04  0.00000000000E+00 0. -1.
          1   -1    0    0  501    0 -0.00000000000E+00 -0.00000000000E+00 -0.92708635941E+02  0.92708635941E+02  0.00000000000E+00 0. -1.
         25    2    1    2    0    0 -0.20352917142E+03  0.38481071877E+02  0.50821091641E+03  0.56285699370E+03  0.12499897314E+03 0.  0.
          2    1    1    2  501    0 -0.51848390795E+02 -0.56425735945E+02 -0.32376498061E+02  0.83188682714E+02  0.00000000000E+00 0. -1.
          1    1    1    2  502    0  0.25537756222E+03  0.17944664068E+02  0.21474558745E+04  0.21626618884E+04  0.00000000000E+00 0. -1.
         22    1    3    3    0    0 -0.12927910015E+03  0.18124934532E+02  0.16130877609E+03  0.20751414465E+03  0.00000000000E+00 0. -1.
         22    1    3    3    0    0 -0.74250071275E+02  0.20356137345E+02  0.34690214033E+03  0.35534284905E+03  0.00000000000E+00 0. -1.
</event>
<event>
 7    1  0.1475650E-005  0.6379618E+02  0.7818608E-02  0.1413839E+00
          2   -1    0    0  502    0  0.00000000000E+00  0.00000000000E+00  0.10359665115E+04  0.10359665115E+04  0.00000000000E+00 0. -1.
          1   -1    0    0  501    0 -0.00000000000E+00 -0.00000000000E+00 -0.16815659340E+04  0.16815659340E+04  0.00000000000E+00 0. -1.
         25    2    1    2    0    0  0.14390088376E+02 -0.11182523326E+03 -0.31327665838E+03  0.35563839506E+03  0.12499778364E+03 0.  0.
          2    1    1    2  501    0 -0.24490848364E+00  0.49765286696E+02 -0.13456498686E+04  0.13465697950E+04  0.00000000000E+00 0. -1.
          1    1    1    2  502    0 -0.14145179893E+02  0.62059946560E+02  0.10133271045E+04  0.10153242555E+04  0.00000000000E+00 0. -1.
         22    1    3    3    0    0  0.53337654956E+02 -0.10093455486E+03 -0.15639968040E+03  0.19363251232E+03  0.00000000000E+00 0.  1.
         22    1    3    3    0    0 -0.38947566579E+02 -0.10890678400E+02 -0.15687697798E+03  0.16200588273E+03  0.00000000000E+00 0.  1.
</event>
<event>
 7    1  0.6330892E-006  0.1677384E+03  0.7818608E-02  0.1250409E+00
          2   -1    0    0  502    0  0.00000000000E+00  0.00000000000E+00  0.39582052644E+03  0.39582052644E+03  0.00000000000E+00 0. -1.
          1   -1    0    0  501    0 -0.00000000000E+00 -0.00000000000E+00 -0.47548508475E+03  0.47548508475E+03  0.00000000000E+00 0. -1.
         25    2    1    2    0    0  0.13780229907E+03 -0.49128806180E+02  0.20470063373E+02  0.19351125778E+03  0.12499788065E+03 0.  0.
          2    1    1    2  501    0 -0.11959258484E+03  0.12679248045E+03 -0.36322393912E+03  0.40287758612E+03  0.00000000000E+00 0. -1.
          1    1    1    2  502    0 -0.18209714228E+02 -0.77663674275E+02  0.26308931743E+03  0.27491676729E+03  0.00000000000E+00 0. -1.
         22    1    3    3    0    0  0.13850967272E+03 -0.17630370552E+02  0.51945082714E+02  0.14897667945E+03  0.00000000000E+00 0. -1.
         22    1    3    3    0    0 -0.70737364579E+00 -0.31498435628E+02 -0.31475019340E+02  0.44534578329E+02  0.00000000000E+00 0. -1.
</event>
<event>
 7    1  0.6330892E-006  0.9078523E+02  0.7818608E-02  0.1454715E+00
          2   -1    0    0  502    0  0.00000000000E+00  0.00000000000E+00  0.44419626143E+03  0.44419626143E+03  0.00000000000E+00 0. -1.
          1   -1    0    0  501    0 -0.00000000000E+00 -0.00000000000E+00 -0.20780668479E+03  0.20780668479E+03  0.00000000000E+00 0. -1.
         25    2    1    2    0    0  0.76547092486E+02 -0.35085467511E+01  0.11159311047E+03  0.18422793750E+03  0.12496056730E+03 0.  0.
          2    1    1    2  501    0  0.14112397792E+02 -0.21478753099E+02 -0.16299500811E+03  0.16500869455E+03  0.00000000000E+00 0. -1.
          1    1    1    2  502    0 -0.90659490278E+02  0.24987299850E+02  0.28779147429E+03  0.30276631418E+03  0.00000000000E+00 0. -1.
         22    1    3    3    0    0  0.29239575862E+01 -0.49757665397E+02  0.10587199567E+02  0.50955505967E+02  0.00000000000E+00 0.  1.
         22    1    3    3    0    0  0.73623134900E+02  0.46249118646E+02  0.10100591090E+03  0.13327243153E+03  0.00000000000E+00 0.  1.
</event>
<event>
 7    1  0.6330892E-006  0.5359267E+02  0.7818608E-02  0.1438248E+00
          2   -1    0    0  502    0  0.00000000000E+00  0.00000000000E+00  0.12680566364E+04  0.12680566364E+04  0.00000000000E+00 0. -1.
          1   -1    0    0  501    0 -0.00000000000E+00 -0.00000000000E+00 -0.11084464341E+03  0.11084464341E+03  0.00000000000E+00 0. -1.
         25    2    1    2    0    0  0.40534176649E+02  0.16322224292E+01  0.64337806712E+02  0.14633494540E+03  0.12501551602E+03 0.  0.
          2    1    1    2  501    0 -0.32452691306E+02  0.46880307492E+02 -0.57596432415E+02  0.81044983994E+02  0.00000000000E+00 0. -1.
          1    1    1    2  502    0 -0.80814853437E+01 -0.48512529922E+02  0.11504706187E+04  0.11515213504E+04  0.00000000000E+00 0. -1.
         22    1    3    3    0    0 -0.11026781714E+00  0.52668085974E+02  0.61583831470E+02  0.81033991249E+02  0.00000000000E+00 0.  1.
         22    1    3    3    0    0  0.40644444467E+02 -0.51035863545E+02  0.27539752425E+01  0.65300954154E+02  0.00000000000E+00 0.  1.
</event>
<event>
 7    1  0.6330892E-006  0.7549287E+02  0.7818608E-02  0.1406311E+00
          2   -1    0    0  502    0  0.00000000000E+00  0.00000000000E+00  0.47689454895E+03  0.47689454895E+03  0.00000000000E+00 0. -1.
          1   -1    0    0  501    0 -0.00000000000E+00 -0.00000000000E+00 -0.99747400406E+03  0.99747400406E+03  0.00000000000E+00 0. -1.
         25    2    1    2    0    0 -0.72238440728E+02 -0.14613507444E+02  0.40403006479E+02  0.15062945593E+03  0.12499953257E+03 0.  0.
          2    1    1    2  501    0  0.19050527574E+02 -0.40325912969E+02 -0.93799259635E+03  0.93905229496E+03  0.00000000000E+00 0. -1.
          1    1    1    2  502    0  0.53187913153E+02  0.54939420413E+02  0.37701013475E+03  0.38468680212E+03  0.00000000000E+00 0. -1.
         22    1    3    3    0    0 -0.96332360166E+02  0.23115570361E+02  0.18450019103E+02  0.10077031514E+03  0.00000000000E+00 0.  1.
         22    1    3    3    0    0  0.24093919439E+02 -0.37729077805E+02  0.21952987376E+02  0.49859140794E+02  0.00000000000E+00 0.  1.
</event>
<event>
 7    1  0.6330892E-006  0.1074581E+03  0.7818608E-02  0.1267008E+00
          2   -1    0    0  502    0  0.00000000000E+00  0.00000000000E+00  0.45796280200E+03  0.45796280200E+03  0.00000000000E+00 0. -1.
          1   -1    0    0  501    0 -0.00000000000E+00 -0.00000000000E+00 -0.10712802177E+04  0.10712802177E+04  0.00000000000E+00 0. -1.
         25    2    1    2    0    0  0.92644022235E+00 -0.97971361709E+01 -0.30077948910E+03  0.32586863789E+03  0.12500090370E+03 0.  0.
          2    1    1    2  501    0 -0.94454354131E+02 -0.47531615515E+02 -0.74742361196E+03  0.75486617039E+03  0.00000000000E+00 0. -1.
          1    1    1    2  502    0  0.93527913909E+02  0.57328751686E+02  0.43488568532E+03  0.44850821146E+03  0.00000000000E+00 0. -1.
         22    1    3    3    0    0  0.13347736386E+01 -0.67247881959E+02 -0.14526748186E+03  0.16008341742E+03  0.00000000000E+00 0.  1.
         22    1    3    3    0    0 -0.40833341624E+00  0.57450745788E+02 -0.15551200725E+03  0.16578522047E+03  0.00000000000E+00 0.  1.
</event>
<event>
 7    1  0.6330892E-006  0.3057600E+03  0.7818608E-02  0.1205434E+00
          2   -1    0    0  502    0  0.00000000000E+00  0.00000000000E+00  0.14254400982E+04  0.14254400982E+04  0.00000000000E+00 0. -1.
          1   -1    0    0  501    0 -0.00000000000E+00 -0.00000000000E+00 -0.12317915382E+04  0.12317915382E+04  0.00000000000E+00 0. -1.
         25    2    1    2    0    0  0.34203441280E+03 -0.91761189552E+02  0.46318067701E+03  0.59629656039E+03  0.12500237167E+03 0.  0.
          2    1    1    2  501    0 -0.57833978901E+02  0.38984486286E+02 -0.11408196235E+04  0.11429496807E+04  0.00000000000E+00 0. -1.
          1    1    1    2  502    0 -0.28420043390E+03  0.52776703265E+02  0.87128750651E+03  0.91798539533E+03  0.00000000000E+00 0. -1.
         22    1    3    3    0    0  0.59401505184E+01  0.29987560239E+01 -0.76282512900E+01  0.10122654969E+02  0.00000000000E+00 0.  1.
         22    1    3    3    0    0  0.33609426228E+03 -0.94759945576E+02  0.47080892830E+03  0.58617390542E+03  0.00000000000E+00 0.  1.
</event>
<event>
 7    1  0.6330892E-006  0.9950128E+02  0.7818608E-02  0.1335637E+00
          2   -1    0    0  502    0  0.00000000000E+00  0.00000000000E+00  0.15255414128E+04  0.15255414128E+04  0.00000000000E+00 0. -1.
          1   -1    0    0  501    0 -0.00000000000E+00 -0.00000000000E+00 -0.77355482476E+03  0.77355482476E+03  0.00000000000E+00 0. -1.
         25    2    1    2    0    0  0.73282840547E+02  0.12905325336E+03  0.29103936699E+02  0.19620743014E+03  0.12500079836E+03 0.  0.
          2    1    1    2  501    0 -0.22681694099E+02 -0.95503192952E+02 -0.68585488176E+03  0.69284358837E+03  0.00000000000E+00 0. -1.
          1    1    1    2  502    0 -0.50601146447E+02 -0.33550060410E+02  0.14087375331E+04  0.14100452191E+04  0.00000000000E+00 0. -1.
         22    1    3    3    0    0  0.17824577859E+01 -0.30371706325E+01  0.45027712244E+02  0.45165212621E+02  0.00000000000E+00 0.  1.
         22    1    3    3    0    0  0.71500382761E+02  0.13209042399E+03 -0.15923775545E+02  0.15104221752E+03  0.00000000000E+00 0.  1.
</event>
<event>
 7    1  0.6330892E-006  0.8444061E+02  0.7818608E-02  0.1323605E+00
          2   -1    0    0  502    0  0.00000000000E+00  0.00000000000E+00  0.17448000337E+03  0.17448000337E+03  0.00000000000E+00 0. -1.
          1   -1    0    0  501    0 -0.00000000000E+00 -0.00000000000E+00 -0.14291544288E+04  0.14291544288E+04  0.00000000000E+00 0. -1.
         25    2    1    2    0    0  0.54918392967E+01 -0.83552740889E+02 -0.15146918706E+03  0.21349268729E+03  0.12499996835E+03 0.  0.
          2    1    1    2  501    0  0.69275830726E+02  0.39070692847E+02 -0.12320832813E+04  0.12346476711E+04  0.00000000000E+00 0. -1.
          1    1    1    2  502    0 -0.74767670022E+02  0.44482048042E+02  0.12887804284E+03  0.15549407386E+03  0.00000000000E+00 0. -1.
         22    1    3    3    0    0 -0.36397962975E+02  0.20657130126E+01 -0.23746680954E+01  0.36533791584E+02  0.00000000000E+00 0.  1.
         22    1    3    3    0    0  0.41889802272E+02 -0.85618453901E+02 -0.14909451896E+03  0.17695889570E+03  0.00000000000E+00 0.  1.
</event>
<event>
 7    1  0.6330892E-006  0.1101672E+03  0.7818608E-02  0.1273848E+00
          2   -1    0    0  502    0  0.00000000000E+00  0.00000000000E+00  0.95309893123E+03  0.95309893123E+03  0.00000000000E+00 0. -1.
          1   -1    0    0  501    0 -0.00000000000E+00 -0.00000000000E+00 -0.27342014784E+04  0.27342014784E+04  0.00000000000E+00 0. -1.
         25    2    1    2    0    0  0.79962018325E+02 -0.97953666365E+02  0.16896511316E+02  0.17860444132E+03  0.12500083694E+03 0.  0.
          2    1    1    2  501    0 -0.11027376813E+03  0.62929068626E+01 -0.26494689971E+04  0.26517703277E+04  0.00000000000E+00 0. -1.
          1    1    1    2  502    0  0.30311749806E+02  0.91660759503E+02  0.85146993863E+03  0.85692564053E+03  0.00000000000E+00 0. -1.
         22    1    3    3    0    0  0.97901420658E+02 -0.62048288480E+02 -0.27116749860E+02  0.11903779397E+03  0.00000000000E+00 0.  1.
         22    1    3    3    0    0 -0.17939402332E+02 -0.35905377885E+02  0.44013261176E+02  0.59566647349E+02  0.00000000000E+00 0.  1.
</event>
<event>
 7    1  0.6330892E-006  0.1619981E+03  0.7818608E-02  0.1278427E+00
          2   -1    0    0  502    0  0.00000000000E+00  0.00000000000E+00  0.55249051284E+03  0.55249051284E+03  0.00000000000E+00 0. -1.
          1   -1    0    0  501    0 -0.00000000000E+00 -0.00000000000E+00 -0.55782878256E+03  0.55782878256E+03  0.00000000000E+00 0. -1.
         25    2    1    2    0    0  0.13703732786E+03 -0.87945264504E+02 -0.14996517753E+03  0.25422062999E+03  0.12499990185E+03 0.  0.
          2    1    1    2  501    0  0.22968372708E+02  0.58489714316E+02 -0.33955137323E+03  0.34531685143E+03  0.00000000000E+00 0. -1.
          1    1    1    2  502    0 -0.16000570057E+03  0.29455550188E+02  0.48417828104E+03  0.51078181397E+03  0.00000000000E+00 0. -1.
         22    1    3    3    0    0  0.12409862982E+03 -0.80467323730E+02 -0.54550430365E+02  0.15764266417E+03  0.00000000000E+00 0.  1.
         22    1    3    3    0    0  0.12938698039E+02 -0.74779407740E+01 -0.95414747168E+02  0.96577965821E+02  0.00000000000E+00 0.  1.
</event>
<event>
 7    1  0.6330892E-006  0.1184709E+03  0.7818608E-02  0.1368183E+00
          2   -1    0    0  502    0  0.00000000000E+00  0.00000000000E+00  0.15828678814E+03  0.15828678814E+03  0.00000000000E+00 0. -1.
          1   -1    0    0  501    0 -0.00000000000E+00 -0.00000000000E+00 -0.30341068264E+03  0.30341068264E+03  0.00000000000E+00 0. -1.
         25    2    1    2    0    0  0.19681136733E+01 -0.10424777029E+03  0.32158765148E+02  0.16592597990E+03  0.12500309415E+03 0.  0.
          2    1    1    2  501    0  0.24073275573E+02 -0.30248054809E+02 -0.15152324555E+03  0.15637698475E+03  0.00000000000E+00 0. -1.
          1    1    1    2  502    0 -0.26041389246E+02  0.13449582510E+03 -0.25759414091E+02  0.13939450613E+03  0.00000000000E+00 0. -1.
         22    1    3    3    0    0 -0.38304807886E+02 -0.44097471310E+02  0.64172401091E+02  0.86775240391E+02  0.00000000000E+00 0.  1.
         22    1    3    3    0    0  0.40272921559E+02 -0.60150298982E+02 -0.32013635943E+02  0.79150739509E+02  0.00000000000E+00 0.  1.
</event>
<event>
 7    1  0.6330892E-006  0.2436558E+03  0.7818608E-02  0.1176983E+00
          2   -1    0    0  502    0  0.00000000000E+00  0.00000000000E+00  0.36021243689E+03  0.36021243689E+03  0.00000000000E+00 0. -1.
          1   -1    0    0  501    0 -0.00000000000E+00 -0.00000000000E+00 -0.14952158350E+04  0.14952158350E+04  0.00000000000E+00 0. -1.
         25    2    1    2    0    0 -0.19035064859E+01  0.19844909549E+03 -0.25326800554E+03  0.34518977457E+03  0.12500252397E+03 0.  0.
          2    1    1    2  501    0  0.11609166548E+03  0.29472189935E+02 -0.11406303424E+04  0.11469016797E+04  0.00000000000E+00 0. -1.
          1    1    1    2  502    0 -0.11418815899E+03 -0.22792128542E+03  0.25889494986E+03  0.36333681766E+03  0.00000000000E+00 0. -1.
         22    1    3    3    0    0 -0.35094992855E+02  0.90565108887E+02 -0.19571277910E+03  0.21848841932E+03  0.00000000000E+00 0. -1.
         22    1    3    3    0    0  0.33191486369E+02  0.10788398660E+03 -0.57555226442E+02  0.12670135525E+03  0.00000000000E+00 0. -1.
</event>
<event>
 7    1  0.6330892E-006  0.1185907E+03  0.7818608E-02  0.1375976E+00
          2   -1    0    0  502    0  0.00000000000E+00  0.00000000000E+00  0.14437328470E+04  0.14437328470E+04  0.00000000000E+00 0. -1.
          1   -1    0    0  501    0 -0.00000000000E+00 -0.00000000000E+00 -0.82049093738E+03  0.82049093738E+03  0.00000000000E+00 0. -1.
         25    2    1    2    0    0 -0.12343584490E+03 -0.84104357734E+02 -0.21097887721E+03  0.28713443495E+03  0.12499658518E+03 0.  0.
          2    1    1    2  501    0  0.90167960945E+02  0.69797155863E+02 -0.56550947976E+03  0.57689069662E+03  0.00000000000E+00 0. -1.
          1    1    1    2  502    0  0.33267883958E+02  0.14307201871E+02  0.13997302666E+04  0.14001986528E+04  0.00000000000E+00 0. -1.
         22    1    3    3    0    0 -0.14096604000E+03 -0.48994786846E+02 -0.13328350835E+03  0.20009099722E+03  0.00000000000E+00 0.  1.
         22    1    3    3    0    0  0.17530195099E+02 -0.35109570888E+02 -0.77695368862E+02  0.87043437724E+02  0.00000000000E+00 0.  1.
</event>
<event>
 7    1  0.6330892E-006  0.4237307E+02  0.7818608E-02  0.1559843E+00
          2   -1    0    0  502    0  0.00000000000E+00  0.00000000000E+00  0.41817201950E+04  0.41817201950E+04  0.00000000000E+00 0. -1.
          1   -1    0    0  501    0 -0.00000000000E+00 -0.00000000000E+00 -0.36910537654E+01  0.36910537654E+01  0.00000000000E+00 0. -1.
         25    2    1    2    0    0 -0.51221692161E+02 -0.40400796972E+02  0.29419639542E+04  0.29453409039E+04  0.12500098505E+03 0.  0.
          2    1    1    2  501    0  0.36610891871E+02  0.17806593327E+02  0.22540547265E+03  0.22905252513E+03  0.00000000000E+00 0. -1.
          1    1    1    2  502    0  0.14610800290E+02  0.22594203645E+02  0.10106597144E+04  0.10110178197E+04  0.00000000000E+00 0. -1.
         22    1    3    3    0    0 -0.51892777433E+02  0.24577766922E+02  0.21324825828E+04  0.21332554683E+04  0.00000000000E+00 0. -1.
         22    1    3    3    0    0  0.67108527228E+00 -0.64978563894E+02  0.80948137142E+03  0.81208543565E+03  0.00000000000E+00 0. -1.
</event>
<event>
 7    1  0.6330892E-006  0.5118854E+02  0.7818608E-02  0.1544498E+00
          2   -1    0    0  502    0  0.00000000000E+00  0.00000000000E+00  0.46898450435E+03  0.46898450435E+03  0.00000000000E+00 0. -1.
          1   -1    0    0  501    0 -0.00000000000E+00 -0.00000000000E+00 -0.10244615994E+04  0.10244615994E+04  0.00000000000E+00 0. -1.
         25    2    1    2    0    0  0.73314226175E+02  0.30756290109E+01  0.13370158111E+03  0.19719410703E+03  0.12499987121E+03 0.  0.
          2    1    1    2  501    0 -0.23654471027E+02 -0.66561286363E+01 -0.99052024002E+03  0.99082500167E+03  0.00000000000E+00 0. -1.
          1    1    1    2  502    0 -0.49659755148E+02  0.35804996254E+01  0.30134156381E+03  0.30542699510E+03  0.00000000000E+00 0. -1.
         22    1    3    3    0    0 -0.27862422987E+02  0.29178227582E+02  0.40766389277E+02  0.57354878382E+02  0.00000000000E+00 0. -1.
         22    1    3    3    0    0  0.10117664916E+03 -0.26102598571E+02  0.92935191838E+02  0.13983922865E+03  0.00000000000E+00 0. -1.
</event>
<event>
 7    1  0.6330892E-006  0.1122599E+03  0.7818608E-02  0.1320317E+00
          2   -1    0    0  502    0  0.00000000000E+00  0.00000000000E+00  0.13905883708E+04  0.13905883708E+04  0.00000000000E+00 0. -1.
          1   -1    0    0  501    0 -0.00000000000E+00 -0.00000000000E+00 -0.12078295016E+04  0.12078295016E+04  0.00000000000E+00 0. -1.
         25    2    1    2    0    0 -0.51128380906E+01  0.61463900737E+02  0.28301314727E+03  0.31547835124E+03  0.12500478536E+03 0.  0.
          2    1    1    2  501    0  0.14781480529E+01  0.61584982099E+02 -0.11873243846E+04  0.11889213974E+04  0.00000000000E+00 0. -1.
          1    1    1    2  502    0  0.36346900377E+01 -0.12304888284E+03  0.10870701066E+04  0.10940181238E+04  0.00000000000E+00 0. -1.
         22    1    3    3    0    0 -0.58065986319E+02  0.62072564655E+02  0.15170906386E+03  0.17389738959E+03  0.00000000000E+00 0. -1.
         22    1    3    3    0    0  0.52953148229E+02 -0.60866391868E+00  0.13130408342E+03  0.14158096165E+03  0.00000000000E+00 0. -1.
</event>
<event>
 7    1  0.6330892E-006  0.9038723E+02  0.7818608E-02  0.1468056E+00
          2   -1    0    0  502    0  0.00000000000E+00  0.00000000000E+00  0.93473176876E+03  0.93473176876E+03  0.00000000000E+00 0. -1.
          1   -1    0    0  501    0 -0.00000000000E+00 -0.00000000000E+00 -0.75586855421E+03  0.75586855421E+03  0.00000000000E+00 0. -1.
         25    2    1    2    0    0 -0.10431910968E+03  0.38478799163E+02 -0.19178464727E+03  0.25449899819E+03  0.12500117808E+03 0.  0.
          2    1    1    2  501    0  0.81500756409E+02 -0.33144841890E+02 -0.52894040728E+03  0.53620789652E+03  0.00000000000E+00 0. -1.
          1    1    1    2  502    0  0.22818353273E+02 -0.53339572736E+01  0.89958826910E+03  0.89989342827E+03  0.00000000000E+00 0. -1.
         22    1    3    3    0    0 -0.81782443646E+02  0.84421611873E+01 -0.19984141860E+03  0.21609310670E+03  0.00000000000E+00 0.  1.
         22    1    3    3    0    0 -0.22536666036E+02  0.30036637976E+02  0.80567713305E+01  0.38405891491E+02  0.00000000000E+00 0.  1.
</event>
<event>
 7    1  0.6330892E-006  0.1052986E+03  0.7818608E-02  0.1379154E+00
          2   -1    0    0  502    0  0.00000000000E+00  0.00000000000E+00  0.11945435359E+04  0.11945435359E+04  0.00000000000E+00 0. -1.
          1   -1    0    0  501    0 -0.00000000000E+00 -0.00000000000E+00 -0.12739606062E+03  0.12739606062E+03  0.00000000000E+00 0. -1.
         25    2    1    2    0    0 -0.16340778358E+02 -0.14014262371E+03  0.26003827876E+03  0.32117144962E+03  0.12499687041E+03 0.  0.
          2    1    1    2  501    0  0.10274853955E+02  0.38386827959E+02 -0.89739856886E+02  0.98144603002E+02  0.00000000000E+00 0. -1.
          1    1    1    2  502    0  0.60659244027E+01  0.10175579575E+03  0.89684905342E+03  0.90262354391E+03  0.00000000000E+00 0. -1.
         22    1    3    3    0    0  0.24599966313E+02 -0.13153406255E+03  0.23999976780E+03  0.27478401791E+03  0.00000000000E+00 0.  1.
         22    1    3    3    0    0 -0.40940744671E+02 -0.86085611626E+01  0.20038510967E+02  0.46387431717E+02  0.00000000000E+00 0.  1.
</event>
<event>
 7    1  0.6330892E-006  0.1032296E+03  0.7818608E-02  0.1401209E+00
          2   -1    0    0  502    0  0.00000000000E+00  0.00000000000E+00  0.26954541051E+03  0.26954541051E+03  0.00000000000E+00 0. -1.
          1   -1    0    0  501    0 -0.00000000000E+00 -0.00000000000E+00 -0.22550278967E+03  0.22550278967E+03  0.00000000000E+00 0. -1.
         25    2    1    2    0    0 -0.81352817728E+02 -0.83212931532E+02  0.65814006504E+02  0.18302722699E+03  0.12499923777E+03 0.  0.
          2    1    1    2  501    0  0.88926082482E+02  0.50115478096E+02 -0.14884849051E+03  0.18048623885E+03  0.00000000000E+00 0. -1.
          1    1    1    2  502    0 -0.75732647536E+01  0.33097453436E+02  0.12707710484E+03  0.13153473434E+03  0.00000000000E+00 0. -1.
         22    1    3    3    0    0 -0.57587706210E+02 -0.34309327565E+01 -0.22261778510E+02  0.61836089693E+02  0.00000000000E+00 0. -1.
         22    1    3    3    0    0 -0.23765111518E+02 -0.79781998776E+02  0.88075785015E+02  0.12119113730E+03  0.00000000000E+00 0. -1.
</event>
<event>
 7    1  0.9933918E-006  0.7153793E+02  0.7818608E-02  0.1456917E+00
          2   -1    0    0  502    0  0.00000000000E+00  0.00000000000E+00  0.18549719906E+04  0.18549719906E+04  0.00000000000E+00 0. -1.
          1   -1    0    0  501    0 -0.00000000000E+00 -0.00000000000E+00 -0.29580267774E+04  0.29580267774E+04  0.00000000000E+00 0. -1.
         25    2    1    2    0    0  0.16257965887E+02  0.45519016412E+02 -0.57748346256E+03  0.59283034112E+03  0.12499744598E+03 0.  0.
          2    1    1    2  501    0  0.31027814397E+02  0.82047685546E+01 -0.23720680800E+04  0.23722851894E+04  0.00000000000E+00 0. -1.
          1    1    1    2  502    0 -0.47285780284E+02 -0.53723784967E+02  0.18464967558E+04  0.18478832374E+04  0.00000000000E+00 0. -1.
         22    1    3    3    0    0 -0.19356569897E+02  0.26181601332E+02 -0.52740190164E+03  0.52840601709E+03  0.00000000000E+00 0.  1.
         22    1    3    3    0    0  0.35614535784E+02  0.19337415080E+02 -0.50081560924E+02  0.64424324022E+02  0.00000000000E+00 0.  1.
</event>
<event>
 7    1  0.6330892E-006  0.5859979E+02  0.7818608E-02  0.1437999E+00
          2   -1    0    0  502    0  0.00000000000E+00  0.00000000000E+00  0.48271471765E+02  0.48271471765E+02  0.00000000000E+00 0. -1.
          1   -1    0    0  501    0 -0.00000000000E+00 -0.00000000000E+00 -0.19967685326E+04  0.19967685326E+04  0.00000000000E+00 0. -1.
         25    2    1    2    0    0  0.64188523579E+02 -0.30720816664E+02 -0.78381951967E+03  0.79690738293E+03  0.12499760963E+03 0.  0.
          2    1    1    2  501    0 -0.71492120373E+01  0.44491863986E+02 -0.11851343867E+04  0.11859907891E+04  0.00000000000E+00 0. -1.
          1    1    1    2  502    0 -0.57039311542E+02 -0.13771047322E+02  0.20456845515E+02  0.62141832399E+02  0.00000000000E+00 0. -1.
         22    1    3    3    0    0  0.85895746664E+02 -0.61530582431E+02 -0.54766537277E+03  0.55776469268E+03  0.00000000000E+00 0.  1.
         22    1    3    3    0    0 -0.21707223085E+02  0.30809765767E+02 -0.23615414690E+03  0.23914269025E+03  0.00000000000E+00 0.  1.
</event>
<event>
 7    1  0.6330892E-006  0.1147513E+03  0.7818608E-02  0.1303166E+00
          2   -1    0    0  502    0  0.00000000000E+00  0.00000000000E+00  0.26223639313E+03  0.26223639313E+03  0.00000000000E+00 0. -1.
          1   -1    0    0  501    0 -0.00000000000E+00 -0.00000000000E+00 -0.63474236758E+03  0.63474236758E+03  0.00000000000E+00 0. -1.
         25    2    1    2    0    0 -0.21264427158E+02 -0.12765690474E+03  0.43961910284E+02  0.18521803475E+03  0.12499843860E+03 0.  0.
          2    1    1    2  501    0  0.77339185373E+02  0.85118413260E+02 -0.54941985176E+03  0.56132759363E+03  0.00000000000E+00 0. -1.
          1    1    1    2  502    0 -0.56074758215E+02  0.42538491477E+02  0.13295196702E+03  0.15043313232E+03  0.00000000000E+00 0. -1.
         22    1    3    3    0    0  0.39514712211E+02 -0.13569913458E+02  0.36926949834E+02  0.55759794264E+02  0.00000000000E+00 0.  1.
         22    1    3    3    0    0 -0.60779139368E+02 -0.11408699128E+03  0.70349604507E+01  0.12945824049E+03  0.00000000000E+00 0.  1.
</event>
<event>
 7    1  0.6330892E-006  0.6381536E+02  0.7818608E-02  0.1412890E+00
          2   -1    0    0  502    0  0.00000000000E+00  0.00000000000E+00  0.16332235176E+03  0.16332235176E+03  0.00000000000E+00 0. -1.
          1   -1    0    0  501    0 -0.00000000000E+00 -0.00000000000E+00 -0.91224861694E+03  0.91224861694E+03  0.00000000000E+00 0. -1.
         25    2    1    2    0    0  0.40375094841E+02  0.33425207625E+02 -0.77200207084E+03  0.78380977650E+03  0.12499270203E+03 0.  0.
          2    1    1    2  501    0 -0.62601663241E+02  0.26394354345E+02 -0.11842901956E+03  0.13653227771E+03  0.00000000000E+00 0. -1.
          1    1    1    2  502    0  0.22226568400E+02 -0.59819561970E+02  0.14150482522E+03  0.15522891451E+03  0.00000000000E+00 0. -1.
         22    1    3    3    0    0  0.48607738675E+02  0.16802345454E+02 -0.75995061342E+03  0.76168889050E+03  0.00000000000E+00 0.  1.
         22    1    3    3    0    0 -0.82326438334E+01  0.16622862171E+02 -0.12051457416E+02  0.22120885993E+02  0.00000000000E+00 0.  1.
</event>
<event>
 7    1  0.6330892E-006  0.1173608E+03  0.7818608E-02  0.1394450E+00
          2   -1    0    0  502    0  0.00000000000E+00  0.00000000000E+00  0.24811961024E+03  0.24811961024E+03  0.00000000000E+00 0. -1.
          1   -1    0    0  501    0 -0.00000000000E+00 -0.00000000000E+00 -0.14179788321E+04  0.14179788321E+04  0.00000000000E+00 0. -1.
         25    2    1    2    0    0  0.98784898822E+02 -0.34059148606E+02 -0.77727966395E+03  0.79417105015E+03  0.12500199627E+03 0.  0.
          2    1    1    2  501    0 -0.11158167065E+03  0.62855679231E+02 -0.62469264307E+03  0.63768503506E+03  0.00000000000E+00 0. -1.
          1    1    1    2  502    0  0.12796771825E+02 -0.28796530625E+02  0.23211308518E+03  0.23424235710E+03  0.00000000000E+00 0. -1.
         22    1    3    3    0    0  0.10904345381E+03 -0.75221017531E+01 -0.73578588487E+03  0.74386015165E+03  0.00000000000E+00 0. -1.
         22    1    3    3    0    0 -0.10258554987E+02 -0.26537046852E+02 -0.41493779075E+02  0.50310898501E+02  0.00000000000E+00 0. -1.
</event>
<event>
 7    1  0.6330892E-006  0.1052646E+03  0.7818608E-02  0.1427566E+00
          2   -1    0    0  502    0  0.00000000000E+00  0.00000000000E+00  0.23404572763E+03  0.23404572763E+03  0.00000000000E+00 0. -1.
          1   -1    0    0  501    0 -0.00000000000E+00 -0.00000000000E+00 -0.14581074341E+04  0.14581074341E+04  0.00000000000E+00 0. -1.
         25    2    1    2    0    0 -0.72869698458E+02 -0.99076590150E+02 -0.48484671573E+02  0.18194108850E+03  0.12500253053E+03 0.  0.
          2    1    1    2  501    0  0.76010940825E+02  0.72117117451E+02 -0.13397346905E+04  0.13438257263E+04  0.00000000000E+00 0. -1.
          1    1    1    2  502    0 -0.31412423677E+01  0.26959472700E+02  0.16415765556E+03  0.16638634695E+03  0.00000000000E+00 0. -1.
         22    1    3    3    0    0 -0.88649899998E+02 -0.11913896648E+03 -0.33126703435E+02  0.15215214945E+03  0.00000000000E+00 0.  1.
         22    1    3    3    0    0  0.15780201540E+02  0.20062376326E+02 -0.15357968138E+02  0.29788939051E+02  0.00000000000E+00 0.  1.
</event>
<event>
 7    1  0.6330892E-006  0.5090862E+02  0.7818608E-02  0.1558015E+00
          2   -1    0    0  502    0  0.00000000000E+00  0.00000000000E+00  0.42997797359E+03  0.42997797359E+03  0.00000000000E+00 0. -1.
          1   -1    0    0  501    0 -0.00000000000E+00 -0.00000000000E+00 -0.50343727949E+02  0.50343727949E+02  0.00000000000E+00 0. -1.
         25    2    1    2    0    0  0.25020786073E+02 -0.19505692897E+02  0.10916753883E+03  0.16896601020E+03  0.12500179710E+03 0.  0.
          2    1    1    2  501    0  0.83441754943E+01 -0.21064331076E+02 -0.10889720203E+02  0.25137965599E+02  0.00000000000E+00 0. -1.
          1    1    1    2  502    0 -0.33364961568E+02  0.40570023973E+02  0.28135642701E+03  0.28621772573E+03  0.00000000000E+00 0. -1.
         22    1    3    3    0    0 -0.25411858801E+02 -0.57267741059E+02  0.73453730637E+02  0.96544328047E+02  0.00000000000E+00 0.  1.
         22    1    3    3    0    0  0.50432644874E+02  0.37762048162E+02  0.35713808198E+02  0.72421682157E+02  0.00000000000E+00 0.  1.
</event>
<event>
 7    1  0.6330892E-006  0.7112065E+02  0.7818608E-02  0.1393305E+00
          2   -1    0    0  502    0  0.00000000000E+00  0.00000000000E+00  0.15427494652E+03  0.15427494652E+03  0.00000000000E+00 0. -1.
          1   -1    0    0  501    0 -0.00000000000E+00 -0.00000000000E+00 -0.23166738324E+04  0.23166738324E+04  0.00000000000E+00 0. -1.
         25    2    1    2    0    0 -0.19915238789E+02  0.66418277491E+01 -0.21309481614E+03  0.24793961401E+03  0.12499568359E+03 0.  0.
          2    1    1    2  501    0 -0.46349378515E+02  0.24609764829E+02 -0.20759956612E+04  0.20766588287E+04  0.00000000000E+00 0. -1.
          1    1    1    2  502    0  0.66264617303E+02 -0.31251592578E+02  0.12669159150E+03  0.14635033619E+03  0.00000000000E+00 0. -1.
         22    1    3    3    0    0 -0.45373113403E+02  0.53675448064E+02 -0.93844970159E+02  0.11724611537E+03  0.00000000000E+00 0. -1.
         22    1    3    3    0    0  0.25457874614E+02 -0.47033620315E+02 -0.11924984598E+03  0.13069349864E+03  0.00000000000E+00 0. -1.
</event>
<event>
 7    1  0.6330892E-006  0.9459669E+02  0.7818608E-02  0.1380683E+00
          2   -1    0    0  502    0  0.00000000000E+00  0.00000000000E+00  0.11118105690E+04  0.11118105690E+04  0.00000000000E+00 0. -1.
          1   -1    0    0  501    0 -0.00000000000E+00 -0.00000000000E+00 -0.51407303631E+03  0.51407303631E+03  0.00000000000E+00 0. -1.
         25    2    1    2    0    0 -0.79973229959E+02 -0.45619811099E+01  0.29551397896E+03  0.33071138022E+03  0.12499990427E+03 0.  0.
          2    1    1    2  501    0  0.81782454082E+02  0.48210016527E+02 -0.49132977597E+03  0.50041735006E+03  0.00000000000E+00 0. -1.
          1    1    1    2  502    0 -0.18092241231E+01 -0.43648035417E+02  0.79355332967E+03  0.79475487499E+03  0.00000000000E+00 0. -1.
         22    1    3    3    0    0 -0.46505519819E+02 -0.64660454417E+02  0.15539819004E+03  0.17462054635E+03  0.00000000000E+00 0. -1.
         22    1    3    3    0    0 -0.33467710139E+02  0.60098473307E+02  0.14011578892E+03  0.15609083388E+03  0.00000000000E+00 0. -1.
</event>
<event>
 7    1  0.6330892E-006  0.3133032E+02  0.7818608E-02  0.1596801E+00
          2   -1    0    0  502    0  0.00000000000E+00  0.00000000000E+00  0.12421190209E+04  0.12421190209E+04  0.00000000000E+00 0. -1.
          1   -1    0    0  501    0 -0.00000000000E+00 -0.00000000000E+00 -0.18225481961E+04  0.18225481961E+04  0.00000000000E+00 0. -1.
         25    2    1    2    0    0  0.34382534770E+02  0.27013554673E+02 -0.68281954678E+02  0.14899530826E+03  0.12500114285E+03 0.  0.
          2    1    1    2  501    0 -0.31050543441E+01 -0.28783335557E+02 -0.17135831152E+04  0.17138276501E+04  0.00000000000E+00 0. -1.
          1    1    1    2  502    0 -0.31277480426E+02  0.17697808842E+01  0.12014358947E+04  0.12018442586E+04  0.00000000000E+00 0. -1.
         22    1    3    3    0    0 -0.38883414816E+02 -0.21577320548E+02 -0.21123348201E+02  0.49231052690E+02  0.00000000000E+00 0. -1.
         22    1    3    3    0    0  0.73265949586E+02  0.48590875222E+02 -0.47158606477E+02  0.99764255565E+02  0.00000000000E+00 0. -1.
</event>
<event>
 7    1  0.6330892E-006  0.1137334E+03  0.7818608E-02  0.1259627E+00
          2   -1    0    0  502    0  0.00000000000E+00  0.00000000000E+00  0.53528067312E+03  0.53528067312E+03  0.00000000000E+00 0. -1.
          1   -1    0    0  501    0 -0.00000000000E+00 -0.00000000000E+00 -0.15795759064E+04  0.15795759064E+04  0.00000000000E+00 0. -1.
         25    2    1    2    0    0  0.23399533558E+02  0.52472174653E+02 -0.18660407836E+01  0.13758780371E+03  0.12500421728E+03 0.  0.
          2    1    1    2  501    0 -0.11674431409E+03  0.60476345376E+00 -0.15013858047E+04  0.15059179710E+04  0.00000000000E+00 0. -1.
          1    1    1    2  502    0  0.93344780535E+02 -0.53076938107E+02  0.45895661218E+03  0.47135080490E+03  0.00000000000E+00 0. -1.
         22    1    3    3    0    0 -0.15242113782E+02  0.84278804392E+02  0.97791660501E+01  0.86202499911E+02  0.00000000000E+00 0.  1.
         22    1    3    3    0    0  0.38641647341E+02 -0.31806629738E+02 -0.11645206834E+02  0.51385303801E+02  0.00000000000E+00 0.  1.
</event>
<event>
 7    1  0.6330892E-006  0.8618672E+02  0.7818608E-02  0.1359042E+00
          2   -1    0    0  502    0  0.00000000000E+00  0.00000000000E+00  0.19188783461E+03  0.19188783461E+03  0.00000000000E+00 0. -1.
          1   -1    0    0  501    0 -0.00000000000E+00 -0.00000000000E+00 -0.48142216174E+03  0.48142216174E+03  0.00000000000E+00 0. -1.
         25    2    1    2    0    0 -0.40773491837E+02 -0.15181801392E+02 -0.12740946542E+03  0.18371368416E+03  0.12499832454E+03 0.  0.
          2    1    1    2  501    0  0.97627198514E+02  0.75937721356E+01 -0.31311974727E+03  0.32807424677E+03  0.00000000000E+00 0. -1.
          1    1    1    2  502    0 -0.56853706677E+02  0.75880292559E+01  0.15099488557E+03  0.16152206542E+03  0.00000000000E+00 0. -1.
         22    1    3    3    0    0 -0.27801963617E+02  0.49233856171E+02 -0.94745159478E+02  0.11033388881E+03  0.00000000000E+00 0.  1.
         22    1    3    3    0    0 -0.12971528220E+02 -0.64415657562E+02 -0.32664305946E+02  0.73379795356E+02  0.00000000000E+00 0.  1.
</event>
<event>
 7    1  0.6330892E-006  0.3718530E+02  0.7818608E-02  0.1536489E+00
          2   -1    0    0  502    0  0.00000000000E+00  0.00000000000E+00  0.63953038292E+03  0.63953038292E+03  0.00000000000E+00 0. -1.
          1   -1    0    0  501    0 -0.00000000000E+00 -0.00000000000E+00 -0.15907680861E+04  0.15907680861E+04  0.00000000000E+00 0. -1.
         25    2    1    2    0    0 -0.38674496045E+02 -0.17878510211E+02 -0.54561215867E+03  0.56137743001E+03  0.12504652518E+03 0.  0.
          2    1    1    2  501    0  0.84075132913E+01  0.36688720192E+02 -0.10364287747E+04  0.10371120256E+04  0.00000000000E+00 0. -1.
          1    1    1    2  502    0  0.30266982754E+02 -0.18810209981E+02  0.63080323022E+03  0.63180901347E+03  0.00000000000E+00 0. -1.
         22    1    3    3    0    0  0.26910346866E+02 -0.51008770177E+02 -0.27387055113E+03  0.27987700902E+03  0.00000000000E+00 0. -1.
         22    1    3    3    0    0 -0.65584842911E+02  0.33130259965E+02 -0.27174160754E+03  0.28150042098E+03  0.00000000000E+00 0. -1.
</event>
<event>
 7    1  0.6330892E-006  0.9959672E+02  0.7818608E-02  0.1433586E+00
          2   -1    0    0  502    0  0.00000000000E+00  0.00000000000E+00  0.26882922840E+03  0.26882922840E+03  0.00000000000E+00 0. -1.
          1   -1    0    0  501    0 -0.00000000000E+00 -0.00000000000E+00 -0.16187663292E+03  0.16187663292E+03  0.00000000000E+00 0. -1.
         25    2    1    2    0    0  0.58352375571E+02 -0.10924914227E+03  0.12504287106E+03  0.21586343775E+03  0.12498371627E+03 0.  0.
          2    1    1    2  501    0 -0.42713215208E+02  0.86741166556E+02 -0.93564051682E+02  0.13454620209E+03  0.00000000000E+00 0. -1.
          1    1    1    2  502    0 -0.15639160363E+02  0.22507975712E+02  0.75473776100E+02  0.80296221494E+02  0.00000000000E+00 0. -1.
         22    1    3    3    0    0 -0.25958912654E+01 -0.13507320455E+02 -0.24519169079E+02  0.28113626761E+02  0.00000000000E+00 0. -1.
         22    1    3    3    0    0  0.60948266836E+02 -0.95741821813E+02  0.14956204014E+03  0.18774981099E+03  0.00000000000E+00 0. -1.
</event>
<event>
 7    1  0.6330892E-006  0.6194186E+02  0.7818608E-02  0.1481242E+00
          2   -1    0    0  502    0  0.00000000000E+00  0.00000000000E+00  0.94269481271E+02  0.94269481271E+02  0.00000000000E+00 0. -1.
          1   -1    0    0  501    0 -0.00000000000E+00 -0.00000000000E+00 -0.74625572211E+03  0.74625572211E+03  0.00000000000E+00 0. -1.
         25    2    1    2    0    0 -0.37109211525E+02  0.40598642277E+02 -0.10559306688E+03  0.17262834092E+03  0.12500121992E+03 0.  0.
          2    1    1    2  501    0 -0.23246392511E+02 -0.20707721905E+02 -0.59000297820E+03  0.59082376289E+03  0.00000000000E+00 0. -1.
          1    1    1    2  502    0  0.60355604036E+02 -0.19890920372E+02  0.43609804239E+02  0.77073099571E+02  0.00000000000E+00 0. -1.
         22    1    3    3    0    0 -0.78042514185E+02  0.26999565864E+02 -0.34551422841E+02  0.89517659697E+02  0.00000000000E+00 0. -1.
         22    1    3    3    0    0  0.40933302660E+02  0.13599076413E+02 -0.71041644035E+02  0.83110681222E+02  0.00000000000E+00 0. -1.
</event>
<event>
 7    1  0.6330892E-006  0.2659307E+03  0.7818608E-02  0.1262495E+00
          2   -1    0    0  502    0  0.00000000000E+00  0.00000000000E+00  0.27060362665E+04  0.27060362665E+04  0.00000000000E+00 0. -1.
          1   -1    0    0  501    0 -0.00000000000E+00 -0.00000000000E+00 -0.40067497850E+03  0.40067497850E+03  0.00000000000E+00 0. -1.
         25    2    1    2    0    0 -0.25247116297E+03 -0.63000880812E+02  0.43893841511E+03  0.52535892493E+03  0.12499707448E+03 0.  0.
          2    1    1    2  501    0  0.26607835277E+03  0.20474684869E+02 -0.30739656237E+03  0.40707437784E+03  0.00000000000E+00 0. -1.
          1    1    1    2  502    0 -0.13607189794E+02  0.42526195943E+02  0.21738194352E+04  0.21742779422E+04  0.00000000000E+00 0. -1.
         22    1    3    3    0    0 -0.11625774514E+03 -0.27293401275E+02  0.31819083531E+03  0.33986203191E+03  0.00000000000E+00 0.  1.
         22    1    3    3    0    0 -0.13621341784E+03 -0.35707479537E+02  0.12074757980E+03  0.18549689302E+03  0.00000000000E+00 0.  1.
</event>
<event>
 7    1  0.6330892E-006  0.9031886E+02  0.7818608E-02  0.1324086E+00
          2   -1    0    0  502    0  0.00000000000E+00  0.00000000000E+00  0.50952686694E+03  0.50952686694E+03  0.00000000000E+00 0. -1.
          1   -1    0    0  501    0 -0.00000000000E+00 -0.00000000000E+00 -0.60082554248E+03  0.60082554248E+03  0.00000000000E+00 0. -1.
         25    2    1    2    0    0  0.40610382803E+02  0.10104022031E+03 -0.21441874098E+02  0.16716030412E+03  0.12499793597E+03 0.  0.
          2    1    1    2  501    0  0.31687906403E+02 -0.85070903053E+02 -0.49926306105E+03  0.50744929411E+03  0.00000000000E+00 0. -1.
          1    1    1    2  502    0 -0.72298289206E+02 -0.15969317253E+02  0.42940625961E+03  0.43574281120E+03  0.00000000000E+00 0. -1.
         22    1    3    3    0    0 -0.59720985112E+01 -0.17138228096E+02  0.25875555667E+02  0.31605841295E+02  0.00000000000E+00 0. -1.
         22    1    3    3    0    0  0.46582481314E+02  0.11817844840E+03 -0.47317429765E+02  0.13555446282E+03  0.00000000000E+00 0. -1.
</event>
<event>
 7    1  0.6330892E-006  0.1356995E+03  0.7818608E-02  0.1262294E+00
          2   -1    0    0  502    0  0.00000000000E+00  0.00000000000E+00  0.82979796910E+03  0.82979796910E+03  0.00000000000E+00 0. -1.
          1   -1    0    0  501    0 -0.00000000000E+00 -0.00000000000E+00 -0.85273146831E+03  0.85273146831E+03  0.00000000000E+00 0. -1.
         25    2    1    2    0    0 -0.92062417672E+02 -0.47397048891E+02 -0.23214231579E+03  0.28326138763E+03  0.12499995982E+03 0.  0.
          2    1    1    2  501    0 -0.41631916388E+02  0.77158122676E+02 -0.58591270333E+03  0.59243589381E+03  0.00000000000E+00 0. -1.
          1    1    1    2  502    0  0.13369433406E+03 -0.29761073786E+02  0.79512151991E+03  0.80683215596E+03  0.00000000000E+00 0. -1.
         22    1    3    3    0    0 -0.95336535201E+02 -0.20585811762E+02 -0.72958313960E+02  0.12180207784E+03  0.00000000000E+00 0.  1.
         22    1    3    3    0    0  0.32741175283E+01 -0.26811237128E+02 -0.15918400183E+03  0.16145930979E+03  0.00000000000E+00 0.  1.
</event>
<event>
 7    1  0.6330892E-006  0.9824164E+02  0.7818608E-02  0.1420972E+00
          2   -1    0    0  502    0  0.00000000000E+00  0.00000000000E+00  0.11248550053E+04  0.11248550053E+04  0.00000000000E+00 0. -1.
          1   -1    0    0  501    0 -0.00000000000E+00 -0.00000000000E+00 -0.32395479980E+03  0.32395479980E+03  0.00000000000E+00 0. -1.
         25    2    1    2    0    0 -0.10013246805E+03  0.17412402337E+02  0.66634787801E+02  0.17434178035E+03  0.12500063407E+03 0.  0.
          2    1    1    2  501    0  0.12837136854E+02  0.27761167493E+02 -0.26682078913E+03  0.26856806961E+03  0.00000000000E+00 0. -1.
          1    1    1    2  502    0  0.87295331198E+02 -0.45173569830E+02  0.10010862068E+04  0.10058999551E+04  0.00000000000E+00 0. -1.
         22    1    3    3    0    0  0.28660843961E+02 -0.55819344368E+01  0.20243843911E+02  0.35530482476E+02  0.00000000000E+00 0. -1.
         22    1    3    3    0    0 -0.12879331201E+03  0.22994336773E+02  0.46390943890E+02  0.13881129788E+03  0.00000000000E+00 0. -1.
</event>
<event>
 7    1  0.6330892E-006  0.9934104E+02  0.7818608E-02  0.1298206E+00
          2   -1    0    0  502    0  0.00000000000E+00  0.00000000000E+00  0.20636295216E+04  0.20636295216E+04  0.00000000000E+00 0. -1.
          1   -1    0    0  501    0 -0.00000000000E+00 -0.00000000000E+00 -0.11937636251E+04  0.11937636251E+04  0.00000000000E+00 0. -1.
         25    2    1    2    0    0  0.10048306770E+01  0.22160403939E+02  0.10452475407E+03  0.16443999233E+03  0.12499197446E+03 0.  0.
          2    1    1    2  501    0 -0.51936081907E+02  0.67416151666E+02 -0.11608713259E+04  0.11639864816E+04  0.00000000000E+00 0. -1.
          1    1    1    2  502    0  0.50931251230E+02 -0.89576555605E+02  0.19262124683E+04  0.19289666728E+04  0.00000000000E+00 0. -1.
         22    1    3    3    0    0 -0.24599469374E+01 -0.45528126576E+02  0.76842720103E+01  0.46237535453E+02  0.00000000000E+00 0.  1.
         22    1    3    3    0    0  0.34647776145E+01  0.67688530516E+02  0.96840482059E+02  0.11820245688E+03  0.00000000000E+00 0.  1.
</event>
<event>
 7    1  0.6330892E-006  0.6505353E+02  0.7818608E-02  0.1472578E+00
          2   -1    0    0  502    0  0.00000000000E+00  0.00000000000E+00  0.52984119433E+03  0.52984119433E+03  0.00000000000E+00 0. -1.
          1   -1    0    0  501    0 -0.00000000000E+00 -0.00000000000E+00 -0.34805100422E+02  0.34805100422E+02  0.00000000000E+00 0. -1.
         25    2    1    2    0    0 -0.61414021752E+02 -0.11053747349E+02  0.31204778226E+03  0.34189785494E+03  0.12500582947E+03 0.  0.
          2    1    1    2  501    0  0.72813634609E+01 -0.30669447230E+02  0.47783028867E+01  0.31882054917E+02  0.00000000000E+00 0. -1.
          1    1    1    2  502    0  0.54132658291E+02  0.41723194579E+02  0.17821000877E+03  0.19086638490E+03  0.00000000000E+00 0. -1.
         22    1    3    3    0    0 -0.50799252859E+02 -0.10234977604E+02  0.30460882246E+02  0.60109767965E+02  0.00000000000E+00 0.  1.
         22    1    3    3    0    0 -0.10614768892E+02 -0.81876974552E+00  0.28158690001E+03  0.28178808697E+03  0.00000000000E+00 0.  1.
</event>
<event>
 7    1  0.6330892E-006  0.7824315E+02  0.7818608E-02  0.1409912E+00
          2   -1    0    0  502    0  0.00000000000E+00  0.00000000000E+00  0.93177518683E+03  0.93177518683E+03  0.00000000000E+00 0. -1.
          1   -1    0    0  501    0 -0.00000000000E+00 -0.00000000000E+00 -0.17021194649E+04  0.17021194649E+04  0.00000000000E+00 0. -1.
         25    2    1    2    0    0 -0.22560195643E+02  0.54954287706E+02  0.69217006337E+02  0.15474165288E+03  0.12500019602E+03 0.  0.
          2    1    1    2  501    0  0.34544762819E+02  0.23598885811E+02 -0.16571669714E+04  0.16576949717E+04  0.00000000000E+00 0. -1.
          1    1    1    2  502    0 -0.11984567176E+02 -0.78553173517E+02  0.81760568702E+03  0.82145802715E+03  0.00000000000E+00 0. -1.
         22    1    3    3    0    0 -0.34141094282E+02 -0.27297575440E+02 -0.41600635537E+01  0.43909885817E+02  0.00000000000E+00 0.  1.
         22    1    3    3    0    0  0.11580898639E+02  0.82251863146E+02  0.73377069891E+02  0.11083176706E+03  0.00000000000E+00 0.  1.
</event>
<event>
 7    1  0.6330892E-006  0.1708952E+03  0.7818608E-02  0.1399807E+00
          2   -1    0    0  502    0  0.00000000000E+00  0.00000000000E+00  0.78423080716E+03  0.78423080716E+03  0.00000000000E+00 0. -1.
          1   -1    0    0  501    0 -0.00000000000E+00 -0.00000000000E+00 -0.16326711491E+04  0.16326711491E+04  0.00000000000E+00 0. -1.
         25    2    1    2    0    0  0.89935864541E+02 -0.12283793829E+03 -0.69022466486E+03  0.71778360631E+03  0.12500239477E+03 0.  0.
          2    1    1    2  501    0  0.37441499668E+01 -0.20397291145E+02 -0.91904368919E+03  0.91927763532E+03  0.00000000000E+00 0. -1.
          1    1    1    2  502    0 -0.93680014508E+02  0.14323522943E+03  0.76082801214E+03  0.77984071459E+03  0.00000000000E+00 0. -1.
         22    1    3    3    0    0  0.60149078162E+02 -0.13520435111E+02 -0.42389688371E+03  0.42835648914E+03  0.00000000000E+00 0.  1.
         22    1    3    3    0    0  0.29786786379E+02 -0.10931750318E+03 -0.26632778115E+03  0.28942711717E+03  0.00000000000E+00 0.  1.
</event>
<event>
 7    1  0.6330892E-006  0.1524329E+03  0.7818608E-02  0.1198926E+00
          2   -1    0    0  502    0  0.00000000000E+00  0.00000000000E+00  0.84229071076E+03  0.84229071076E+03  0.00000000000E+00 0. -1.
          1   -1    0    0  501    0 -0.00000000000E+00 -0.00000000000E+00 -0.10791513714E+04  0.10791513714E+04  0.00000000000E+00 0. -1.
         25    2    1    2    0    0 -0.12361827801E+03 -0.13642071676E+02  0.32889462952E+03  0.37318265511E+03  0.12500412779E+03 0.  0.
          2    1    1    2  501    0  0.69672703861E+00 -0.15010562216E+03 -0.10299933902E+04  0.10408739439E+04  0.00000000000E+00 0. -1.
          1    1    1    2  502    0  0.12292155097E+03  0.16374769384E+03  0.46423810006E+03  0.50738548312E+03  0.00000000000E+00 0. -1.
         22    1    3    3    0    0 -0.13111476888E+03  0.15665923223E+02  0.31139161722E+03  0.33823252807E+03  0.00000000000E+00 0. -1.
         22    1    3    3    0    0  0.74964908659E+01 -0.29307994898E+02  0.17503012302E+02  0.34950127037E+02  0.00000000000E+00 0. -1.
</event>
<event>
 7    1  0.6330892E-006  0.7229490E+02  0.7818608E-02  0.1441580E+00
          2   -1    0    0  502    0  0.00000000000E+00  0.00000000000E+00  0.19535909401E+03  0.19535909401E+03  0.00000000000E+00 0. -1.
          1   -1    0    0  501    0 -0.00000000000E+00 -0.00000000000E+00 -0.52534970708E+03  0.52534970708E+03  0.00000000000E+00 0. -1.
         25    2    1    2    0    0  0.87973740914E+02  0.18755909519E+02 -0.22439749210E+03  0.27215898004E+03  0.12500045088E+03 0.  0.
          2    1    1    2  501    0 -0.69017745823E+02  0.11331999958E+02 -0.27073446534E+03  0.27962298580E+03  0.00000000000E+00 0. -1.
          1    1    1    2  502    0 -0.18955995091E+02 -0.30087909476E+02  0.16514134438E+03  0.16892683526E+03  0.00000000000E+00 0. -1.
         22    1    3    3    0    0  0.41406325870E+02 -0.47087364213E+02 -0.50640914952E+02  0.80599044397E+02  0.00000000000E+00 0. -1.
         22    1    3    3    0    0  0.46567415045E+02  0.65843273731E+02 -0.17375657715E+03  0.19155993564E+03  0.00000000000E+00 0. -1.
</event>
<event>
 7    1  0.6330892E-006  0.6992425E+02  0.7818608E-02  0.1410084E+00
          2   -1    0    0  502    0  0.00000000000E+00  0.00000000000E+00  0.74938444078E+03  0.74938444078E+03  0.00000000000E+00 0. -1.
          1   -1    0    0  501    0 -0.00000000000E+00 -0.00000000000E+00 -0.57433324278E+03  0.57433324278E+03  0.00000000000E+00 0. -1.
         25    2    1    2    0    0  0.92152547456E+01 -0.67346966964E+02  0.26830545592E+03  0.30369843548E+03  0.12499754861E+03 0.  0.
          2    1    1    2  501    0  0.36882812066E+02  0.59564154140E+02 -0.55324283139E+03  0.55766106262E+03  0.00000000000E+00 0. -1.
          1    1    1    2  502    0 -0.46098066812E+02  0.77828128243E+01  0.45998857347E+03  0.46235818546E+03  0.00000000000E+00 0. -1.
         22    1    3    3    0    0  0.51024472599E+02 -0.82853780884E+02  0.19411907576E+03  0.21714156992E+03  0.00000000000E+00 0. -1.
         22    1    3    3    0    0 -0.41809217854E+02  0.15506813920E+02  0.74186380152E+02  0.86556865560E+02  0.00000000000E+00 0. -1.
</event>
<event>
 7    1  0.6330892E-006  0.7556775E+02  0.7818608E-02  0.1435671E+00
          2   -1    0    0  502    0  0.00000000000E+00  0.00000000000E+00  0.46805141938E+03  0.46805141938E+03  0.00000000000E+00 0. -1.
          1   -1    0    0  501    0 -0.00000000000E+00 -0.00000000000E+00 -0.45999559083E+03  0.45999559083E+03  0.00000000000E+00 0. -1.
         25    2    1    2    0    0  0.10646153607E+03 -0.25878640815E+02 -0.28094183574E+01  0.16624444431E+03  0.12500223886E+03 0.  0.
          2    1    1    2  501    0 -0.71589137474E+02  0.18918279108E+02 -0.37098378890E+03  0.37830130520E+03  0.00000000000E+00 0. -1.
          1    1    1    2  502    0 -0.34872398592E+02  0.69603617068E+01  0.38184903580E+03  0.38350126070E+03  0.00000000000E+00 0. -1.
         22    1    3    3    0    0  0.52257316822E+01 -0.50518627633E+02  0.27471854111E+02  0.57742036488E+02  0.00000000000E+00 0. -1.
         22    1    3    3    0    0  0.10123580438E+03  0.24639986818E+02 -0.30281272469E+02  0.10850240782E+03  0.00000000000E+00 0. -1.
</event>
<event>
 7    1  0.6330892E-006  0.8038672E+02  0.7818608E-02  0.1452537E+00
          2   -1    0    0  502    0  0.00000000000E+00  0.00000000000E+00  0.12808752408E+04  0.12808752408E+04  0.00000000000E+00 0. -1.
          1   -1    0    0  501    0 -0.00000000000E+00 -0.00000000000E+00 -0.69958705896E+03  0.69958705896E+03  0.00000000000E+00 0. -1.
         25    2    1    2    0    0 -0.59099861813E+02  0.24571146954E+02  0.34069671252E+03  0.36850556531E+03  0.12500226722E+03 0.  0.
          2    1    1    2  501    0  0.59677379459E+02 -0.54057110806E+02 -0.68308256702E+03  0.68781200499E+03  0.00000000000E+00 0. -1.
          1    1    1    2  502    0 -0.57751764564E+00  0.29485963852E+02  0.92367403633E+03  0.92414472946E+03  0.00000000000E+00 0. -1.
         22    1    3    3    0    0 -0.42496467142E+02  0.69508954376E+02  0.27744312709E+03  0.28915762695E+03  0.00000000000E+00 0.  1.
         22    1    3    3    0    0 -0.16603394671E+02 -0.44937807421E+02  0.63253585435E+02  0.79347938352E+02  0.00000000000E+00 0.  1.
</event>
<event>
 7    1  0.6330892E-006  0.3483129E+02  0.7818608E-02  0.1575537E+00
          2   -1    0    0  502    0  0.00000000000E+00  0.00000000000E+00  0.21230543094E+04  0.21230543094E+04  0.00000000000E+00 0. -1.
          1   -1    0    0  501    0 -0.00000000000E+00 -0.00000000000E+00 -0.77259675070E+03  0.77259675070E+03  0.00000000000E+00 0. -1.
         25    2    1    2    0    0 -0.55270924465E+00 -0.51467620365E+01 -0.55251183616E+03  0.56649978988E+03  0.12500355274E+03 0.  0.
          2    1    1    2  501    0 -0.27571385083E+01 -0.29534546469E+02 -0.21191447951E+03  0.21398046143E+03  0.00000000000E+00 0. -1.
          1    1    1    2  502    0  0.33098477529E+01  0.34681308506E+02  0.21148838744E+04  0.21151708088E+04  0.00000000000E+00 0. -1.
         22    1    3    3    0    0  0.40039547401E+02  0.93859257760E+01 -0.48268983545E+03  0.48443858043E+03  0.00000000000E+00 0. -1.
         22    1    3    3    0    0 -0.40592256646E+02 -0.14532687813E+02 -0.69822000705E+02  0.82061209455E+02  0.00000000000E+00 0. -1.
</event>
<event>
 7    1  0.6330892E-006  0.5200269E+02  0.7818608E-02  0.1510877E+00
          2   -1    0    0  502    0  0.00000000000E+00  0.00000000000E+00  0.81167381796E+03  0.81167381796E+03  0.00000000000E+00 0. -1.
          1   -1    0    0  501    0 -0.00000000000E+00 -0.00000000000E+00 -0.17024496053E+04  0.17024496053E+04  0.00000000000E+00 0. -1.
         25    2    1    2    0    0 -0.65638691027E+02 -0.22083545738E+02  0.12280929806E+03  0.18841991459E+03  0.12499527900E+03 0.  0.
          2    1    1    2  501    0  0.27434788762E+02 -0.12663626060E+02 -0.16684910319E+04  0.16687646204E+04  0.00000000000E+00 0. -1.
          1    1    1    2  502    0  0.38203902265E+02  0.34747171797E+02  0.65490594648E+03  0.65693888820E+03  0.00000000000E+00 0. -1.
         22    1    3    3    0    0 -0.73508585344E+02  0.30077813259E+01  0.13919117070E+03  0.15743805407E+03  0.00000000000E+00 0.  1.
         22    1    3    3    0    0  0.78698943168E+01 -0.25091327063E+02 -0.16381872640E+02  0.30981860525E+02  0.00000000000E+00 0.  1.
</event>
<event>
 7    1  0.6330892E-006  0.1092755E+03  0.7818608E-02  0.1367856E+00
          2   -1    0    0  502    0  0.00000000000E+00  0.00000000000E+00  0.13310243169E+04  0.13310243169E+04  0.00000000000E+00 0. -1.
          1   -1    0    0  501    0 -0.00000000000E+00 -0.00000000000E+00 -0.23580593782E+03  0.23580593782E+03  0.00000000000E+00 0. -1.
         25    2    1    2    0    0 -0.24163084170E+02  0.10341430652E+03 -0.68046748868E+02  0.17757687004E+03  0.12499924525E+03 0.  0.
          2    1    1    2  501    0 -0.16915965592E+02 -0.11228281183E+03 -0.84023505040E+02  0.14125696133E+03  0.00000000000E+00 0. -1.
          1    1    1    2  502    0  0.41079049762E+02  0.88685053117E+01  0.12472886330E+04  0.12479964234E+04  0.00000000000E+00 0. -1.
         22    1    3    3    0    0 -0.16441796005E+02  0.41577964994E+01 -0.75842685152E+02  0.77715717964E+02  0.00000000000E+00 0.  1.
         22    1    3    3    0    0 -0.77212881645E+01  0.99256510018E+02  0.77959362837E+01  0.99861152078E+02  0.00000000000E+00 0.  1.
</event>
<event>
 7    1  0.6330892E-006  0.8487252E+02  0.7818608E-02  0.1467859E+00
          2   -1    0    0  502    0  0.00000000000E+00  0.00000000000E+00  0.68666025340E+03  0.68666025340E+03  0.00000000000E+00 0. -1.
          1   -1    0    0  501    0 -0.00000000000E+00 -0.00000000000E+00 -0.22428637181E+03  0.22428637181E+03  0.00000000000E+00 0. -1.
         25    2    1    2    0    0  0.23075994139E+01  0.74450410233E+02  0.25471472903E+03  0.29334705534E+03  0.12499885237E+03 0.  0.
          2    1    1    2  501    0 -0.22374497856E+02  0.11133614856E+02 -0.19949996922E+03  0.20105922822E+03  0.00000000000E+00 0. -1.
          1    1    1    2  502    0  0.20066898442E+02 -0.85584025089E+02  0.40715912178E+03  0.41654034164E+03  0.00000000000E+00 0. -1.
         22    1    3    3    0    0 -0.26800159476E+02 -0.22020945401E+02  0.25782848553E+02  0.43219507908E+02  0.00000000000E+00 0. -1.
         22    1    3    3    0    0  0.29107758890E+02  0.96471355634E+02  0.22893188048E+03  0.25012754743E+03  0.00000000000E+00 0. -1.
</event>
<event>
 7    1  0.6330892E-006  0.5675225E+02  0.7818608E-02  0.1534348E+00
          2   -1    0    0  502    0  0.00000000000E+00  0.00000000000E+00  0.97596465863E+02  0.97596465863E+02  0.00000000000E+00 0. -1.
          1   -1    0    0  501    0 -0.00000000000E+00 -0.00000000000E+00 -0.64925162408E+03  0.64925162408E+03  0.00000000000E+00 0. -1.
         25    2    1    2    0    0  0.31061093144E+02 -0.72194810868E+02 -0.21659089468E+03  0.26213233694E+03  0.12499945675E+03 0.  0.
          2    1    1    2  501    0 -0.20387992512E+02  0.51057569659E+02 -0.40611692336E+03  0.40982130386E+03  0.00000000000E+00 0. -1.
          1    1    1    2  502    0 -0.10673100632E+02  0.21137241209E+02  0.71052659828E+02  0.74894449138E+02  0.00000000000E+00 0. -1.
         22    1    3    3    0    0  0.66888015553E+02 -0.75010941683E+02 -0.19711282295E+03  0.22125576369E+03  0.00000000000E+00 0.  1.
         22    1    3    3    0    0 -0.35826922409E+02  0.28161308156E+01 -0.19478071735E+02  0.40876573249E+02  0.00000000000E+00 0.  1.
</event>
<event>
 7    1  0.6330892E-006  0.5307237E+02  0.7818608E-02  0.1455811E+00
          2   -1    0    0  502    0  0.00000000000E+00  0.00000000000E+00  0.60184420708E+02  0.60184420708E+02  0.00000000000E+00 0. -1.
          1   -1    0    0  501    0 -0.00000000000E+00 -0.00000000000E+00 -0.59491315392E+03  0.59491315392E+03  0.00000000000E+00 0. -1.
         25    2    1    2    0    0  0.88366233627E+02 -0.47643947983E+00 -0.37089016596E+03  0.40123839521E+03  0.12499566530E+03 0.  0.
          2    1    1    2  501    0 -0.45798479470E+02  0.99611509821E+01 -0.19481009745E+03  0.20036890807E+03  0.00000000000E+00 0. -1.
          1    1    1    2  502    0 -0.42567754157E+02 -0.94847115023E+01  0.30971530202E+02  0.53490271352E+02  0.00000000000E+00 0. -1.
         22    1    3    3    0    0 -0.37550918429E+00  0.60672963248E+01 -0.25526520344E+03  0.25533757494E+03  0.00000000000E+00 0. -1.
         22    1    3    3    0    0  0.88741742811E+02 -0.65437358046E+01 -0.11562496252E+03  0.14590082026E+03  0.00000000000E+00 0. -1.
</event>
<event>
 7    1  0.6330892E-006  0.1458616E+03  0.7818608E-02  0.1261845E+00
          2   -1    0    0  502    0  0.00000000000E+00  0.00000000000E+00  0.22474452164E+04  0.22474452164E+04  0.00000000000E+00 0. -1.
          1   -1    0    0  501    0 -0.00000000000E+00 -0.00000000000E+00 -0.13863024602E+04  0.13863024602E+04  0.00000000000E+00 0. -1.
         25    2    1    2    0    0  0.39949881580E+02 -0.90882257631E+02  0.41373921695E+02  0.16488763179E+03  0.12498220645E+03 0.  0.
          2    1    1    2  501    0 -0.59612046881E+02 -0.56195945034E+02 -0.13207077624E+04  0.13232462258E+04  0.00000000000E+00 0. -1.
          1    1    1    2  502    0  0.19662165300E+02  0.14707820266E+03  0.21404765969E+04  0.21456138190E+04  0.00000000000E+00 0. -1.
         22    1    3    3    0    0 -0.12856936154E+02  0.27132373947E+02  0.39048716511E+01  0.30277294230E+02  0.00000000000E+00 0.  1.
         22    1    3    3    0    0  0.52806817734E+02 -0.11801463158E+03  0.37469050044E+02  0.13461033756E+03  0.00000000000E+00 0.  1.
</event>
<event>
 7    1  0.6330892E-006  0.7834290E+02  0.7818608E-02  0.1499325E+00
          2   -1    0    0  502    0  0.00000000000E+00  0.00000000000E+00  0.23449627263E+04  0.23449627263E+04  0.00000000000E+00 0. -1.
          1   -1    0    0  501    0 -0.00000000000E+00 -0.00000000000E+00 -0.18645076470E+02  0.18645076470E+02  0.00000000000E+00 0. -1.
         25    2    1    2    0    0 -0.73575300013E+02  0.48422111476E+02  0.13140681899E+04  0.13229354032E+04  0.12499939072E+03 0.  0.
          2    1    1    2  501    0  0.72985281951E+02 -0.26728041517E+02  0.93157226815E+02  0.12132398152E+03  0.00000000000E+00 0. -1.
          1    1    1    2  502    0  0.59001806147E+00 -0.21694069960E+02  0.91909223308E+03  0.91934841801E+03  0.00000000000E+00 0. -1.
         22    1    3    3    0    0 -0.47584467966E+02  0.87623291207E+02  0.69962121124E+03  0.70669085318E+03  0.00000000000E+00 0.  1.
         22    1    3    3    0    0 -0.25990832046E+02 -0.39201179731E+02  0.61444697870E+03  0.61624455006E+03  0.00000000000E+00 0.  1.
</event>
<event>
 7    1  0.6330892E-006  0.6025867E+02  0.7818608E-02  0.1420715E+00
          2   -1    0    0  502    0  0.00000000000E+00  0.00000000000E+00  0.44869744598E+02  0.44869744598E+02  0.00000000000E+00 0. -1.
          1   -1    0    0  501    0 -0.00000000000E+00 -0.00000000000E+00 -0.60887627357E+03  0.60887627357E+03  0.00000000000E+00 0. -1.
         25    2    1    2    0    0  0.32869744817E+01  0.20709702162E+02 -0.19043499081E+03  0.22875844880E+03  0.12500098482E+03 0.  0.
          2    1    1    2  501    0 -0.42630057053E+02 -0.51506476731E+02 -0.36878372660E+03  0.37479551213E+03  0.00000000000E+00 0. -1.
          1    1    1    2  502    0  0.39343082572E+02  0.30796774569E+02 -0.47878115625E+01  0.50192057237E+02  0.00000000000E+00 0. -1.
         22    1    3    3    0    0  0.13656580426E+02 -0.47759914046E+02 -0.42331750929E+02  0.65264758601E+02  0.00000000000E+00 0.  1.
         22    1    3    3    0    0 -0.10369605944E+02  0.68469616208E+02 -0.14810323988E+03  0.16349369020E+03  0.00000000000E+00 0.  1.
</event>
<event>
 7    1  0.6330892E-006  0.1142952E+03  0.7818608E-02  0.1360910E+00
          2   -1    0    0  502    0  0.00000000000E+00  0.00000000000E+00  0.22074490469E+04  0.22074490469E+04  0.00000000000E+00 0. -1.
          1   -1    0    0  501    0 -0.00000000000E+00 -0.00000000000E+00 -0.16130507905E+04  0.16130507905E+04  0.00000000000E+00 0. -1.
         25    2    1    2    0    0 -0.56701435416E+02  0.12048450778E+03  0.57542202030E+03  0.60371126121E+03  0.12500086432E+03 0.  0.
          2    1    1    2  501    0  0.14734009521E+02 -0.11329785118E+03 -0.15965843175E+04  0.16006670413E+04  0.00000000000E+00 0. -1.
          1    1    1    2  502    0  0.41967425895E+02 -0.71866566059E+01  0.16155605537E+04  0.16161215349E+04  0.00000000000E+00 0. -1.
         22    1    3    3    0    0  0.21667814250E+02  0.98887570401E+02  0.30850093983E+03  0.32468611863E+03  0.00000000000E+00 0. -1.
         22    1    3    3    0    0 -0.78369249666E+02  0.21596937380E+02  0.26692108046E+03  0.27902514258E+03  0.00000000000E+00 0. -1.
</event>
<event>
 7    1  0.8960667E-006  0.1000843E+03  0.7818608E-02  0.1357739E+00
          2   -1    0    0  502    0  0.00000000000E+00  0.00000000000E+00  0.15207417034E+04  0.15207417034E+04  0.00000000000E+00 0. -1.
          1   -1    0    0  501    0 -0.00000000000E+00 -0.00000000000E+00 -0.74099762741E+03  0.74099762741E+03  0.00000000000E+00 0. -1.
         25    2    1    2    0    0  0.44005490752E+01  0.65483431714E+02 -0.33700960446E+02  0.14514824367E+03  0.12499925298E+03 0.  0.
          2    1    1    2  501    0  0.44442271266E+02  0.22775917573E+02 -0.64887608488E+03  0.65079492271E+03  0.00000000000E+00 0. -1.
          1    1    1    2  502    0 -0.48842820341E+02 -0.88259349287E+02  0.14623211213E+04  0.14657961644E+04  0.00000000000E+00 0. -1.
         22    1    3    3    0    0 -0.24207658130E+02  0.95668938499E+02 -0.16100758880E+02  0.99988954101E+02  0.00000000000E+00 0. -1.
         22    1    3    3    0    0  0.28608207205E+02 -0.30185506785E+02 -0.17600201566E+02  0.45159289570E+02  0.00000000000E+00 0. -1.
</event>
<event>
 7    1  0.6330892E-006  0.1516026E+03  0.7818608E-02  0.1245262E+00
          2   -1    0    0  502    0  0.00000000000E+00  0.00000000000E+00  0.18737950751E+04  0.18737950751E+04  0.00000000000E+00 0. -1.
          1   -1    0    0  501    0 -0.00000000000E+00 -0.00000000000E+00 -0.47519307774E+03  0.47519307774E+03  0.00000000000E+00 0. -1.
         25    2    1    2    0    0 -0.24073157482E+03 -0.29296012451E+02  0.14155207559E+04  0.14415728507E+04  0.12499330417E+03 0.  0.
          2    1    1    2  501    0  0.14780011585E+03  0.30017914694E+02 -0.44474002172E+03  0.46961647796E+03  0.00000000000E+00 0. -1.
          1    1    1    2  502    0  0.92931458973E+02 -0.72190224300E+00  0.42782126316E+03  0.43779882415E+03  0.00000000000E+00 0. -1.
         22    1    3    3    0    0 -0.17052915519E+03 -0.32728999759E+02  0.64870693558E+03  0.67154453945E+03  0.00000000000E+00 0. -1.
         22    1    3    3    0    0 -0.70202419629E+02  0.34329873082E+01  0.76681382030E+03  0.77002831125E+03  0.00000000000E+00 0. -1.
</event>
<event>
 7    1  0.6330892E-006  0.8496887E+02  0.7818608E-02  0.1315988E+00
          2   -1    0    0  502    0  0.00000000000E+00  0.00000000000E+00  0.98633210051E+03  0.98633210051E+03  0.00000000000E+00 0. -1.
          1   -1    0    0  501    0 -0.00000000000E+00 -0.00000000000E+00 -0.58965059562E+03  0.58965059562E+03  0.00000000000E+00 0. -1.
         25    2    1    2    0    0  0.44827321030E+02  0.10267112993E+03 -0.20258443246E+01  0.16786824880E+03  0.12499918111E+03 0.  0.
          2    1    1    2  501    0  0.36147874000E+02 -0.76927654916E+02 -0.49910478718E+03  0.50629055045E+03  0.00000000000E+00 0. -1.
          1    1    1    2  502    0 -0.80975195030E+02 -0.25743475018E+02  0.89781213640E+03  0.90182389688E+03  0.00000000000E+00 0. -1.
         22    1    3    3    0    0 -0.30736254897E+00  0.11957752022E+03  0.91559921134E+00  0.11958142053E+03  0.00000000000E+00 0. -1.
         22    1    3    3    0    0  0.45134683579E+02 -0.16906390289E+02 -0.29414435359E+01  0.48286828271E+02  0.00000000000E+00 0. -1.
</event>
<event>
 7    1  0.6330892E-006  0.2246899E+03  0.7818608E-02  0.1198888E+00
          2   -1    0    0  502    0  0.00000000000E+00  0.00000000000E+00  0.48617408060E+03  0.48617408060E+03  0.00000000000E+00 0. -1.
          1   -1    0    0  501    0 -0.00000000000E+00 -0.00000000000E+00 -0.15962172308E+04  0.15962172308E+04  0.00000000000E+00 0. -1.
         25    2    1    2    0    0 -0.21569442524E+03 -0.11386055624E+03 -0.74851500754E+02  0.28410122227E+03  0.12498978352E+03 0.  0.
          2    1    1    2  501    0 -0.85552888466E+01  0.10151765814E+03 -0.13816524950E+04  0.13854034232E+04  0.00000000000E+00 0. -1.
          1    1    1    2  502    0  0.22424971409E+03  0.12342898096E+02  0.34646084559E+03  0.41288666596E+03  0.00000000000E+00 0. -1.
         22    1    3    3    0    0 -0.17104122017E+03 -0.94024302366E+02 -0.55980091425E+00  0.19518191978E+03  0.00000000000E+00 0.  1.
         22    1    3    3    0    0 -0.44653205075E+02 -0.19836253871E+02 -0.74291699839E+02  0.88919302495E+02  0.00000000000E+00 0.  1.
</event>
<event>
 7    1  0.6330892E-006  0.3798313E+03  0.7818608E-02  0.1124896E+00
          2   -1    0    0  502    0  0.00000000000E+00  0.00000000000E+00  0.15798191868E+04  0.15798191868E+04  0.00000000000E+00 0. -1.
          1   -1    0    0  501    0 -0.00000000000E+00 -0.00000000000E+00 -0.61458711708E+03  0.61458711708E+03  0.00000000000E+00 0. -1.
         25    2    1    2    0    0  0.34316028948E+03  0.18245800410E+02  0.60275498907E+03  0.70500402492E+03  0.12500081918E+03 0.  0.
          2    1    1    2  501    0  0.52523497881E+02  0.13226241029E+03 -0.50471502086E+03  0.52439423651E+03  0.00000000000E+00 0. -1.
          1    1    1    2  502    0 -0.39568378736E+03 -0.15050821070E+03  0.86719210148E+03  0.96500804242E+03  0.00000000000E+00 0. -1.
         22    1    3    3    0    0  0.24938128729E+03 -0.29806298925E+02  0.49036580603E+03  0.55094288781E+03  0.00000000000E+00 0.  1.
         22    1    3    3    0    0  0.93779002192E+02  0.48052099335E+02  0.11238918303E+03  0.15406113710E+03  0.00000000000E+00 0.  1.
</event>
<event>
 7    1  0.6330892E-006  0.7154272E+02  0.7818608E-02  0.1415810E+00
          2   -1    0    0  502    0  0.00000000000E+00  0.00000000000E+00  0.17355514664E+03  0.17355514664E+03  0.00000000000E+00 0. -1.
          1   -1    0    0  501    0 -0.00000000000E+00 -0.00000000000E+00 -0.16122948984E+03  0.16122948984E+03  0.00000000000E+00 0. -1.
         25    2    1    2    0    0  0.46955906224E+02  0.89402152866E+02  0.57064030299E+02  0.17052329614E+03  0.12499715559E+03 0.  0.
          2    1    1    2  501    0 -0.51365971588E+02 -0.45920509117E+02 -0.81805397885E+02  0.10695456661E+03  0.00000000000E+00 0. -1.
          1    1    1    2  502    0  0.44100653634E+01 -0.43481643749E+02  0.37067024380E+02  0.57306773736E+02  0.00000000000E+00 0. -1.
         22    1    3    3    0    0 -0.15791248104E+02  0.96079585197E+02  0.38983469950E+02  0.10488260646E+03  0.00000000000E+00 0.  1.
         22    1    3    3    0    0  0.62747154328E+02 -0.66774323314E+01  0.18080560349E+02  0.65640689678E+02  0.00000000000E+00 0.  1.
</event>
<event>
 7    1  0.6330892E-006  0.4869134E+02  0.7818608E-02  0.1481638E+00
          2   -1    0    0  502    0  0.00000000000E+00  0.00000000000E+00  0.61127080728E+03  0.61127080728E+03  0.00000000000E+00 0. -1.
          1   -1    0    0  501    0 -0.00000000000E+00 -0.00000000000E+00 -0.23276476758E+02  0.23276476758E+02  0.00000000000E+00 0. -1.
         25    2    1    2    0    0 -0.68860131735E+02  0.10641153998E+02  0.30576223639E+03  0.33759680266E+03  0.12500441616E+03 0.  0.
          2    1    1    2  501    0  0.26168210271E+02 -0.29580182420E+02  0.77787739254E+02  0.87239296186E+02  0.00000000000E+00 0. -1.
          1    1    1    2  502    0  0.42691921465E+02  0.18939028423E+02  0.20444435487E+03  0.20971118519E+03  0.00000000000E+00 0. -1.
         22    1    3    3    0    0  0.14402915333E+02  0.14319514276E+02  0.20859837499E+03  0.20958476688E+03  0.00000000000E+00 0. -1.
         22    1    3    3    0    0 -0.83263047068E+02 -0.36783602787E+01  0.97163861407E+02  0.12801203578E+03  0.00000000000E+00 0. -1.
</event>
<event>
 7    1  0.6330892E-006  0.8542444E+02  0.7818608E-02  0.1435971E+00
          2   -1    0    0  502    0  0.00000000000E+00  0.00000000000E+00  0.49991181048E+03  0.49991181048E+03  0.00000000000E+00 0. -1.
          1   -1    0    0  501    0 -0.00000000000E+00 -0.00000000000E+00 -0.89683260774E+02  0.89683260774E+02  0.00000000000E+00 0. -1.
         25    2    1    2    0    0  0.14534121525E+02  0.80947275477E+02  0.25910845581E+03  0.29920896718E+03  0.12500044830E+03 0.  0.
          2    1    1    2  501    0 -0.45034666700E+02 -0.73543561281E+02 -0.41163786300E+02  0.95557490095E+02  0.00000000000E+00 0. -1.
          1    1    1    2  502    0  0.30500545175E+02 -0.74037141955E+01  0.19228388019E+03  0.19482861397E+03  0.00000000000E+00 0. -1.
         22    1    3    3    0    0  0.30923058935E+02  0.56532527631E+02  0.26186321960E+03  0.26967481906E+03  0.00000000000E+00 0. -1.
         22    1    3    3    0    0 -0.16388937410E+02  0.24414747846E+02 -0.27547637945E+01  0.29534148124E+02  0.00000000000E+00 0. -1.
</event>
<event>
 7    1  0.6330892E-006  0.5768266E+02  0.7818608E-02  0.1444594E+00
          2   -1    0    0  502    0  0.00000000000E+00  0.00000000000E+00  0.27152425089E+04  0.27152425089E+04  0.00000000000E+00 0. -1.
          1   -1    0    0  501    0 -0.00000000000E+00 -0.00000000000E+00 -0.18224806104E+03  0.18224806104E+03  0.00000000000E+00 0. -1.
         25    2    1    2    0    0 -0.26379725666E+02  0.96753301819E+02  0.40131248328E+03  0.43212705225E+03  0.12499995484E+03 0.  0.
          2    1    1    2  501    0  0.10758695144E+02 -0.42232718984E+02 -0.16363845373E+03  0.16934253929E+03  0.00000000000E+00 0. -1.
          1    1    1    2  502    0  0.15621030522E+02 -0.54520582836E+02  0.22953204183E+04  0.22960209784E+04  0.00000000000E+00 0. -1.
         22    1    3    3    0    0 -0.16696297114E+02  0.12281716748E+03  0.37021212028E+03  0.39040983206E+03  0.00000000000E+00 0.  1.
         22    1    3    3    0    0 -0.96834285518E+01 -0.26063865662E+02  0.31100363005E+02  0.41717220195E+02  0.00000000000E+00 0.  1.
</event>
<event>
 7    1  0.1002090E-005  0.6888179E+02  0.7818608E-02  0.1427126E+00
          2   -1    0    0  502    0  0.00000000000E+00  0.00000000000E+00  0.29744839083E+04  0.29744839083E+04  0.00000000000E+00 0. -1.
          1   -1    0    0  501    0 -0.00000000000E+00 -0.00000000000E+00 -0.49518736196E+03  0.49518736196E+03  0.00000000000E+00 0. -1.
         25    2    1    2    0    0 -0.85733321685E+02  0.42507714576E+02 -0.22808510061E+03  0.27713715095E+03  0.12500031628E+03 0.  0.
          2    1    1    2  501    0  0.17032063854E+02 -0.37972427555E+02 -0.24038629023E+03  0.24396222040E+03  0.00000000000E+00 0. -1.
          1    1    1    2  502    0  0.68701257831E+02 -0.45352870219E+01  0.29477679372E+04  0.29485718989E+04  0.00000000000E+00 0. -1.
         22    1    3    3    0    0 -0.79574002909E+02  0.83770421462E+02 -0.16188537959E+03  0.19888786181E+03  0.00000000000E+00 0. -1.
         22    1    3    3    0    0 -0.61593187761E+01 -0.41262706886E+02 -0.66199721016E+02  0.78249289133E+02  0.00000000000E+00 0. -1.
</event>
<event>
 7    1  0.6330892E-006  0.1716284E+03  0.7818608E-02  0.1312994E+00
          2   -1    0    0  502    0  0.00000000000E+00  0.00000000000E+00  0.22708730146E+04  0.22708730146E+04  0.00000000000E+00 0. -1.
          1   -1    0    0  501    0 -0.00000000000E+00 -0.00000000000E+00 -0.86003564034E+03  0.86003564034E+03  0.00000000000E+00 0. -1.
         25    2    1    2    0    0  0.11053891804E+03  0.16856181876E+03 -0.14223828451E+03  0.27656505674E+03  0.12499824754E+03 0.  0.
          2    1    1    2  501    0 -0.71164742822E+02 -0.15119868844E+03 -0.63968928319E+03  0.66115644370E+03  0.00000000000E+00 0. -1.
          1    1    1    2  502    0 -0.39374175215E+02 -0.17363130316E+02  0.21927649420E+04  0.21931871545E+04  0.00000000000E+00 0. -1.
         22    1    3    3    0    0  0.12061782925E+03  0.13582781807E+03 -0.66500775397E+02  0.19344304077E+03  0.00000000000E+00 0.  1.
         22    1    3    3    0    0 -0.10078911217E+02  0.32734000688E+02 -0.75737509108E+02  0.83122015966E+02  0.00000000000E+00 0.  1.
</event>
<event>
 7    1  0.6924768E-006  0.9499623E+02  0.7818608E-02  0.1409879E+00
          2   -1    0    0  502    0  0.00000000000E+00  0.00000000000E+00  0.77311375984E+03  0.77311375984E+03  0.00000000000E+00 0. -1.
          1   -1    0    0  501    0 -0.00000000000E+00 -0.00000000000E+00 -0.15598140582E+04  0.15598140582E+04  0.00000000000E+00 0. -1.
         25    2    1    2    0    0 -0.71888103745E+02  0.10357369126E+03 -0.10943273497E+04  0.11086355552E+04  0.12500014747E+03 0.  0.
          2    1    1    2  501    0  0.28733736334E+02 -0.19034998871E+02 -0.45473747549E+03  0.45604180774E+03  0.00000000000E+00 0. -1.
          1    1    1    2  502    0  0.43154367411E+02 -0.84538692387E+02  0.76236452688E+03  0.76825045511E+03  0.00000000000E+00 0. -1.
         22    1    3    3    0    0 -0.41659867657E+02  0.58118411247E+02 -0.19575537152E+03  0.20840695712E+03  0.00000000000E+00 0.  1.
         22    1    3    3    0    0 -0.30228236088E+02  0.45455280011E+02 -0.89857197819E+03  0.90022859804E+03  0.00000000000E+00 0.  1.
</event>
<event>
 7    1  0.6330892E-006  0.2015293E+03  0.7818608E-02  0.1342594E+00
          2   -1    0    0  502    0  0.00000000000E+00  0.00000000000E+00  0.14466965192E+04  0.14466965192E+04  0.00000000000E+00 0. -1.
          1   -1    0    0  501    0 -0.00000000000E+00 -0.00000000000E+00 -0.73947050647E+03  0.73947050647E+03  0.00000000000E+00 0. -1.
         25    2    1    2    0    0  0.22497433228E+03 -0.36929788932E+02  0.15967439554E+03  0.30512046797E+03  0.12500131155E+03 0.  0.
          2    1    1    2  501    0 -0.19745828487E+03  0.30663687579E+02 -0.65160578311E+03  0.68155713816E+03  0.00000000000E+00 0. -1.
          1    1    1    2  502    0 -0.27516047407E+02  0.62661013532E+01  0.11991574003E+04  0.11994894195E+04  0.00000000000E+00 0. -1.
         22    1    3    3    0    0  0.10346168987E+03 -0.60478302530E+02  0.25402641549E+02  0.12250404297E+03  0.00000000000E+00 0. -1.
         22    1    3    3    0    0  0.12151264241E+03  0.23548513598E+02  0.13427175399E+03  0.18261642499E+03  0.00000000000E+00 0. -1.
</event>
<event>
 7    1  0.6330892E-006  0.3892332E+02  0.7818608E-02  0.1580501E+00
          2   -1    0    0  502    0  0.00000000000E+00  0.00000000000E+00  0.70603316520E+03  0.70603316520E+03  0.00000000000E+00 0. -1.
          1   -1    0    0  501    0 -0.00000000000E+00 -0.00000000000E+00 -0.19608096537E+04  0.19608096537E+04  0.00000000000E+00 0. -1.
         25    2    1    2    0    0  0.34146606920E+02  0.65009637628E+01 -0.15239623595E+04  0.15294749432E+04  0.12499630208E+03 0.  0.
          2    1    1    2  501    0 -0.30506329073E+00 -0.25739393482E+02 -0.43316994686E+03  0.43393411055E+03  0.00000000000E+00 0. -1.
          1    1    1    2  502    0 -0.33841543629E+02  0.19238429720E+02  0.70235581777E+03  0.70343376519E+03  0.00000000000E+00 0. -1.
         22    1    3    3    0    0  0.45060764047E+02 -0.28981555637E+02 -0.28713502794E+03  0.29209061487E+03  0.00000000000E+00 0.  1.
         22    1    3    3    0    0 -0.10914157128E+02  0.35482519400E+02 -0.12368273315E+04  0.12373843283E+04  0.00000000000E+00 0.  1.
</event>
<event>
 7    1  0.6330892E-006  0.2908220E+02  0.7818608E-02  0.1652632E+00
          2   -1    0    0  502    0  0.00000000000E+00  0.00000000000E+00  0.66490763273E+03  0.66490763273E+03  0.00000000000E+00 0. -1.
          1   -1    0    0  501    0 -0.00000000000E+00 -0.00000000000E+00 -0.68504090167E+03  0.68504090167E+03  0.00000000000E+00 0. -1.
         25    2    1    2    0    0  0.32124793784E+02 -0.39533301645E+01 -0.32526330335E+03  0.34995501466E+03  0.12499865833E+03 0.  0.
          2    1    1    2  501    0 -0.23887215999E+02 -0.17008057400E+02 -0.34661815081E+03  0.34785631455E+03  0.00000000000E+00 0. -1.
          1    1    1    2  502    0 -0.82375777853E+01  0.20961387565E+02  0.65174818521E+03  0.65213720518E+03  0.00000000000E+00 0. -1.
         22    1    3    3    0    0  0.40870953092E+02 -0.44307102761E+02 -0.74582172144E+02  0.95896061251E+02  0.00000000000E+00 0. -1.
         22    1    3    3    0    0 -0.87461593074E+01  0.40353772597E+02 -0.25068113120E+03  0.25405895341E+03  0.00000000000E+00 0. -1.
</event>
<event>
 7    1  0.6330892E-006  0.4534200E+02  0.7818608E-02  0.1493023E+00
          2   -1    0    0  502    0  0.00000000000E+00  0.00000000000E+00  0.34559518909E+03  0.34559518909E+03  0.00000000000E+00 0. -1.
          1   -1    0    0  501    0 -0.00000000000E+00 -0.00000000000E+00 -0.27191923582E+03  0.27191923582E+03  0.00000000000E+00 0. -1.
         25    2    1    2    0    0 -0.35836049978E+01 -0.64684162921E+02 -0.41658470441E+02  0.14682654801E+03  0.12500289550E+03 0.  0.
          2    1    1    2  501    0  0.28445343523E+02  0.26922406565E+02 -0.17373973899E+03  0.17809955207E+03  0.00000000000E+00 0. -1.
          1    1    1    2  502    0 -0.24861738525E+02  0.37761756355E+02  0.28907416270E+03  0.29258832483E+03  0.00000000000E+00 0. -1.
         22    1    3    3    0    0  0.48565112214E+02 -0.48915313575E+02  0.12446736589E+02  0.70044266562E+02  0.00000000000E+00 0. -1.
         22    1    3    3    0    0 -0.52148717212E+02 -0.15768849346E+02 -0.54105207030E+02  0.76782281447E+02  0.00000000000E+00 0. -1.
</event>
<event>
 7    1  0.6330892E-006  0.7316041E+02  0.7818608E-02  0.1406929E+00
          2   -1    0    0  502    0  0.00000000000E+00  0.00000000000E+00  0.24050479121E+02  0.24050479121E+02  0.00000000000E+00 0. -1.
          1   -1    0    0  501    0 -0.00000000000E+00 -0.00000000000E+00 -0.10102867262E+04  0.10102867262E+04  0.00000000000E+00 0. -1.
         25    2    1    2    0    0  0.13886198540E+02  0.24801784840E+02 -0.24743111230E+03  0.27866334117E+03  0.12499258912E+03 0.  0.
          2    1    1    2  501    0 -0.63362188790E+02  0.36574295839E+02 -0.46593967932E+03  0.47164841869E+03  0.00000000000E+00 0. -1.
          1    1    1    2  502    0  0.49475990250E+02 -0.61376080679E+02 -0.27286545545E+03  0.28402544546E+03  0.00000000000E+00 0. -1.
         22    1    3    3    0    0  0.61388061145E+01 -0.48632989104E+02 -0.13973352974E+03  0.14808211203E+03  0.00000000000E+00 0. -1.
         22    1    3    3    0    0  0.77473924256E+01  0.73434773944E+02 -0.10769758257E+03  0.13058122914E+03  0.00000000000E+00 0. -1.
</event>
<event>
 7    1  0.6330892E-006  0.1161850E+03  0.7818608E-02  0.1333125E+00
          2   -1    0    0  502    0  0.00000000000E+00  0.00000000000E+00  0.77720538575E+03  0.77720538575E+03  0.00000000000E+00 0. -1.
          1   -1    0    0  501    0 -0.00000000000E+00 -0.00000000000E+00 -0.34850912532E+03  0.34850912532E+03  0.00000000000E+00 0. -1.
         25    2    1    2    0    0 -0.72417304457E+02 -0.10805742838E+02  0.15056832963E+03  0.20894254264E+03  0.12500053669E+03 0.  0.
          2    1    1    2  501    0 -0.53148674280E+02 -0.59507058635E-01 -0.31039110337E+03  0.31490859336E+03  0.00000000000E+00 0. -1.
          1    1    1    2  502    0  0.12556597874E+03  0.10865249896E+02  0.58851903417E+03  0.60186337507E+03  0.00000000000E+00 0. -1.
         22    1    3    3    0    0 -0.38947068727E+02  0.21157134648E+02  0.15615750233E+03  0.16232579599E+03  0.00000000000E+00 0. -1.
         22    1    3    3    0    0 -0.33470235730E+02 -0.31962877485E+02 -0.55891726990E+01  0.46616746652E+02  0.00000000000E+00 0. -1.
</event>
<event>
 7    1  0.6330892E-006  0.1329483E+03  0.7818608E-02  0.1345496E+00
          2   -1    0    0  502    0  0.00000000000E+00  0.00000000000E+00  0.69822966547E+02  0.69822966547E+02  0.00000000000E+00 0. -1.
          1   -1    0    0  501    0 -0.00000000000E+00 -0.00000000000E+00 -0.89503058136E+03  0.89503058136E+03  0.00000000000E+00 0. -1.
         25    2    1    2    0    0 -0.13114340087E+03  0.96778572754E+01 -0.40713355679E+03  0.44573012798E+03  0.12500144565E+03 0.  0.
          2    1    1    2  501    0  0.61258943395E+00 -0.41717992815E+02 -0.37596914086E+03  0.37827709562E+03  0.00000000000E+00 0. -1.
          1    1    1    2  502    0  0.13053081144E+03  0.32040135540E+02 -0.42104917166E+02  0.14084632430E+03  0.00000000000E+00 0. -1.
         22    1    3    3    0    0 -0.13068558276E+03  0.50812196650E+02 -0.30917763025E+03  0.33948697754E+03  0.00000000000E+00 0. -1.
         22    1    3    3    0    0 -0.45781811394E+00 -0.41134339374E+02 -0.97955926536E+02  0.10624315045E+03  0.00000000000E+00 0. -1.
</event>
<event>
 7    1  0.6330892E-006  0.8363134E+02  0.7818608E-02  0.1460507E+00
          2   -1    0    0  502    0  0.00000000000E+00  0.00000000000E+00  0.95546895858E+02  0.95546895858E+02  0.00000000000E+00 0. -1.
          1   -1    0    0  501    0 -0.00000000000E+00 -0.00000000000E+00 -0.10078834761E+04  0.10078834761E+04  0.00000000000E+00 0. -1.
         25    2    1    2    0    0 -0.38870890194E+02 -0.70400181864E+02 -0.15343374019E+03  0.21362168958E+03  0.12500072767E+03 0.  0.
          2    1    1    2  501    0 -0.23364399720E+02  0.13015850555E+02 -0.79666563423E+03  0.79711444617E+03  0.00000000000E+00 0. -1.
          1    1    1    2  502    0  0.62235289915E+02  0.57384331309E+02  0.37762794219E+02  0.92694236163E+02  0.00000000000E+00 0. -1.
         22    1    3    3    0    0 -0.31363556863E+02  0.30087173776E+02 -0.71833137563E+02  0.83957789258E+02  0.00000000000E+00 0.  1.
         22    1    3    3    0    0 -0.75073333309E+01 -0.10048735564E+03 -0.81600602627E+02  0.12966390032E+03  0.00000000000E+00 0.  1.
</event>
<event>
 7    1  0.6330892E-006  0.1177530E+03  0.7818608E-02  0.1442664E+00
          2   -1    0    0  502    0  0.00000000000E+00  0.00000000000E+00  0.29481866023E+02  0.29481866023E+02  0.00000000000E+00 0. -1.
          1   -1    0    0  501    0 -0.00000000000E+00 -0.00000000000E+00 -0.12188044143E+04  0.12188044143E+04  0.00000000000E+00 0. -1.
         25    2    1    2    0    0 -0.14582588374E+02 -0.10298540352E+03 -0.45189040147E+03  0.48025464083E+03  0.12498375847E+03 0.  0.
          2    1    1    2  501    0  0.55822690203E+01  0.12268410254E+03 -0.73616334543E+03  0.74633706989E+03  0.00000000000E+00 0. -1.
          1    1    1    2  502    0  0.90003193534E+01 -0.19698699021E+02 -0.12688013442E+01  0.21694569561E+02  0.00000000000E+00 0. -1.
         22    1    3    3    0    0 -0.63149277785E+02 -0.64213188405E+02 -0.34548412380E+03  0.35703003326E+03  0.00000000000E+00 0.  1.
         22    1    3    3    0    0  0.48566689411E+02 -0.38772215113E+02 -0.10640627766E+03  0.12322460757E+03  0.00000000000E+00 0.  1.
</event>
<event>
 7    1  0.6330892E-006  0.6016214E+02  0.7818608E-02  0.1520707E+00
          2   -1    0    0  502    0  0.00000000000E+00  0.00000000000E+00  0.14820265185E+04  0.14820265185E+04  0.00000000000E+00 0. -1.
          1   -1    0    0  501    0 -0.00000000000E+00 -0.00000000000E+00 -0.93132237791E+03  0.93132237791E+03  0.00000000000E+00 0. -1.
         25    2    1    2    0    0  0.15508284842E+02  0.36343492326E+02  0.13322221232E+03  0.18690595031E+03  0.12499728026E+03 0.  0.
          2    1    1    2  501    0  0.21338838232E+02  0.11930694974E+02 -0.90361762399E+03  0.90394828274E+03  0.00000000000E+00 0. -1.
          1    1    1    2  502    0 -0.36847123074E+02 -0.48274187300E+02  0.13210995523E+04  0.13224946634E+04  0.00000000000E+00 0. -1.
         22    1    3    3    0    0  0.28897382220E+02 -0.42328792541E+02  0.49897877651E+02  0.71530298274E+02  0.00000000000E+00 0. -1.
         22    1    3    3    0    0 -0.13389097378E+02  0.78672284867E+02  0.83324334665E+02  0.11537565203E+03  0.00000000000E+00 0. -1.
</event>
<event>
 7    1  0.6330892E-006  0.1074015E+03  0.7818608E-02  0.1329032E+00
          2   -1    0    0  502    0  0.00000000000E+00  0.00000000000E+00  0.64825007850E+03  0.64825007850E+03  0.00000000000E+00 0. -1.
          1   -1    0    0  501    0 -0.00000000000E+00 -0.00000000000E+00 -0.15635145012E+03  0.15635145012E+03  0.00000000000E+00 0. -1.
         25    2    1    2    0    0  0.15999125766E+03  0.26879130861E+02  0.97148782024E+02  0.22667229419E+03  0.12499101127E+03 0.  0.
          2    1    1    2  501    0 -0.58318959174E+02 -0.12289635388E+02 -0.75728786714E+02  0.96369005776E+02  0.00000000000E+00 0. -1.
          1    1    1    2  502    0 -0.10167229849E+03 -0.14589495472E+02  0.47047863306E+03  0.48156022866E+03  0.00000000000E+00 0. -1.
         22    1    3    3    0    0  0.12718667166E+03 -0.37068333430E+02  0.70085398953E+02  0.14987486093E+03  0.00000000000E+00 0. -1.
         22    1    3    3    0    0  0.32804586000E+02  0.63947464291E+02  0.27063383071E+02  0.76797433259E+02  0.00000000000E+00 0. -1.
</event>
<event>
 7    1  0.7153556E-006  0.1269235E+03  0.7818608E-02  0.1236118E+00
          2   -1    0    0  502    0  0.00000000000E+00  0.00000000000E+00  0.19418219292E+04  0.19418219292E+04  0.00000000000E+00 0. -1.
          1   -1    0    0  501    0 -0.00000000000E+00 -0.00000000000E+00 -0.13286270008E+04  0.13286270008E+04  0.00000000000E+00 0. -1.
         25    2    1    2    0    0 -0.10687146402E+03 -0.18046395700E+03 -0.37889961845E+03  0.45075322020E+03  0.12499918023E+03 0.  0.
          2    1    1    2  501    0 -0.53196788008E+01  0.12167605958E+03 -0.90762416818E+03  0.91575924409E+03  0.00000000000E+00 0. -1.
          1    1    1    2  502    0  0.11219114282E+03  0.58787897421E+02  0.18997187150E+04  0.19039364657E+04  0.00000000000E+00 0. -1.
         22    1    3    3    0    0 -0.67539280716E+02 -0.19121398838E+03 -0.32659881801E+03  0.38443612176E+03  0.00000000000E+00 0. -1.
         22    1    3    3    0    0 -0.39332183306E+02  0.10750031373E+02 -0.52300800437E+02  0.66317098432E+02  0.00000000000E+00 0. -1.
</event>
<event>
 7    1  0.8191363E-006  0.7438709E+02  0.7818608E-02  0.1359748E+00
          2   -1    0    0  502    0  0.00000000000E+00  0.00000000000E+00  0.90147649353E+03  0.90147649353E+03  0.00000000000E+00 0. -1.
          1   -1    0    0  501    0 -0.00000000000E+00 -0.00000000000E+00 -0.33708013015E+04  0.33708013015E+04  0.00000000000E+00 0. -1.
         25    2    1    2    0    0 -0.85438823766E+02 -0.66438776140E+01 -0.13868932440E+04  0.13951498141E+04  0.12500479834E+03 0.  0.
          2    1    1    2  501    0  0.31608256883E+02  0.58010571656E+02 -0.19776848870E+04  0.19787879676E+04  0.00000000000E+00 0. -1.
          1    1    1    2  502    0  0.53830566883E+02 -0.51366694042E+02  0.89525332308E+03  0.89834001340E+03  0.00000000000E+00 0. -1.
         22    1    3    3    0    0 -0.10884111539E+03  0.25495412613E+02 -0.10315949111E+04  0.10376340709E+04  0.00000000000E+00 0. -1.
         22    1    3    3    0    0  0.23402291621E+02 -0.32139290227E+02 -0.35529833292E+03  0.35751574316E+03  0.00000000000E+00 0. -1.
</event>
<event>
 7    1  0.6330892E-006  0.1007821E+03  0.7818608E-02  0.1333395E+00
          2   -1    0    0  502    0  0.00000000000E+00  0.00000000000E+00  0.83776412860E+03  0.83776412860E+03  0.00000000000E+00 0. -1.
          1   -1    0    0  501    0 -0.00000000000E+00 -0.00000000000E+00 -0.49179024204E+02  0.49179024204E+02  0.00000000000E+00 0. -1.
         25    2    1    2    0    0  0.72098249833E+02  0.72545353359E+02  0.53164596242E+03  0.55563822601E+03  0.12500169166E+03 0.  0.
          2    1    1    2  501    0 -0.51132469325E+02  0.33496401224E+02  0.10260844129E+02  0.61982442970E+02  0.00000000000E+00 0. -1.
          1    1    1    2  502    0 -0.20965780508E+02 -0.10604175458E+03  0.24667829784E+03  0.26932248382E+03  0.00000000000E+00 0. -1.
         22    1    3    3    0    0 -0.70174139861E+00  0.85363902237E+02  0.23855097633E+03  0.25336546046E+03  0.00000000000E+00 0.  1.
         22    1    3    3    0    0  0.72799991232E+02 -0.12818548878E+02  0.29309498610E+03  0.30227276555E+03  0.00000000000E+00 0.  1.
</event>
<event>
 7    1  0.6330892E-006  0.2141268E+03  0.7818608E-02  0.1248302E+00
          2   -1    0    0  502    0  0.00000000000E+00  0.00000000000E+00  0.88096671260E+03  0.88096671260E+03  0.00000000000E+00 0. -1.
          1   -1    0    0  501    0 -0.00000000000E+00 -0.00000000000E+00 -0.16241111775E+03  0.16241111775E+03  0.00000000000E+00 0. -1.
         25    2    1    2    0    0  0.20408949278E+03  0.15181183502E+03  0.19931720975E+03  0.34648330473E+03  0.12499590410E+03 0.  0.
          2    1    1    2  501    0 -0.17331479716E+03 -0.95903176633E+02  0.26271674446E+02  0.19981401122E+03  0.00000000000E+00 0. -1.
          1    1    1    2  502    0 -0.30774695623E+02 -0.55908658386E+02  0.49296671066E+03  0.49708051439E+03  0.00000000000E+00 0. -1.
         22    1    3    3    0    0  0.75005980953E+02  0.12287760376E+02  0.11660525985E+03  0.13918934176E+03  0.00000000000E+00 0. -1.
         22    1    3    3    0    0  0.12908351183E+03  0.13952407464E+03  0.82711949894E+02  0.20729396298E+03  0.00000000000E+00 0. -1.
</event>
<event>
 7    1  0.6330892E-006  0.1738556E+03  0.7818608E-02  0.1321693E+00
          2   -1    0    0  502    0  0.00000000000E+00  0.00000000000E+00  0.37940717943E+03  0.37940717943E+03  0.00000000000E+00 0. -1.
          1   -1    0    0  501    0 -0.00000000000E+00 -0.00000000000E+00 -0.89350583237E+03  0.89350583237E+03  0.00000000000E+00 0. -1.
         25    2    1    2    0    0  0.18367048654E+03 -0.43169742962E+01 -0.62991863391E+03  0.66796316843E+03  0.12499530049E+03 0.  0.
          2    1    1    2  501    0 -0.15806534827E+03  0.34120267423E+02 -0.21655066756E+03  0.27026475647E+03  0.00000000000E+00 0. -1.
          1    1    1    2  502    0 -0.25605138271E+02 -0.29803293127E+02  0.33237064852E+03  0.33468508689E+03  0.00000000000E+00 0. -1.
         22    1    3    3    0    0  0.85366576672E+02  0.29092807337E+02 -0.13556492089E+03  0.16282411255E+03  0.00000000000E+00 0. -1.
         22    1    3    3    0    0  0.98303909867E+02 -0.33409781633E+02 -0.49435371302E+03  0.50513905589E+03  0.00000000000E+00 0. -1.
</event>
<event>
 7    1  0.6330892E-006  0.2732112E+02  0.7818608E-02  0.1679696E+00
          2   -1    0    0  502    0  0.00000000000E+00  0.00000000000E+00  0.22037154144E+04  0.22037154144E+04  0.00000000000E+00 0. -1.
          1   -1    0    0  501    0 -0.00000000000E+00 -0.00000000000E+00 -0.14859836975E+03  0.14859836975E+03  0.00000000000E+00 0. -1.
         25    2    1    2    0    0 -0.19926006094E+02  0.33455232516E+02  0.30897869357E+03  0.33557361424E+03  0.12500207676E+03 0.  0.
          2    1    1    2  501    0  0.19690865079E+02 -0.61823937962E+01 -0.13441440410E+03  0.13598964737E+03  0.00000000000E+00 0. -1.
          1    1    1    2  502    0  0.23514101466E+00 -0.27272838720E+02  0.18805527551E+04  0.18807505225E+04  0.00000000000E+00 0. -1.
         22    1    3    3    0    0  0.12121011071E+02  0.74881017177E+02  0.21495312972E+03  0.22794502324E+03  0.00000000000E+00 0. -1.
         22    1    3    3    0    0 -0.32047017165E+02 -0.41425784660E+02  0.94025563846E+02  0.10762859100E+03  0.00000000000E+00 0. -1.
</event>
<event>
 7    1  0.6330892E-006  0.9493131E+02  0.7818608E-02  0.1365723E+00
          2   -1    0    0  502    0  0.00000000000E+00  0.00000000000E+00  0.36867732337E+04  0.36867732337E+04  0.00000000000E+00 0. -1.
          1   -1    0    0  501    0 -0.00000000000E+00 -0.00000000000E+00 -0.88806410363E+03  0.88806410363E+03  0.00000000000E+00 0. -1.
         25    2    1    2    0    0 -0.36809032333E+02  0.34642171213E+02  0.32567293971E+03  0.35248115023E+03  0.12500045089E+03 0.  0.
          2    1    1    2  501    0 -0.17872652435E+02  0.45883379019E+02 -0.87325871005E+03  0.87464592313E+03  0.00000000000E+00 0. -1.
          1    1    1    2  502    0  0.54681684768E+02 -0.80525550232E+02  0.33462949004E+04  0.33477102639E+04  0.00000000000E+00 0. -1.
         22    1    3    3    0    0  0.54965332556E+01 -0.32753387831E+01  0.27867887612E+03  0.27875231966E+03  0.00000000000E+00 0.  1.
         22    1    3    3    0    0 -0.42305565589E+02  0.37917509996E+02  0.46994063585E+02  0.73728830564E+02  0.00000000000E+00 0.  1.
</event>
<event>
 7    1  0.6330892E-006  0.8648612E+02  0.7818608E-02  0.1440803E+00
          2   -1    0    0  502    0  0.00000000000E+00  0.00000000000E+00  0.25062653101E+03  0.25062653101E+03  0.00000000000E+00 0. -1.
          1   -1    0    0  501    0 -0.00000000000E+00 -0.00000000000E+00 -0.16461210401E+03  0.16461210401E+03  0.00000000000E+00 0. -1.
         25    2    1    2    0    0  0.79866725934E+02  0.69300453170E+00 -0.56049143014E+02  0.15858157983E+03  0.12500974707E+03 0.  0.
          2    1    1    2  501    0  0.26536645727E+01 -0.29781051596E+02 -0.42755574707E+02  0.52172714501E+02  0.00000000000E+00 0. -1.
          1    1    1    2  502    0 -0.82520390507E+02  0.29088047065E+02  0.18481914472E+03  0.20448434069E+03  0.00000000000E+00 0. -1.
         22    1    3    3    0    0 -0.28165298451E+02  0.98133008354E+01  0.10205291851E+02  0.31523529178E+02  0.00000000000E+00 0. -1.
         22    1    3    3    0    0  0.10803202438E+03 -0.91202963037E+01 -0.66254434864E+02  0.12705805066E+03  0.00000000000E+00 0. -1.
</event>
<event>
 7    1  0.6330892E-006  0.5356730E+02  0.7818608E-02  0.1459970E+00
          2   -1    0    0  502    0  0.00000000000E+00  0.00000000000E+00  0.28532462627E+03  0.28532462627E+03  0.00000000000E+00 0. -1.
          1   -1    0    0  501    0 -0.00000000000E+00 -0.00000000000E+00 -0.65003145887E+03  0.65003145887E+03  0.00000000000E+00 0. -1.
         25    2    1    2    0    0 -0.40052305101E+02  0.64510839155E+01 -0.35908411779E+02  0.13623412654E+03  0.12499807827E+03 0.  0.
          2    1    1    2  501    0  0.11795453489E+02  0.40225210051E+02 -0.56000126786E+03  0.56156800145E+03  0.00000000000E+00 0. -1.
          1    1    1    2  502    0  0.28256851612E+02 -0.46676293966E+02  0.23120284704E+03  0.23755395716E+03  0.00000000000E+00 0. -1.
         22    1    3    3    0    0 -0.85027364386E+02  0.12515354027E+02 -0.25903080446E+02  0.89762221215E+02  0.00000000000E+00 0. -1.
         22    1    3    3    0    0  0.44975059285E+02 -0.60642701119E+01 -0.10005331333E+02  0.46471905327E+02  0.00000000000E+00 0. -1.
</event>
<event>
 7    1  0.6330892E-006  0.1606920E+03  0.7818608E-02  0.1287131E+00
          2   -1    0    0  502    0  0.00000000000E+00  0.00000000000E+00  0.35184611610E+03  0.35184611610E+03  0.00000000000E+00 0. -1.
          1   -1    0    0  501    0 -0.00000000000E+00 -0.00000000000E+00 -0.25224096181E+04  0.25224096181E+04  0.00000000000E+00 0. -1.
         25    2    1    2    0    0  0.71094505910E+02 -0.79944903596E+02 -0.11571424632E+04  0.11687810652E+04  0.12499952788E+03 0.  0.
          2    1    1    2  501    0  0.53774224234E+02 -0.22611197229E+02 -0.13399144664E+04  0.13411836976E+04  0.00000000000E+00 0. -1.
          1    1    1    2  502    0 -0.12486873014E+03  0.10255610083E+03  0.32649342757E+03  0.36429097138E+03  0.00000000000E+00 0. -1.
         22    1    3    3    0    0  0.82753277758E+02 -0.88051794643E+02 -0.63207319511E+03  0.64351981127E+03  0.00000000000E+00 0. -1.
         22    1    3    3    0    0 -0.11658771848E+02  0.81068910465E+01 -0.52506926805E+03  0.52526125394E+03  0.00000000000E+00 0. -1.
</event>
<event>
 7    1  0.6330892E-006  0.1213886E+03  0.7818608E-02  0.1250050E+00
          2   -1    0    0  502    0  0.00000000000E+00  0.00000000000E+00  0.39039492797E+03  0.39039492797E+03  0.00000000000E+00 0. -1.
          1   -1    0    0  501    0 -0.00000000000E+00 -0.00000000000E+00 -0.54996347379E+03  0.54996347379E+03  0.00000000000E+00 0. -1.
         25    2    1    2    0    0  0.14761030501E+03  0.26660057079E+02 -0.85351181198E+02  0.21309473110E+03  0.12499991802E+03 0.  0.
          2    1    1    2  501    0 -0.48871776192E+02 -0.99243807240E+02 -0.38109277026E+03  0.39682424740E+03  0.00000000000E+00 0. -1.
          1    1    1    2  502    0 -0.98738528816E+02  0.72583750161E+02  0.30687540563E+03  0.33043942326E+03  0.00000000000E+00 0. -1.
         22    1    3    3    0    0  0.15097925418E+03 -0.11896616959E+02 -0.86433406032E+02  0.17437602578E+03  0.00000000000E+00 0.  1.
         22    1    3    3    0    0 -0.33689491746E+01  0.38556674037E+02  0.10822248348E+01  0.38718705324E+02  0.00000000000E+00 0.  1.
</event>
<event>
 7    1  0.6330892E-006  0.9041718E+02  0.7818608E-02  0.1318020E+00
          2   -1    0    0  502    0  0.00000000000E+00  0.00000000000E+00  0.26091145771E+04  0.26091145771E+04  0.00000000000E+00 0. -1.
          1   -1    0    0  501    0 -0.00000000000E+00 -0.00000000000E+00 -0.61553574054E+03  0.61553574054E+03  0.00000000000E+00 0. -1.
         25    2    1    2    0    0 -0.38789242789E+02 -0.67682794295E+02 -0.34770135861E+03  0.37763217648E+03  0.12499703970E+03 0.  0.
          2    1    1    2  501    0 -0.50568236264E+02  0.81485225943E+02 -0.24295717568E+03  0.26119949805E+03  0.00000000000E+00 0. -1.
          1    1    1    2  502    0  0.89357479053E+02 -0.13802431648E+02  0.25842373709E+04  0.25858186431E+04  0.00000000000E+00 0. -1.
         22    1    3    3    0    0 -0.27132970572E+02 -0.94319578739E+02 -0.32835383081E+03  0.34270777527E+03  0.00000000000E+00 0. -1.
         22    1    3    3    0    0 -0.11656272217E+02  0.26636784444E+02 -0.19347527800E+02  0.34924401205E+02  0.00000000000E+00 0. -1.
</event>
<event>
 7    1  0.6330892E-006  0.7965962E+02  0.7818608E-02  0.1456955E+00
          2   -1    0    0  502    0  0.00000000000E+00  0.00000000000E+00  0.21531200057E+03  0.21531200057E+03  0.00000000000E+00 0. -1.
          1   -1    0    0  501    0 -0.00000000000E+00 -0.00000000000E+00 -0.55814377043E+03  0.55814377043E+03  0.00000000000E+00 0. -1.
         25    2    1    2    0    0 -0.45858088209E+02 -0.25224048847E+02 -0.30286638233E+03  0.33179986945E+03  0.12499556363E+03 0.  0.
          2    1    1    2  501    0 -0.20183342760E+02 -0.20564052410E+02 -0.23184440499E+03  0.23362807130E+03  0.00000000000E+00 0. -1.
          1    1    1    2  502    0  0.66041430969E+02  0.45788101258E+02  0.19187901746E+03  0.20802783026E+03  0.00000000000E+00 0. -1.
         22    1    3    3    0    0  0.40883563295E+02 -0.25579870194E+02 -0.94356358875E+02  0.10596658892E+03  0.00000000000E+00 0. -1.
         22    1    3    3    0    0 -0.86741651504E+02  0.35582134610E+00 -0.20851002345E+03  0.22583328053E+03  0.00000000000E+00 0. -1.
</event>
<event>
 7    1  0.6330892E-006  0.5961892E+02  0.7818608E-02  0.1431454E+00
          2   -1    0    0  502    0  0.00000000000E+00  0.00000000000E+00  0.14754327882E+04  0.14754327882E+04  0.00000000000E+00 0. -1.
          1   -1    0    0  501    0 -0.00000000000E+00 -0.00000000000E+00 -0.62249786421E+02  0.62249786421E+02  0.00000000000E+00 0. -1.
         25    2    1    2    0    0 -0.63777336541E+02  0.80800704350E+02  0.62636112721E+03  0.64695482439E+03  0.12500392251E+03 0.  0.
          2    1    1    2  501    0  0.43857697973E+02 -0.38750424122E+02 -0.34601280270E+02  0.67987805064E+02  0.00000000000E+00 0. -1.
          1    1    1    2  502    0  0.19919638568E+02 -0.42050280228E+02  0.82142315484E+03  0.82273994517E+03  0.00000000000E+00 0. -1.
         22    1    3    3    0    0 -0.23600627404E+02  0.89192502395E+02  0.56894482396E+03  0.57637705091E+03  0.00000000000E+00 0. -1.
         22    1    3    3    0    0 -0.40176709137E+02 -0.83917980441E+01  0.57416303250E+02  0.70577773487E+02  0.00000000000E+00 0. -1.
</event>
<event>
 7    1  0.6330892E-006  0.1482993E+03  0.7818608E-02  0.1307626E+00
          2   -1    0    0  502    0  0.00000000000E+00  0.00000000000E+00  0.40589704774E+04  0.40589704774E+04  0.00000000000E+00 0. -1.
          1   -1    0    0  501    0 -0.00000000000E+00 -0.00000000000E+00 -0.16910728091E+04  0.16910728091E+04  0.00000000000E+00 0. -1.
         25    2    1    2    0    0  0.12545434225E+03 -0.10024532218E+03  0.19286333604E+04  0.19393400246E+04  0.12500070137E+03 0.  0.
          2    1    1    2  501    0 -0.79498177058E+02  0.12518359976E+03 -0.16821353717E+04  0.16886593210E+04  0.00000000000E+00 0. -1.
          1    1    1    2  502    0 -0.45956165189E+02 -0.24938277578E+02  0.21213996795E+04  0.21220439409E+04  0.00000000000E+00 0. -1.
         22    1    3    3    0    0  0.47689524009E+02 -0.78256504784E+02  0.15218567802E+04  0.15246135348E+04  0.00000000000E+00 0. -1.
         22    1    3    3    0    0  0.77764818238E+02 -0.21988817396E+02  0.40677658026E+03  0.41472648974E+03  0.00000000000E+00 0. -1.
</event>
<event>
 7    1  0.6330892E-006  0.3934034E+02  0.7818608E-02  0.1518214E+00
          2   -1    0    0  502    0  0.00000000000E+00  0.00000000000E+00  0.78431528603E+02  0.78431528603E+02  0.00000000000E+00 0. -1.
          1   -1    0    0  501    0 -0.00000000000E+00 -0.00000000000E+00 -0.19028120263E+04  0.19028120263E+04  0.00000000000E+00 0. -1.
         25    2    1    2    0    0 -0.18717253669E+02  0.68063435709E+00 -0.24941301572E+03  0.27960906744E+03  0.12499431720E+03 0.  0.
          2    1    1    2  501    0  0.14585617728E+02  0.37110072195E+02 -0.16323307524E+04  0.16328176820E+04  0.00000000000E+00 0. -1.
          1    1    1    2  502    0  0.41316359407E+01 -0.37790706552E+02  0.57363270392E+02  0.68816805414E+02  0.00000000000E+00 0. -1.
         22    1    3    3    0    0  0.16233960810E+02  0.14536460531E+01  0.91511527237E+01  0.18692195339E+02  0.00000000000E+00 0.  1.
         22    1    3    3    0    0 -0.34951214478E+02 -0.77301169601E+00 -0.25856416845E+03  0.26091687210E+03  0.00000000000E+00 0.  1.
</event>
<event>
 7    1  0.6330892E-006  0.8810533E+02  0.7818608E-02  0.1417400E+00
          2   -1    0    0  502    0  0.00000000000E+00  0.00000000000E+00  0.72749798993E+03  0.72749798993E+03  0.00000000000E+00 0. -1.
          1   -1    0    0  501    0 -0.00000000000E+00 -0.00000000000E+00 -0.52416851138E+03  0.52416851138E+03  0.00000000000E+00 0. -1.
         25    2    1    2    0    0  0.59372976233E+02 -0.99121620892E+02  0.73344930441E+02  0.18534876643E+03  0.12499776143E+03 0.  0.
          2    1    1    2  501    0 -0.28488610780E+02  0.82537377941E+02 -0.46357374025E+03  0.47172516612E+03  0.00000000000E+00 0. -1.
          1    1    1    2  502    0 -0.30884365453E+02  0.16584242951E+02  0.59355828836E+03  0.59459256876E+03  0.00000000000E+00 0. -1.
         22    1    3    3    0    0  0.86057584260E+02 -0.50626133555E+02  0.86686824870E+01  0.10022005420E+03  0.00000000000E+00 0. -1.
         22    1    3    3    0    0 -0.26684608027E+02 -0.48495487337E+02  0.64676247954E+02  0.85128712236E+02  0.00000000000E+00 0. -1.
</event>
<event>
 7    1  0.6330892E-006  0.4536188E+02  0.7818608E-02  0.1519382E+00
          2   -1    0    0  502    0  0.00000000000E+00  0.00000000000E+00  0.12992266033E+03  0.12992266033E+03  0.00000000000E+00 0. -1.
          1   -1    0    0  501    0 -0.00000000000E+00 -0.00000000000E+00 -0.98093350254E+03  0.98093350254E+03  0.00000000000E+00 0. -1.
         25    2    1    2    0    0  0.58602291142E+02  0.38363417314E+02 -0.81307246531E+03  0.82560323014E+03  0.12501151725E+03 0.  0.
          2    1    1    2  501    0 -0.32688510206E+02 -0.12549959541E+01 -0.15569661543E+03  0.15909603945E+03  0.00000000000E+00 0. -1.
          1    1    1    2  502    0 -0.25913780936E+02 -0.37108421360E+02  0.11775823853E+03  0.12615689327E+03  0.00000000000E+00 0. -1.
         22    1    3    3    0    0  0.27036189677E+02  0.83052499678E+02 -0.55108934328E+03  0.55796786424E+03  0.00000000000E+00 0.  1.
         22    1    3    3    0    0  0.31566101465E+02 -0.44689082365E+02 -0.26198312203E+03  0.26763536589E+03  0.00000000000E+00 0.  1.
</event>
<event>
 7    1  0.6330892E-006  0.9107253E+02  0.7818608E-02  0.1369189E+00
          2   -1    0    0  502    0  0.00000000000E+00  0.00000000000E+00  0.23863915938E+04  0.23863915938E+04  0.00000000000E+00 0. -1.
          1   -1    0    0  501    0 -0.00000000000E+00 -0.00000000000E+00 -0.14267202350E+02  0.14267202350E+02  0.00000000000E+00 0. -1.
         25    2    1    2    0    0 -0.28833470941E+02  0.47857868949E+02  0.94052879106E+03  0.95044170470E+03  0.12499313007E+03 0.  0.
          2    1    1    2  501    0 -0.27515377510E+02  0.41592985054E+02  0.78526086857E+02  0.93023753538E+02  0.00000000000E+00 0. -1.
          1    1    1    2  502    0  0.56348848451E+02 -0.89450854003E+02  0.13530695136E+04  0.13571933379E+04  0.00000000000E+00 0. -1.
         22    1    3    3    0    0  0.26563013216E+02  0.42635753252E+02  0.15482911993E+03  0.16277425320E+03  0.00000000000E+00 0. -1.
         22    1    3    3    0    0 -0.55396484157E+02  0.52221156975E+01  0.78569967112E+03  0.78766745150E+03  0.00000000000E+00 0. -1.
</event>
<event>
 7    1  0.6330892E-006  0.1856451E+03  0.7818608E-02  0.1194560E+00
          2   -1    0    0  502    0  0.00000000000E+00  0.00000000000E+00  0.47267533858E+03  0.47267533858E+03  0.00000000000E+00 0. -1.
          1   -1    0    0  501    0 -0.00000000000E+00 -0.00000000000E+00 -0.20473622553E+04  0.20473622553E+04  0.00000000000E+00 0. -1.
         25    2    1    2    0    0 -0.16397238612E+03  0.21393321493E+03 -0.24903994266E+03  0.38768520689E+03  0.12499825095E+03 0.  0.
          2    1    1    2  501    0  0.40115500407E+02 -0.17690981102E+03 -0.17137305326E+04  0.17233045793E+04  0.00000000000E+00 0. -1.
          1    1    1    2  502    0  0.12385688571E+03 -0.37023403909E+02  0.38808355855E+03  0.40904780771E+03  0.00000000000E+00 0. -1.
         22    1    3    3    0    0  0.15023305982E+02  0.42398917970E+02 -0.16907066490E+02  0.48054311616E+02  0.00000000000E+00 0.  1.
         22    1    3    3    0    0 -0.17899569210E+03  0.17153429696E+03 -0.23213287617E+03  0.33963089527E+03  0.00000000000E+00 0.  1.
</event>
<event>
 7    1  0.6330892E-006  0.1152550E+03  0.7818608E-02  0.1297769E+00
          2   -1    0    0  502    0  0.00000000000E+00  0.00000000000E+00  0.94860992554E+03  0.94860992554E+03  0.00000000000E+00 0. -1.
          1   -1    0    0  501    0 -0.00000000000E+00 -0.00000000000E+00 -0.19402872415E+03  0.19402872415E+03  0.00000000000E+00 0. -1.
         25    2    1    2    0    0 -0.46818079158E+02 -0.73138370201E+02  0.29130622515E+03  0.32867296539E+03  0.12500179053E+03 0.  0.
          2    1    1    2  501    0  0.11182723684E+03  0.38527637348E+02 -0.15295411572E+03  0.19335116047E+03  0.00000000000E+00 0. -1.
          1    1    1    2  502    0 -0.65009157681E+02  0.34610732852E+02  0.61622909196E+03  0.62061452383E+03  0.00000000000E+00 0. -1.
         22    1    3    3    0    0 -0.79169968866E+02 -0.28795927280E+02  0.10595229710E+03  0.13536239750E+03  0.00000000000E+00 0. -1.
         22    1    3    3    0    0  0.32351889708E+02 -0.44342442920E+02  0.18535392806E+03  0.19331056789E+03  0.00000000000E+00 0. -1.
</event>
<event>
 7    1  0.6330892E-006  0.4493803E+02  0.7818608E-02  0.1533556E+00
          2   -1    0    0  502    0  0.00000000000E+00  0.00000000000E+00  0.30497580261E+02  0.30497580261E+02  0.00000000000E+00 0. -1.
          1   -1    0    0  501    0 -0.00000000000E+00 -0.00000000000E+00 -0.75350622786E+03  0.75350622786E+03  0.00000000000E+00 0. -1.
         25    2    1    2    0    0  0.62124090888E+02  0.19002553220E+02 -0.34886202829E+03  0.37623357666E+03  0.12500595877E+03 0.  0.
          2    1    1    2  501    0 -0.28657207765E+02  0.90756880407E+01 -0.36085870111E+03  0.36210855532E+03  0.00000000000E+00 0. -1.
          1    1    1    2  502    0 -0.33466883123E+02 -0.28078241261E+02 -0.13287918207E+02  0.45661676147E+02  0.00000000000E+00 0. -1.
         22    1    3    3    0    0  0.55679111307E+02 -0.34318007155E+02 -0.86574825410E+02  0.10850386834E+03  0.00000000000E+00 0.  1.
         22    1    3    3    0    0  0.64449795811E+01  0.53320560375E+02 -0.26228720288E+03  0.26772970832E+03  0.00000000000E+00 0.  1.
</event>
<event>
 7    1  0.6330892E-006  0.1255587E+03  0.7818608E-02  0.1242323E+00
          2   -1    0    0  502    0  0.00000000000E+00  0.00000000000E+00  0.45557906371E+03  0.45557906371E+03  0.00000000000E+00 0. -1.
          1   -1    0    0  501    0 -0.00000000000E+00 -0.00000000000E+00 -0.23216984142E+03  0.23216984142E+03  0.00000000000E+00 0. -1.
         25    2    1    2    0    0 -0.16543413983E+03  0.21091280514E+02  0.11679034552E+03  0.23891106124E+03  0.12500085457E+03 0.  0.
          2    1    1    2  501    0  0.65658176569E+02 -0.95129694668E+02 -0.13464946051E+03  0.17745740946E+03  0.00000000000E+00 0. -1.
          1    1    1    2  502    0  0.99775963260E+02  0.74038414154E+02  0.24126833728E+03  0.27138043442E+03  0.00000000000E+00 0. -1.
         22    1    3    3    0    0 -0.49769988026E+02  0.65353587653E+02  0.29035701849E+02  0.87127579498E+02  0.00000000000E+00 0. -1.
         22    1    3    3    0    0 -0.11566415180E+03 -0.44262307140E+02  0.87754643666E+02  0.15178348175E+03  0.00000000000E+00 0. -1.
</event>
<event>
 7    1  0.6330892E-006  0.1491501E+03  0.7818608E-02  0.1403671E+00
          2   -1    0    0  502    0  0.00000000000E+00  0.00000000000E+00  0.11974897497E+04  0.11974897497E+04  0.00000000000E+00 0. -1.
          1   -1    0    0  501    0 -0.00000000000E+00 -0.00000000000E+00 -0.29699832218E+03  0.29699832218E+03  0.00000000000E+00 0. -1.
         25    2    1    2    0    0 -0.73940402024E+01 -0.13775644173E+03  0.45334544398E+03  0.49008049742E+03  0.12500117322E+03 0.  0.
          2    1    1    2  501    0 -0.12641956122E+02  0.14914667101E+03 -0.25832666250E+03  0.29855855889E+03  0.00000000000E+00 0. -1.
          1    1    1    2  502    0  0.20035996324E+02 -0.11390229272E+02  0.70547264601E+03  0.70584901554E+03  0.00000000000E+00 0. -1.
         22    1    3    3    0    0 -0.52321290295E+02 -0.69066067971E+02  0.33523169749E+03  0.34624836485E+03  0.00000000000E+00 0. -1.
         22    1    3    3    0    0  0.44927250093E+02 -0.68690373762E+02  0.11811374649E+03  0.14383213257E+03  0.00000000000E+00 0. -1.
</event>
<event>
 7    1  0.6330892E-006  0.2460349E+02  0.7818608E-02  0.1680647E+00
          2   -1    0    0  502    0  0.00000000000E+00  0.00000000000E+00  0.20971566378E+02  0.20971566378E+02  0.00000000000E+00 0. -1.
          1   -1    0    0  501    0 -0.00000000000E+00 -0.00000000000E+00 -0.46145183257E+03  0.46145183257E+03  0.00000000000E+00 0. -1.
         25    2    1    2    0    0 -0.48624221257E+01  0.18151011576E+02 -0.31028990874E+03  0.33504820854E+03  0.12499748880E+03 0.  0.
          2    1    1    2  501    0 -0.17915365547E+02 -0.19160171641E+02 -0.11922275850E+03  0.12207431608E+03  0.00000000000E+00 0. -1.
          1    1    1    2  502    0  0.22777787672E+02  0.10091600652E+01 -0.10967598942E+02  0.25300874329E+02  0.00000000000E+00 0. -1.
         22    1    3    3    0    0  0.25749366086E+02 -0.12774898672E+01 -0.33771324085E+01  0.26001285689E+02  0.00000000000E+00 0.  1.
         22    1    3    3    0    0 -0.30611788211E+02  0.19428501443E+02 -0.30691277633E+03  0.30904692285E+03  0.00000000000E+00 0.  1.
</event>
<event>
 7    1  0.6330892E-006  0.6380938E+02  0.7818608E-02  0.1420592E+00
          2   -1    0    0  502    0  0.00000000000E+00  0.00000000000E+00  0.26191815360E+04  0.26191815360E+04  0.00000000000E+00 0. -1.
          1   -1    0    0  501    0 -0.00000000000E+00 -0.00000000000E+00 -0.52232095633E+03  0.52232095633E+03  0.00000000000E+00 0. -1.
         25    2    1    2    0    0 -0.98313697916E+02 -0.31767427935E+02  0.16963576700E+03  0.23468355986E+03  0.12500130859E+03 0.  0.
          2    1    1    2  501    0  0.51401335072E+02  0.37213331137E+02 -0.48750978704E+03  0.49162253988E+03  0.00000000000E+00 0. -1.
          1    1    1    2  502    0  0.46912362845E+02 -0.54459032015E+01  0.24147345997E+04  0.24151963925E+04  0.00000000000E+00 0. -1.
         22    1    3    3    0    0  0.11974598113E+02 -0.20970593429E+02 -0.78942881805E+01  0.25406231019E+02  0.00000000000E+00 0. -1.
         22    1    3    3    0    0 -0.11028829603E+03 -0.10796834506E+02  0.17753005518E+03  0.20927732884E+03  0.00000000000E+00 0. -1.
</event>
<event>
 7    1  0.6330892E-006  0.1409425E+03  0.7818608E-02  0.1307255E+00
          2   -1    0    0  502    0  0.00000000000E+00  0.00000000000E+00  0.15136824221E+04  0.15136824221E+04  0.00000000000E+00 0. -1.
          1   -1    0    0  501    0 -0.00000000000E+00 -0.00000000000E+00 -0.21535593394E+03  0.21535593394E+03  0.00000000000E+00 0. -1.
         25    2    1    2    0    0 -0.87358620197E+02 -0.12863617090E+03  0.24576500344E+03  0.31655176457E+03  0.12500315897E+03 0.  0.
          2    1    1    2  501    0 -0.27405964068E+02  0.47918386952E+02 -0.17162580700E+03  0.18028498635E+03  0.00000000000E+00 0. -1.
          1    1    1    2  502    0  0.11476458426E+03  0.80717783946E+02  0.12241872917E+04  0.12322016051E+04  0.00000000000E+00 0. -1.
         22    1    3    3    0    0 -0.54764006944E+02  0.41946429612E+01  0.11444965464E+03  0.12694650422E+03  0.00000000000E+00 0.  1.
         22    1    3    3    0    0 -0.32594613253E+02 -0.13283081386E+03  0.13131534880E+03  0.18960526036E+03  0.00000000000E+00 0.  1.
</event>
<event>
 7    1  0.6330892E-006  0.9952494E+02  0.7818608E-02  0.1393514E+00
          2   -1    0    0  502    0  0.00000000000E+00  0.00000000000E+00  0.58690693053E+03  0.58690693053E+03  0.00000000000E+00 0. -1.
          1   -1    0    0  501    0 -0.00000000000E+00 -0.00000000000E+00 -0.38407044138E+03  0.38407044138E+03  0.00000000000E+00 0. -1.
         25    2    1    2    0    0  0.12650174131E+03 -0.52029562710E+01 -0.19122132143E+03  0.26118447784E+03  0.12498790496E+03 0.  0.
          2    1    1    2  501    0 -0.89239579831E+02  0.88262528344E+01 -0.14443023721E+03  0.17000499631E+03  0.00000000000E+00 0. -1.
          1    1    1    2  502    0 -0.37262161477E+02 -0.36232965634E+01  0.53848804779E+03  0.53978789776E+03  0.00000000000E+00 0. -1.
         22    1    3    3    0    0  0.10724486947E+03  0.26977732201E+02 -0.62317079188E+02  0.12693572555E+03  0.00000000000E+00 0.  1.
         22    1    3    3    0    0  0.19256871842E+02 -0.32180688472E+02 -0.12890424224E+03  0.13424875229E+03  0.00000000000E+00 0.  1.
</event>
<event>
 7    1  0.6330892E-006  0.3995376E+02  0.7818608E-02  0.1512853E+00
          2   -1    0    0  502    0  0.00000000000E+00  0.00000000000E+00  0.86196624845E+03  0.86196624845E+03  0.00000000000E+00 0. -1.
          1   -1    0    0  501    0 -0.00000000000E+00 -0.00000000000E+00 -0.36137426322E+02  0.36137426322E+02  0.00000000000E+00 0. -1.
         25    2    1    2    0    0 -0.10182851537E+00  0.92766322614E+01  0.16441322501E+03  0.20674116691E+03  0.12499654101E+03 0.  0.
          2    1    1    2  501    0  0.24716036504E+02 -0.39278720254E+02  0.23047428528E+02  0.51815869065E+02  0.00000000000E+00 0. -1.
          1    1    1    2  502    0 -0.24614207989E+02  0.30002087993E+02  0.63836816860E+03  0.63954663880E+03  0.00000000000E+00 0. -1.
         22    1    3    3    0    0  0.50433242869E+02  0.38869778337E+02  0.10831969954E+03  0.12564843398E+03  0.00000000000E+00 0. -1.
         22    1    3    3    0    0 -0.50535071384E+02 -0.29593146076E+02  0.56093525470E+02  0.81092732930E+02  0.00000000000E+00 0. -1.
</event>
<event>
 7    1  0.6330892E-006  0.5874550E+02  0.7818608E-02  0.1434345E+00
          2   -1    0    0  502    0  0.00000000000E+00  0.00000000000E+00  0.30477272655E+02  0.30477272655E+02  0.00000000000E+00 0. -1.
          1   -1    0    0  501    0 -0.00000000000E+00 -0.00000000000E+00 -0.24590886558E+04  0.24590886558E+04  0.00000000000E+00 0. -1.
         25    2    1    2    0    0  0.26830733184E+02 -0.92766933063E+02 -0.30500423350E+03  0.34348118794E+03  0.12500460754E+03 0.  0.
          2    1    1    2  501    0 -0.46309862837E+01  0.45969530504E+02 -0.20735123376E+04  0.20740270148E+04  0.00000000000E+00 0. -1.
          1    1    1    2  502    0 -0.22199746900E+02  0.46797402558E+02 -0.50094812088E+02  0.72057725795E+02  0.00000000000E+00 0. -1.
         22    1    3    3    0    0  0.23445509291E+02 -0.71228275375E+02 -0.31176303273E+03  0.32065456132E+03  0.00000000000E+00 0.  1.
         22    1    3    3    0    0  0.33852238928E+01 -0.21538657688E+02  0.67587992328E+01  0.22826626620E+02  0.00000000000E+00 0.  1.
</event>
<event>
 7    1  0.6330892E-006  0.8634001E+02  0.7818608E-02  0.1313112E+00
          2   -1    0    0  502    0  0.00000000000E+00  0.00000000000E+00  0.21077224199E+03  0.21077224199E+03  0.00000000000E+00 0. -1.
          1   -1    0    0  501    0 -0.00000000000E+00 -0.00000000000E+00 -0.11875899863E+04  0.11875899863E+04  0.00000000000E+00 0. -1.
         25    2    1    2    0    0 -0.64002235189E+01  0.35191133784E+02 -0.10220936485E+03  0.16538319277E+03  0.12500186970E+03 0.  0.
          2    1    1    2  501    0 -0.84135348024E+02 -0.19386602563E+02 -0.10401016140E+04  0.10436790525E+04  0.00000000000E+00 0. -1.
          1    1    1    2  502    0  0.90535571543E+02 -0.15804531221E+02  0.16549323451E+03  0.18929998307E+03  0.00000000000E+00 0. -1.
         22    1    3    3    0    0  0.11624785753E+02 -0.32458941336E+02 -0.87218695241E+02  0.93786029429E+02  0.00000000000E+00 0.  1.
         22    1    3    3    0    0 -0.18025009271E+02  0.67650075120E+02 -0.14990669610E+02  0.71597163340E+02  0.00000000000E+00 0.  1.
</event>
<event>
 7    1  0.6330892E-006  0.1085433E+03  0.7818608E-02  0.1314144E+00
          2   -1    0    0  502    0  0.00000000000E+00  0.00000000000E+00  0.73279753005E+03  0.73279753005E+03  0.00000000000E+00 0. -1.
          1   -1    0    0  501    0 -0.00000000000E+00 -0.00000000000E+00 -0.71337268064E+03  0.71337268064E+03  0.00000000000E+00 0. -1.
         25    2    1    2    0    0  0.16824324916E+03 -0.53287681692E+01  0.15135047365E+03  0.25858250488E+03  0.12499503709E+03 0.  0.
          2    1    1    2  501    0 -0.66477969497E+02 -0.10740371065E+02 -0.65298120546E+03  0.65644430889E+03  0.00000000000E+00 0. -1.
          1    1    1    2  502    0 -0.10176527966E+03  0.16069139234E+02  0.52105558122E+03  0.53114339693E+03  0.00000000000E+00 0. -1.
         22    1    3    3    0    0  0.22537532706E+02 -0.21341020403E+02  0.97663944629E+02  0.10247743953E+03  0.00000000000E+00 0. -1.
         22    1    3    3    0    0  0.14570571645E+03  0.16012252234E+02  0.53686529021E+02  0.15610506535E+03  0.00000000000E+00 0. -1.
</event>
<event>
 7    1  0.6330892E-006  0.5178650E+02  0.7818608E-02  0.1509281E+00
          2   -1    0    0  502    0  0.00000000000E+00  0.00000000000E+00  0.16433370084E+04  0.16433370084E+04  0.00000000000E+00 0. -1.
          1   -1    0    0  501    0 -0.00000000000E+00 -0.00000000000E+00 -0.25075409230E+04  0.25075409230E+04  0.00000000000E+00 0. -1.
         25    2    1    2    0    0 -0.12259293385E+02 -0.69783128035E+02  0.49030206082E+02  0.15182340361E+03  0.12500563805E+03 0.  0.
          2    1    1    2  501    0  0.28050719903E+02  0.43487912372E+02 -0.24557192541E+04  0.24562644598E+04  0.00000000000E+00 0. -1.
          1    1    1    2  502    0 -0.15791426518E+02  0.26295215662E+02  0.15424851334E+04  0.15427900681E+04  0.00000000000E+00 0. -1.
         22    1    3    3    0    0  0.14947205386E+02 -0.95672913084E+02  0.58446182492E+02  0.11310473684E+03  0.00000000000E+00 0.  1.
         22    1    3    3    0    0 -0.27206498771E+02  0.25889785050E+02 -0.94159764101E+01  0.38718666778E+02  0.00000000000E+00 0.  1.
</event>
<event>
 7    1  0.6330892E-006  0.5824946E+02  0.7818608E-02  0.1506663E+00
          2   -1    0    0  502    0  0.00000000000E+00  0.00000000000E+00  0.57423844836E+03  0.57423844836E+03  0.00000000000E+00 0. -1.
          1   -1    0    0  501    0 -0.00000000000E+00 -0.00000000000E+00 -0.11438549006E+03  0.11438549006E+03  0.00000000000E+00 0. -1.
         25    2    1    2    0    0 -0.42682246168E+02  0.23939705674E+00  0.14953906574E+03  0.19952124741E+03  0.12499985816E+03 0.  0.
          2    1    1    2  501    0  0.53733711524E+02  0.25224749059E+02 -0.78991334320E+02  0.98809061410E+02  0.00000000000E+00 0. -1.
          1    1    1    2  502    0 -0.11051465356E+02 -0.25464146115E+02  0.38930522689E+03  0.39029362960E+03  0.00000000000E+00 0. -1.
         22    1    3    3    0    0 -0.20655574155E+02 -0.59496580133E+02  0.46065118998E+02  0.78028783020E+02  0.00000000000E+00 0. -1.
         22    1    3    3    0    0 -0.22026672012E+02  0.59735977189E+02  0.10347394674E+03  0.12149246439E+03  0.00000000000E+00 0. -1.
</event>
<event>
 7    1  0.6330892E-006  0.1416122E+03  0.7818608E-02  0.1391089E+00
          2   -1    0    0  502    0  0.00000000000E+00  0.00000000000E+00  0.82202019249E+03  0.82202019249E+03  0.00000000000E+00 0. -1.
          1   -1    0    0  501    0 -0.00000000000E+00 -0.00000000000E+00 -0.17262746459E+03  0.17262746459E+03  0.00000000000E+00 0. -1.
         25    2    1    2    0    0 -0.14839836938E+03  0.61129014130E+02  0.88804490473E+02  0.22196784201E+03  0.12499861182E+03 0.  0.
          2    1    1    2  501    0  0.12982084928E+03 -0.41775029017E+02 -0.61791334695E+02  0.14972232632E+03  0.00000000000E+00 0. -1.
          1    1    1    2  502    0  0.18577520106E+02 -0.19353985114E+02  0.62237957212E+03  0.62295748874E+03  0.00000000000E+00 0. -1.
         22    1    3    3    0    0  0.83345803123E+01 -0.14024429839E+02  0.37246876794E+02  0.40663001515E+02  0.00000000000E+00 0.  1.
         22    1    3    3    0    0 -0.15673294969E+03  0.75153443969E+02  0.51557613679E+02  0.18130484050E+03  0.00000000000E+00 0.  1.
</event>
<event>
 7    1  0.6330892E-006  0.4493395E+02  0.7818608E-02  0.1562235E+00
          2   -1    0    0  502    0  0.00000000000E+00  0.00000000000E+00  0.44510939240E+03  0.44510939240E+03  0.00000000000E+00 0. -1.
          1   -1    0    0  501    0 -0.00000000000E+00 -0.00000000000E+00 -0.55823865167E+03  0.55823865167E+03  0.00000000000E+00 0. -1.
         25    2    1    2    0    0  0.35304575768E+01  0.69675305222E+02 -0.15961738711E+03  0.21440579793E+03  0.12500009452E+03 0.  0.
          2    1    1    2  501    0 -0.10297507798E+01 -0.24970711799E+02 -0.36960401738E+03  0.37044800782E+03  0.00000000000E+00 0. -1.
          1    1    1    2  502    0 -0.25007067970E+01 -0.44704593423E+02  0.41609214521E+03  0.41849423833E+03  0.00000000000E+00 0. -1.
         22    1    3    3    0    0  0.40963220302E+02 -0.80162538697E+01 -0.11978480867E+02  0.43424989896E+02  0.00000000000E+00 0. -1.
         22    1    3    3    0    0 -0.37432762725E+02  0.77691559092E+02 -0.14763890624E+03  0.17098080803E+03  0.00000000000E+00 0. -1.
</event>
<event>
 7    1  0.6330892E-006  0.9634307E+02  0.7818608E-02  0.1291366E+00
          2   -1    0    0  502    0  0.00000000000E+00  0.00000000000E+00  0.42319149230E+02  0.42319149230E+02  0.00000000000E+00 0. -1.
          1   -1    0    0  501    0 -0.00000000000E+00 -0.00000000000E+00 -0.23951830609E+04  0.23951830609E+04  0.00000000000E+00 0. -1.
         25    2    1    2    0    0  0.53882899725E+02 -0.30987262865E+02 -0.75430939018E+03  0.76711858897E+03  0.12499878434E+03 0.  0.
          2    1    1    2  501    0 -0.59697236561E+02 -0.71973951525E+02 -0.15560260347E+04  0.15588332273E+04  0.00000000000E+00 0. -1.
          1    1    1    2  502    0  0.58143368366E+01  0.10296121439E+03 -0.42528486727E+02  0.11155039383E+03  0.00000000000E+00 0. -1.
         22    1    3    3    0    0  0.23115575393E+02 -0.26160206064E+02 -0.44185180167E+02  0.56311778107E+02  0.00000000000E+00 0.  1.
         22    1    3    3    0    0  0.30767324331E+02 -0.48270568002E+01 -0.71012421002E+03  0.71080681087E+03  0.00000000000E+00 0.  1.
</event>
<event>
 7    1  0.6330892E-006  0.1011822E+03  0.7818608E-02  0.1362683E+00
          2   -1    0    0  502    0  0.00000000000E+00  0.00000000000E+00  0.18500499433E+04  0.18500499433E+04  0.00000000000E+00 0. -1.
          1   -1    0    0  501    0 -0.00000000000E+00 -0.00000000000E+00 -0.11088261354E+03  0.11088261354E+03  0.00000000000E+00 0. -1.
         25    2    1    2    0    0  0.87030714003E+01 -0.12773564489E+03  0.12696256413E+03  0.21940688769E+03  0.12501100451E+03 0.  0.
          2    1    1    2  501    0  0.24131013548E+02  0.93567485308E+02 -0.28025382866E+02  0.10061114355E+03  0.00000000000E+00 0. -1.
          1    1    1    2  502    0 -0.32834084948E+02  0.34168159584E+02  0.16402301485E+04  0.16409145256E+04  0.00000000000E+00 0. -1.
         22    1    3    3    0    0  0.43897630702E+01 -0.10311372455E+03  0.15219524915E+03  0.18388883618E+03  0.00000000000E+00 0.  1.
         22    1    3    3    0    0  0.43133083301E+01 -0.24621920342E+02 -0.25232685016E+02  0.35518051512E+02  0.00000000000E+00 0.  1.
</event>
<event>
 7    1  0.6330892E-006  0.1172564E+03  0.7818608E-02  0.1331136E+00
          2   -1    0    0  502    0  0.00000000000E+00  0.00000000000E+00  0.41471549943E+04  0.41471549943E+04  0.00000000000E+00 0. -1.
          1   -1    0    0  501    0 -0.00000000000E+00 -0.00000000000E+00 -0.16391214543E+04  0.16391214543E+04  0.00000000000E+00 0. -1.
         25    2    1    2    0    0  0.13824614723E+03 -0.28932219721E+02 -0.11795442027E+01  0.18861509349E+03  0.12500076643E+03 0.  0.
          2    1    1    2  501    0 -0.40309065434E+02 -0.35313348994E+02 -0.15429127048E+04  0.15438430840E+04  0.00000000000E+00 0. -1.
          1    1    1    2  502    0 -0.97937081793E+02  0.64245568715E+02  0.40521257890E+04  0.40538182711E+04  0.00000000000E+00 0. -1.
         22    1    3    3    0    0  0.88057970353E+02  0.36686948926E+02 -0.31733042853E+02  0.10053419504E+03  0.00000000000E+00 0.  1.
         22    1    3    3    0    0  0.50188176874E+02 -0.65619168647E+02  0.30553498650E+02  0.88080898449E+02  0.00000000000E+00 0.  1.
</event>
<event>
 7    1  0.6330892E-006  0.6991275E+02  0.7818608E-02  0.1388879E+00
          2   -1    0    0  502    0  0.00000000000E+00  0.00000000000E+00  0.14158794227E+04  0.14158794227E+04  0.00000000000E+00 0. -1.
          1   -1    0    0  501    0 -0.00000000000E+00 -0.00000000000E+00 -0.26357578133E+03  0.26357578133E+03  0.00000000000E+00 0. -1.
         25    2    1    2    0    0  0.17261303888E+01  0.34261852935E+02  0.24400176072E+02  0.13186804714E+03  0.12496783255E+03 0.  0.
          2    1    1    2  501    0  0.54662646409E+02  0.84623949133E+01 -0.20524241366E+03  0.21256543794E+03  0.00000000000E+00 0. -1.
          1    1    1    2  502    0 -0.56388776798E+02 -0.42724247848E+02  0.13331458789E+04  0.13350217189E+04  0.00000000000E+00 0. -1.
         22    1    3    3    0    0 -0.13303516070E+02 -0.12257359266E+01 -0.48013504924E+02  0.49837562375E+02  0.00000000000E+00 0. -1.
         22    1    3    3    0    0  0.15029646459E+02  0.35487588862E+02  0.72413680995E+02  0.82030484767E+02  0.00000000000E+00 0. -1.
</event>
<event>
 7    1  0.6330892E-006  0.1876000E+03  0.7818608E-02  0.1256079E+00
          2   -1    0    0  502    0  0.00000000000E+00  0.00000000000E+00  0.41200211075E+03  0.41200211075E+03  0.00000000000E+00 0. -1.
          1   -1    0    0  501    0 -0.00000000000E+00 -0.00000000000E+00 -0.18727194237E+04  0.18727194237E+04  0.00000000000E+00 0. -1.
         25    2    1    2    0    0 -0.12465561650E+03  0.18471650789E+01 -0.87671505116E+01  0.17676166355E+03  0.12500155210E+03 0.  0.
          2    1    1    2  501    0  0.19129573293E+03  0.83592028996E+01 -0.17712757072E+04  0.17815952303E+04  0.00000000000E+00 0. -1.
          1    1    1    2  502    0 -0.66640116432E+02 -0.10206367979E+02  0.31932554479E+03  0.32636464058E+03  0.00000000000E+00 0. -1.
         22    1    3    3    0    0 -0.10398697444E+02 -0.18672501028E+02  0.44251380850E+02  0.49142445099E+02  0.00000000000E+00 0.  1.
         22    1    3    3    0    0 -0.11425691906E+03  0.20519666107E+02 -0.53018531362E+02  0.12761921845E+03  0.00000000000E+00 0.  1.
</event>
<event>
 7    1  0.6330892E-006  0.8153437E+02  0.7818608E-02  0.1472682E+00
          2   -1    0    0  502    0  0.00000000000E+00  0.00000000000E+00  0.10272108683E+03  0.10272108683E+03  0.00000000000E+00 0. -1.
          1   -1    0    0  501    0 -0.00000000000E+00 -0.00000000000E+00 -0.28602090609E+04  0.28602090609E+04  0.00000000000E+00 0. -1.
         25    2    1    2    0    0 -0.62392486091E+02 -0.75292687423E+02 -0.95008763639E+03  0.96325248199E+03  0.12500806429E+03 0.  0.
          2    1    1    2  501    0  0.61910063901E+02  0.50165632792E+02 -0.19010475680E+04  0.19027168214E+04  0.00000000000E+00 0. -1.
          1    1    1    2  502    0  0.48242218937E+00  0.25127054631E+02  0.93647230261E+02  0.96960844371E+02  0.00000000000E+00 0. -1.
         22    1    3    3    0    0  0.67028494797E+00  0.24879322796E+02 -0.38999869890E+03  0.39079203565E+03  0.00000000000E+00 0. -1.
         22    1    3    3    0    0 -0.63062771039E+02 -0.10017201022E+03 -0.56008893749E+03  0.57246044634E+03  0.00000000000E+00 0. -1.
</event>
<event>
 7    1  0.6330892E-006  0.5742633E+02  0.7818608E-02  0.1507272E+00
          2   -1    0    0  502    0  0.00000000000E+00  0.00000000000E+00  0.23624591521E+04  0.23624591521E+04  0.00000000000E+00 0. -1.
          1   -1    0    0  501    0 -0.00000000000E+00 -0.00000000000E+00 -0.37249907392E+03  0.37249907392E+03  0.00000000000E+00 0. -1.
         25    2    1    2    0    0  0.73407973883E+02  0.14208796568E+02  0.11431244553E+03  0.18515469797E+03  0.12499722576E+03 0.  0.
          2    1    1    2  501    0 -0.16724080433E+02 -0.22506924208E+02 -0.33612326511E+03  0.33729083274E+03  0.00000000000E+00 0. -1.
          1    1    1    2  502    0 -0.56683893451E+02  0.82981276397E+01  0.22117708978E+04  0.22125126953E+04  0.00000000000E+00 0. -1.
         22    1    3    3    0    0  0.35145147500E+02  0.62500994724E+02  0.97977183099E+02  0.12141286646E+03  0.00000000000E+00 0. -1.
         22    1    3    3    0    0  0.38262826383E+02 -0.48292198156E+02  0.16335262431E+02  0.63741831510E+02  0.00000000000E+00 0. -1.
</event>
<event>
 7    1  0.6330892E-006  0.1111111E+03  0.7818608E-02  0.1365775E+00
          2   -1    0    0  502    0  0.00000000000E+00  0.00000000000E+00  0.51823156303E+03  0.51823156303E+03  0.00000000000E+00 0. -1.
          1   -1    0    0  501    0 -0.00000000000E+00 -0.00000000000E+00 -0.32218841182E+03  0.32218841182E+03  0.00000000000E+00 0. -1.
         25    2    1    2    0    0 -0.95686896592E+02 -0.48123541693E+02  0.18372868852E+03  0.24668368361E+03  0.12499900530E+03 0.  0.
          2    1    1    2  501    0  0.11131638428E+03  0.90832018563E+01 -0.27841497426E+03  0.29998123251E+03  0.00000000000E+00 0. -1.
          1    1    1    2  502    0 -0.15629487686E+02  0.39040339837E+02  0.29072943695E+03  0.29375505873E+03  0.00000000000E+00 0. -1.
         22    1    3    3    0    0 -0.13600028625E+02 -0.66577337032E+02  0.13047857268E+03  0.14711274762E+03  0.00000000000E+00 0.  1.
         22    1    3    3    0    0 -0.82086867967E+02  0.18453795339E+02  0.53250115845E+02  0.99570935983E+02  0.00000000000E+00 0.  1.
</event>
<event>
 7    1  0.6330892E-006  0.3520854E+02  0.7818608E-02  0.1607036E+00
          2   -1    0    0  502    0  0.00000000000E+00  0.00000000000E+00  0.17844272058E+03  0.17844272058E+03  0.00000000000E+00 0. -1.
          1   -1    0    0  501    0 -0.00000000000E+00 -0.00000000000E+00 -0.77595993963E+02  0.77595993963E+02  0.00000000000E+00 0. -1.
         25    2    1    2    0    0 -0.35444412767E+02 -0.43783018449E+02  0.92275649755E+02  0.16526778831E+03  0.12500154884E+03 0.  0.
          2    1    1    2  501    0  0.15241801123E+02  0.30412096108E+02 -0.29911165075E+02  0.45297747044E+02  0.00000000000E+00 0. -1.
          1    1    1    2  502    0  0.20202611644E+02  0.13370922341E+02  0.38482241940E+02  0.45473179196E+02  0.00000000000E+00 0. -1.
         22    1    3    3    0    0 -0.73940868120E+02 -0.49882763636E+01  0.24183753802E+02  0.77955043630E+02  0.00000000000E+00 0.  1.
         22    1    3    3    0    0  0.38496455353E+02 -0.38794742085E+02  0.68091895953E+02  0.87312744675E+02  0.00000000000E+00 0.  1.
</event>
<event>
 7    1  0.6330892E-006  0.1144671E+03  0.7818608E-02  0.1351162E+00
          2   -1    0    0  502    0  0.00000000000E+00  0.00000000000E+00  0.10299379096E+04  0.10299379096E+04  0.00000000000E+00 0. -1.
          1   -1    0    0  501    0 -0.00000000000E+00 -0.00000000000E+00 -0.47654826554E+03  0.47654826554E+03  0.00000000000E+00 0. -1.
         25    2    1    2    0    0  0.82534273136E+01 -0.14910236743E+03 -0.68650647117E+02  0.20648845296E+03  0.12499973928E+03 0.  0.
          2    1    1    2  501    0  0.23289061123E+02  0.39861672816E+02 -0.33402227749E+03  0.33719759072E+03  0.00000000000E+00 0. -1.
          1    1    1    2  502    0 -0.31542488437E+02  0.10924069461E+03  0.95606256867E+03  0.96280013147E+03  0.00000000000E+00 0. -1.
         22    1    3    3    0    0  0.45887341420E+02 -0.18488781292E+02 -0.48128810538E+02  0.69020761659E+02  0.00000000000E+00 0.  1.
         22    1    3    3    0    0 -0.37633914106E+02 -0.13061358613E+03 -0.20521836580E+02  0.13746769130E+03  0.00000000000E+00 0.  1.
</event>
<event>
 7    1  0.6330892E-006  0.1056129E+03  0.7818608E-02  0.1303968E+00
          2   -1    0    0  502    0  0.00000000000E+00  0.00000000000E+00  0.23954660477E+03  0.23954660477E+03  0.00000000000E+00 0. -1.
          1   -1    0    0  501    0 -0.00000000000E+00 -0.00000000000E+00 -0.82006877975E+03  0.82006877975E+03  0.00000000000E+00 0. -1.
         25    2    1    2    0    0 -0.48736473536E+02  0.22510830840E+02 -0.44317449380E+00  0.13609632410E+03  0.12506011224E+03 0.  0.
          2    1    1    2  501    0  0.47766912027E+02 -0.98418946570E+02 -0.73918174579E+03  0.74723331044E+03  0.00000000000E+00 0. -1.
          1    1    1    2  502    0  0.96956150853E+00  0.75908115730E+02  0.15910274530E+03  0.17628574998E+03  0.00000000000E+00 0. -1.
         22    1    3    3    0    0  0.34448140646E+02  0.35585865181E+02  0.12039128424E+02  0.50970273767E+02  0.00000000000E+00 0.  1.
         22    1    3    3    0    0 -0.83184614182E+02 -0.13075034341E+02 -0.12482302918E+02  0.85126050336E+02  0.00000000000E+00 0.  1.
</event>
<event>
 7    1  0.6330892E-006  0.7296621E+02  0.7818608E-02  0.1464686E+00
          2   -1    0    0  502    0  0.00000000000E+00  0.00000000000E+00  0.41387532479E+03  0.41387532479E+03  0.00000000000E+00 0. -1.
          1   -1    0    0  501    0 -0.00000000000E+00 -0.00000000000E+00 -0.57964620300E+02  0.57964620300E+02  0.00000000000E+00 0. -1.
         25    2    1    2    0    0 -0.46570671908E+02 -0.81993540229E+01  0.77384721798E+02  0.15443181948E+03  0.12499893925E+03 0.  0.
          2    1    1    2  501    0 -0.29647569092E+02  0.23605009018E+01  0.12278343164E+01  0.29766724622E+02  0.00000000000E+00 0. -1.
          1    1    1    2  502    0  0.76218241001E+02  0.58388531211E+01  0.27729814838E+03  0.28764140099E+03  0.00000000000E+00 0. -1.
         22    1    3    3    0    0 -0.24287713386E+02 -0.24675655623E+02 -0.28584852171E+02  0.44898494135E+02  0.00000000000E+00 0.  1.
         22    1    3    3    0    0 -0.22282958522E+02  0.16476301600E+02  0.10596957397E+03  0.10953332535E+03  0.00000000000E+00 0.  1.
</event>
<event>
 7    1  0.6330892E-006  0.8862735E+02  0.7818608E-02  0.1318342E+00
          2   -1    0    0  502    0  0.00000000000E+00  0.00000000000E+00  0.14926270733E+03  0.14926270733E+03  0.00000000000E+00 0. -1.
          1   -1    0    0  501    0 -0.00000000000E+00 -0.00000000000E+00 -0.20973236301E+04  0.20973236301E+04  0.00000000000E+00 0. -1.
         25    2    1    2    0    0 -0.40746104394E+02  0.18951081076E+02 -0.35368225891E+03  0.37780163921E+03  0.12499419918E+03 0.  0.
          2    1    1    2  501    0 -0.33755474117E+02 -0.71888922149E+02 -0.17153403303E+04  0.17171778877E+04  0.00000000000E+00 0. -1.
          1    1    1    2  502    0  0.74501578511E+02  0.52937841073E+02  0.12096166651E+03  0.15160681047E+03  0.00000000000E+00 0. -1.
         22    1    3    3    0    0  0.28257256246E+02 -0.33966738167E+02 -0.14900611058E+03  0.15541889468E+03  0.00000000000E+00 0.  1.
         22    1    3    3    0    0 -0.69003360641E+02  0.52917819243E+02 -0.20467614832E+03  0.22238274453E+03  0.00000000000E+00 0.  1.
</event>
<event>
 7    1  0.6330892E-006  0.6415331E+02  0.7818608E-02  0.1495291E+00
          2   -1    0    0  502    0  0.00000000000E+00  0.00000000000E+00  0.35687400308E+02  0.35687400308E+02  0.00000000000E+00 0. -1.
          1   -1    0    0  501    0 -0.00000000000E+00 -0.00000000000E+00 -0.11777231811E+04  0.11777231811E+04  0.00000000000E+00 0. -1.
         25    2    1    2    0    0 -0.16913147485E+02  0.53497645500E+02 -0.29054531656E+03  0.32123123597E+03  0.12499949341E+03 0.  0.
          2    1    1    2  501    0  0.24245561247E+02  0.12438180564E+02 -0.81691218299E+03  0.81736654586E+03  0.00000000000E+00 0. -1.
          1    1    1    2  502    0 -0.73324137618E+01 -0.65935826063E+02 -0.34578281271E+02  0.74812799613E+02  0.00000000000E+00 0. -1.
         22    1    3    3    0    0 -0.74877621105E+01  0.63110112448E+02 -0.29877046153E+03  0.30545497468E+03  0.00000000000E+00 0.  1.
         22    1    3    3    0    0 -0.94253853744E+01 -0.96124669482E+01  0.82251449695E+01  0.15776261283E+02  0.00000000000E+00 0.  1.
</event>
<event>
 7    1  0.6330892E-006  0.3496766E+02  0.7818608E-02  0.1586828E+00
          2   -1    0    0  502    0  0.00000000000E+00  0.00000000000E+00  0.80058562064E+03  0.80058562064E+03  0.00000000000E+00 0. -1.
          1   -1    0    0  501    0 -0.00000000000E+00 -0.00000000000E+00 -0.13253642807E+04  0.13253642807E+04  0.00000000000E+00 0. -1.
         25    2    1    2    0    0 -0.18052589908E+01 -0.36112487378E+02 -0.38352770479E+02  0.13566281449E+03  0.12500437403E+03 0.  0.
          2    1    1    2  501    0 -0.23731962357E+02  0.25747736422E+02 -0.12378562759E+04  0.12383514492E+04  0.00000000000E+00 0. -1.
          1    1    1    2  502    0  0.25537221348E+02  0.10364750956E+02  0.75143038630E+03  0.75193563767E+03  0.00000000000E+00 0. -1.
         22    1    3    3    0    0  0.90922830650E+01  0.10814621750E+02  0.40702505376E+02  0.43085027548E+02  0.00000000000E+00 0. -1.
         22    1    3    3    0    0 -0.10897542056E+02 -0.46927109129E+02 -0.79055275855E+02  0.92577786939E+02  0.00000000000E+00 0. -1.
</event>
<event>
 7    1  0.6746467E-006  0.1270563E+03  0.7818608E-02  0.1328920E+00
          2   -1    0    0  502    0  0.00000000000E+00  0.00000000000E+00  0.36700069035E+04  0.36700069035E+04  0.00000000000E+00 0. -1.
          1   -1    0    0  501    0 -0.00000000000E+00 -0.00000000000E+00 -0.93251315494E+03  0.93251315494E+03  0.00000000000E+00 0. -1.
         25    2    1    2    0    0  0.72449486541E+02  0.34056370184E+02 -0.35581845994E+03  0.38553989191E+03  0.12500186947E+03 0.  0.
          2    1    1    2  501    0  0.31293692047E+02  0.39545973181E+02 -0.55959310414E+03  0.56186085587E+03  0.00000000000E+00 0. -1.
          1    1    1    2  502    0 -0.10374317859E+03 -0.73602343365E+02  0.36529053126E+04  0.36551193106E+04  0.00000000000E+00 0. -1.
         22    1    3    3    0    0  0.32773271245E+02  0.66741467413E+02 -0.10003222882E+03  0.12463930995E+03  0.00000000000E+00 0. -1.
         22    1    3    3    0    0  0.39676215296E+02 -0.32685097228E+02 -0.25578623112E+03  0.26090058196E+03  0.00000000000E+00 0. -1.
</event>
<event>
 7    1  0.6330892E-006  0.5831757E+02  0.7818608E-02  0.1471262E+00
          2   -1    0    0  502    0  0.00000000000E+00  0.00000000000E+00  0.12374730566E+02  0.12374730566E+02  0.00000000000E+00 0. -1.
          1   -1    0    0  501    0 -0.00000000000E+00 -0.00000000000E+00 -0.13778106135E+04  0.13778106135E+04  0.00000000000E+00 0. -1.
         25    2    1    2    0    0  0.15335600486E+02 -0.54108747647E+02 -0.89094277362E+03  0.90142496509E+03  0.12500001842E+03 0.  0.
          2    1    1    2  501    0  0.18973963367E+02  0.63206116881E+02 -0.17256663688E+03  0.18475461743E+03  0.00000000000E+00 0. -1.
          1    1    1    2  502    0 -0.34309563853E+02 -0.90973692335E+01 -0.30192647248E+03  0.30400576159E+03  0.00000000000E+00 0. -1.
         22    1    3    3    0    0  0.16575189172E+01  0.61572730755E+00 -0.74437793748E+03  0.74438003754E+03  0.00000000000E+00 0.  1.
         22    1    3    3    0    0  0.13678081569E+02 -0.54724474955E+02 -0.14656483614E+03  0.15704492755E+03  0.00000000000E+00 0.  1.
</event>
<event>
 7    1  0.6330892E-006  0.1417241E+03  0.7818608E-02  0.1368051E+00
          2   -1    0    0  502    0  0.00000000000E+00  0.00000000000E+00  0.45085899494E+03  0.45085899494E+03  0.00000000000E+00 0. -1.
          1   -1    0    0  501    0 -0.00000000000E+00 -0.00000000000E+00 -0.14228465498E+03  0.14228465498E+03  0.00000000000E+00 0. -1.
         25    2    1    2    0    0  0.11193736509E+03 -0.25900381993E+02 -0.45200159053E+00  0.16978185078E+03  0.12499947622E+03 0.  0.
          2    1    1    2  501    0  0.32341041103E+02  0.80078536983E+00 -0.36085515678E+02  0.48463890048E+02  0.00000000000E+00 0. -1.
          1    1    1    2  502    0 -0.14427840620E+03  0.25099596623E+02  0.34511185723E+03  0.37489790910E+03  0.00000000000E+00 0. -1.
         22    1    3    3    0    0 -0.20911845651E+02 -0.31949565774E+01  0.24867920866E+02  0.32648530201E+02  0.00000000000E+00 0.  1.
         22    1    3    3    0    0  0.13284921074E+03 -0.22705425415E+02 -0.25319922456E+02  0.13713332057E+03  0.00000000000E+00 0.  1.
</event>
<event>
 7    1  0.6330892E-006  0.1038661E+03  0.7818608E-02  0.1421998E+00
          2   -1    0    0  502    0  0.00000000000E+00  0.00000000000E+00  0.24747350651E+04  0.24747350651E+04  0.00000000000E+00 0. -1.
          1   -1    0    0  501    0 -0.00000000000E+00 -0.00000000000E+00 -0.19862492788E+03  0.19862492788E+03  0.00000000000E+00 0. -1.
         25    2    1    2    0    0 -0.11792393261E+03 -0.25567708427E+02  0.14436953595E+04  0.14541114965E+04  0.12499676604E+03 0.  0.
          2    1    1    2  501    0  0.94670744452E+02  0.42393682746E+02 -0.17929118444E+03  0.20713547019E+03  0.00000000000E+00 0. -1.
          1    1    1    2  502    0  0.23253188156E+02 -0.16825974319E+02  0.10117059622E+04  0.10121130263E+04  0.00000000000E+00 0. -1.
         22    1    3    3    0    0  0.20962998658E+02  0.52699489487E+01  0.42261885110E+03  0.42317125727E+03  0.00000000000E+00 0. -1.
         22    1    3    3    0    0 -0.13888693127E+03 -0.30837657376E+02  0.10210765084E+04  0.10309402392E+04  0.00000000000E+00 0. -1.
</event>
<event>
 7    1  0.6330892E-006  0.7828449E+02  0.7818608E-02  0.1396744E+00
          2   -1    0    0  502    0  0.00000000000E+00  0.00000000000E+00  0.22256311682E+03  0.22256311682E+03  0.00000000000E+00 0. -1.
          1   -1    0    0  501    0 -0.00000000000E+00 -0.00000000000E+00 -0.64562982876E+03  0.64562982876E+03  0.00000000000E+00 0. -1.
         25    2    1    2    0    0 -0.53181612237E+02 -0.65635369215E+02 -0.76843644825E+01  0.15106456159E+03  0.12500066695E+03 0.  0.
          2    1    1    2  501    0  0.44549130785E+02 -0.12922152426E+02 -0.55487138635E+03  0.55680684485E+03  0.00000000000E+00 0. -1.
          1    1    1    2  502    0  0.86324814519E+01  0.78557521641E+02  0.13948903890E+03  0.16032153915E+03  0.00000000000E+00 0. -1.
         22    1    3    3    0    0  0.26808257887E+02 -0.65605317006E+02 -0.43776383733E+01  0.71006366110E+02  0.00000000000E+00 0. -1.
         22    1    3    3    0    0 -0.79989870123E+02 -0.30052208817E-01 -0.33067261093E+01  0.80058195477E+02  0.00000000000E+00 0. -1.
</event>
<event>
 7    1  0.6330892E-006  0.5722002E+02  0.7818608E-02  0.1451503E+00
          2   -1    0    0  502    0  0.00000000000E+00  0.00000000000E+00  0.40058334417E+03  0.40058334417E+03  0.00000000000E+00 0. -1.
          1   -1    0    0  501    0 -0.00000000000E+00 -0.00000000000E+00 -0.45958293593E+03  0.45958293593E+03  0.00000000000E+00 0. -1.
         25    2    1    2    0    0 -0.16632839477E+02  0.33096790737E+02 -0.18100069426E+03  0.22307021275E+03  0.12500807808E+03 0.  0.
          2    1    1    2  501    0 -0.38428714030E+02 -0.16312704765E+02 -0.25364879216E+03  0.25706143266E+03  0.00000000000E+00 0. -1.
          1    1    1    2  502    0  0.55061553506E+02 -0.16784085971E+02  0.37564989465E+03  0.38003463470E+03  0.00000000000E+00 0. -1.
         22    1    3    3    0    0  0.53481246388E+01  0.48047257536E+02 -0.91832774178E+01  0.49208474656E+02  0.00000000000E+00 0. -1.
         22    1    3    3    0    0 -0.21980964115E+02 -0.14950466799E+02 -0.17181741684E+03  0.17386173809E+03  0.00000000000E+00 0. -1.
</event>
<event>
 7    1  0.6330892E-006  0.7974805E+02  0.7818608E-02  0.1378006E+00
          2   -1    0    0  502    0  0.00000000000E+00  0.00000000000E+00  0.17909727523E+04  0.17909727523E+04  0.00000000000E+00 0. -1.
          1   -1    0    0  501    0 -0.00000000000E+00 -0.00000000000E+00 -0.46518714815E+02  0.46518714815E+02  0.00000000000E+00 0. -1.
         25    2    1    2    0    0 -0.78872808704E+02 -0.95478829248E+02  0.35608631952E+03  0.39718854839E+03  0.12499659690E+03 0.  0.
          2    1    1    2  501    0  0.36050096805E+02  0.64310686199E+02  0.27936557799E+02  0.78841138377E+02  0.00000000000E+00 0. -1.
          1    1    1    2  502    0  0.42822711900E+02  0.31168143049E+02  0.13604311601E+04  0.13614617803E+04  0.00000000000E+00 0. -1.
         22    1    3    3    0    0 -0.22182107965E+02 -0.94034437571E+02  0.11833105664E+03  0.15276374023E+03  0.00000000000E+00 0. -1.
         22    1    3    3    0    0 -0.56690700740E+02 -0.14443916761E+01  0.23775526289E+03  0.24442480817E+03  0.00000000000E+00 0. -1.
</event>
<event>
 7    1  0.6330892E-006  0.7790433E+02  0.7818608E-02  0.1430400E+00
          2   -1    0    0  502    0  0.00000000000E+00  0.00000000000E+00  0.55200923081E+03  0.55200923081E+03  0.00000000000E+00 0. -1.
          1   -1    0    0  501    0 -0.00000000000E+00 -0.00000000000E+00 -0.78461448454E+02  0.78461448454E+02  0.00000000000E+00 0. -1.
         25    2    1    2    0    0 -0.85039578911E+01 -0.53308299003E+02  0.17467577613E+03  0.22148047647E+03  0.12501153007E+03 0.  0.
          2    1    1    2  501    0 -0.28827086913E+02 -0.21385706137E+02 -0.43606359466E+02  0.56478880591E+02  0.00000000000E+00 0. -1.
          1    1    1    2  502    0  0.37331044804E+02  0.74694005141E+02  0.34247836570E+03  0.35251132220E+03  0.00000000000E+00 0. -1.
         22    1    3    3    0    0  0.16150956665E+02 -0.88271611589E+02  0.14055315378E+03  0.16675706837E+03  0.00000000000E+00 0. -1.
         22    1    3    3    0    0 -0.24654914556E+02  0.34963312585E+02  0.34122622348E+02  0.54723408105E+02  0.00000000000E+00 0. -1.
</event>
<event>
 7    1  0.6330892E-006  0.6257923E+02  0.7818608E-02  0.1497235E+00
          2   -1    0    0  502    0  0.00000000000E+00  0.00000000000E+00  0.12962597676E+04  0.12962597676E+04  0.00000000000E+00 0. -1.
          1   -1    0    0  501    0 -0.00000000000E+00 -0.00000000000E+00 -0.14256098500E+03  0.14256098500E+03  0.00000000000E+00 0. -1.
         25    2    1    2    0    0  0.59989819532E+00  0.85171699050E+02  0.30593770881E+03  0.34129060194E+03  0.12500726020E+03 0.  0.
          2    1    1    2  501    0  0.12350758415E+02 -0.60840924723E+02 -0.11696008166E+03  0.13241533166E+03  0.00000000000E+00 0. -1.
          1    1    1    2  502    0 -0.12950656610E+02 -0.24330774327E+02  0.96472115548E+03  0.96511481904E+03  0.00000000000E+00 0. -1.
         22    1    3    3    0    0  0.68124987213E+01 -0.28008718135E+02  0.24310131455E+02  0.37707836344E+02  0.00000000000E+00 0. -1.
         22    1    3    3    0    0 -0.62126005260E+01  0.11318041718E+03  0.28162757735E+03  0.30358276559E+03  0.00000000000E+00 0. -1.
</event>
<event>
 7    1  0.6330892E-006  0.8234645E+02  0.7818608E-02  0.1335339E+00
          2   -1    0    0  502    0  0.00000000000E+00  0.00000000000E+00  0.11895679699E+04  0.11895679699E+04  0.00000000000E+00 0. -1.
          1   -1    0    0  501    0 -0.00000000000E+00 -0.00000000000E+00 -0.27338557492E+02  0.27338557492E+02  0.00000000000E+00 0. -1.
         25    2    1    2    0    0 -0.47730881997E+02 -0.45381780156E+02  0.70487962203E+03  0.71890070326E+03  0.12500078609E+03 0.  0.
          2    1    1    2  501    0 -0.65680357917E+02  0.33105760588E+02  0.10933952087E+03  0.13177644563E+03  0.00000000000E+00 0. -1.
          1    1    1    2  502    0  0.11341123991E+03  0.12276019568E+02  0.34801026954E+03  0.36622937854E+03  0.00000000000E+00 0. -1.
         22    1    3    3    0    0 -0.13245524738E+02 -0.78635524734E+02  0.57431197382E+03  0.57982172514E+03  0.00000000000E+00 0.  1.
         22    1    3    3    0    0 -0.34485357259E+02  0.33253744578E+02  0.13056764821E+03  0.13907897812E+03  0.00000000000E+00 0.  1.
</event>
<event>
 7    1  0.6330892E-006  0.9929985E+02  0.7818608E-02  0.1463626E+00
          2   -1    0    0  502    0  0.00000000000E+00  0.00000000000E+00  0.15597701502E+03  0.15597701502E+03  0.00000000000E+00 0. -1.
          1   -1    0    0  501    0 -0.00000000000E+00 -0.00000000000E+00 -0.30714998508E+03  0.30714998508E+03  0.00000000000E+00 0. -1.
         25    2    1    2    0    0  0.77467458178E+02 -0.50130561472E+02 -0.13074432046E+03  0.20306031466E+03  0.12500053514E+03 0.  0.
          2    1    1    2  501    0  0.16473906847E+02  0.14614452498E+02 -0.11800353875E+03  0.12004085549E+03  0.00000000000E+00 0. -1.
          1    1    1    2  502    0 -0.93941365025E+02  0.35516108974E+02  0.97574889161E+02  0.14002582995E+03  0.00000000000E+00 0. -1.
         22    1    3    3    0    0  0.27382352898E+01 -0.41531997079E+02 -0.12007609383E+03  0.12708529822E+03  0.00000000000E+00 0.  1.
         22    1    3    3    0    0  0.74729222889E+02 -0.85985643935E+01 -0.10668226629E+02  0.75975016437E+02  0.00000000000E+00 0.  1.
</event>
<event>
 7    1  0.8027583E-006  0.7393456E+02  0.7818608E-02  0.1368025E+00
          2   -1    0    0  502    0  0.00000000000E+00  0.00000000000E+00  0.65826444305E+03  0.65826444305E+03  0.00000000000E+00 0. -1.
          1   -1    0    0  501    0 -0.00000000000E+00 -0.00000000000E+00 -0.26175460587E+04  0.26175460587E+04  0.00000000000E+00 0. -1.
         25    2    1    2    0    0 -0.34748756487E+02 -0.42659479501E+02 -0.25526783988E+03  0.28950840434E+03  0.12500455527E+03 0.  0.
          2    1    1    2  501    0 -0.19436936353E+02  0.72845767180E+02 -0.23430499967E+04  0.23442626959E+04  0.00000000000E+00 0. -1.
          1    1    1    2  502    0  0.54185692839E+02 -0.30186287679E+02  0.63903622100E+03  0.64203940146E+03  0.00000000000E+00 0. -1.
         22    1    3    3    0    0 -0.15733936567E+02 -0.44361051133E+02 -0.16347717660E+02  0.49826774833E+02  0.00000000000E+00 0.  1.
         22    1    3    3    0    0 -0.19014819919E+02  0.17015716317E+01 -0.23892012222E+03  0.23968162951E+03  0.00000000000E+00 0.  1.
</event>
<event>
 7    1  0.6330892E-006  0.2255172E+03  0.7818608E-02  0.1235226E+00
          2   -1    0    0  502    0  0.00000000000E+00  0.00000000000E+00  0.21821145135E+04  0.21821145135E+04  0.00000000000E+00 0. -1.
          1   -1    0    0  501    0 -0.00000000000E+00 -0.00000000000E+00 -0.38879055525E+03  0.38879055525E+03  0.00000000000E+00 0. -1.
         25    2    1    2    0    0  0.31095974695E+02  0.28199198282E+03  0.11243987959E+03  0.32977853821E+03  0.12499887889E+03 0.  0.
          2    1    1    2  501    0 -0.27457040350E+02 -0.21291380055E+03 -0.23827584248E+03  0.32072036517E+03  0.00000000000E+00 0. -1.
          1    1    1    2  502    0 -0.36389343449E+01 -0.69078182273E+02  0.19191599211E+04  0.19204061654E+04  0.00000000000E+00 0. -1.
         22    1    3    3    0    0 -0.27820462961E+02  0.66103342642E+02 -0.13518126482E+02  0.72981982786E+02  0.00000000000E+00 0. -1.
         22    1    3    3    0    0  0.58916437656E+02  0.21588864018E+03  0.12595800607E+03  0.25679655543E+03  0.00000000000E+00 0. -1.
</event>
<event>
 7    1  0.6330892E-006  0.7324144E+02  0.7818608E-02  0.1373609E+00
          2   -1    0    0  502    0  0.00000000000E+00  0.00000000000E+00  0.29777029465E+03  0.29777029465E+03  0.00000000000E+00 0. -1.
          1   -1    0    0  501    0 -0.00000000000E+00 -0.00000000000E+00 -0.14541199122E+04  0.14541199122E+04  0.00000000000E+00 0. -1.
         25    2    1    2    0    0  0.91484392506E+02  0.85051036222E+02 -0.63844058213E+02  0.18790474656E+03  0.12501622765E+03 0.  0.
          2    1    1    2  501    0 -0.27959606010E+02 -0.52848454964E+02 -0.13221752453E+04  0.13235263798E+04  0.00000000000E+00 0. -1.
          1    1    1    2  502    0 -0.63524786496E+02 -0.32202581258E+02  0.22966968596E+03  0.24045908049E+03  0.00000000000E+00 0. -1.
         22    1    3    3    0    0 -0.27035689078E+01  0.12519417456E+02  0.32470783479E+02  0.34905542225E+02  0.00000000000E+00 0. -1.
         22    1    3    3    0    0  0.94187961414E+02  0.72531618766E+02 -0.96314841692E+02  0.15299920433E+03  0.00000000000E+00 0. -1.
</event>
<event>
 7    1  0.6330892E-006  0.5699138E+02  0.7818608E-02  0.1511657E+00
          2   -1    0    0  502    0  0.00000000000E+00  0.00000000000E+00  0.19940310504E+03  0.19940310504E+03  0.00000000000E+00 0. -1.
          1   -1    0    0  501    0 -0.00000000000E+00 -0.00000000000E+00 -0.29502355522E+03  0.29502355522E+03  0.00000000000E+00 0. -1.
         25    2    1    2    0    0  0.29058240904E+02  0.48962750730E+02  0.11390499865E+03  0.17844281642E+03  0.12500303073E+03 0.  0.
          2    1    1    2  501    0 -0.25476250335E+02  0.10156841594E+02 -0.24527459922E+03  0.24680322077E+03  0.00000000000E+00 0. -1.
          1    1    1    2  502    0 -0.35819905687E+01 -0.59119592323E+02  0.35749150387E+02  0.69180623055E+02  0.00000000000E+00 0. -1.
         22    1    3    3    0    0  0.26409569280E+02  0.89667692108E+02  0.60920867518E+02  0.11157559077E+03  0.00000000000E+00 0. -1.
         22    1    3    3    0    0  0.26486716232E+01 -0.40704941379E+02  0.52984131134E+02  0.66867225649E+02  0.00000000000E+00 0. -1.
</event>
<event>
 7    1  0.6330892E-006  0.1399126E+03  0.7818608E-02  0.1355443E+00
          2   -1    0    0  502    0  0.00000000000E+00  0.00000000000E+00  0.17129781768E+04  0.17129781768E+04  0.00000000000E+00 0. -1.
          1   -1    0    0  501    0 -0.00000000000E+00 -0.00000000000E+00 -0.50805545117E+03  0.50805545117E+03  0.00000000000E+00 0. -1.
         25    2    1    2    0    0  0.10333053238E+03  0.15348788356E+02 -0.20997391218E+03  0.26575762115E+03  0.12500114071E+03 0.  0.
          2    1    1    2  501    0  0.36373014339E+02 -0.18928167747E+01 -0.26602422426E+03  0.26850599029E+03  0.00000000000E+00 0. -1.
          1    1    1    2  502    0 -0.13970354672E+03 -0.13455971581E+02  0.16809208621E+04  0.16867700165E+04  0.00000000000E+00 0. -1.
         22    1    3    3    0    0  0.18643919402E+02  0.45376466439E+01  0.15497006207E+02  0.24664613703E+02  0.00000000000E+00 0. -1.
         22    1    3    3    0    0  0.84686612975E+02  0.10811141712E+02 -0.22547091839E+03  0.24109300745E+03  0.00000000000E+00 0. -1.
</event>
<event>
 7    1  0.6330892E-006  0.3570934E+02  0.7818608E-02  0.1630143E+00
          2   -1    0    0  502    0  0.00000000000E+00  0.00000000000E+00  0.50280076330E+03  0.50280076330E+03  0.00000000000E+00 0. -1.
          1   -1    0    0  501    0 -0.00000000000E+00 -0.00000000000E+00 -0.56103885453E+02  0.56103885453E+02  0.00000000000E+00 0. -1.
         25    2    1    2    0    0  0.36014159095E+02  0.38074671550E+02  0.12997225081E+03  0.18779552643E+03  0.12501069353E+03 0.  0.
          2    1    1    2  501    0 -0.16624957932E+02 -0.30395490824E+02 -0.15696188296E+02  0.38034792174E+02  0.00000000000E+00 0. -1.
          1    1    1    2  502    0 -0.19389201163E+02 -0.76791807258E+01  0.33242081533E+03  0.33307433015E+03  0.00000000000E+00 0. -1.
         22    1    3    3    0    0 -0.28992789317E+01 -0.42214011230E+02  0.21876511294E+02  0.47634129664E+02  0.00000000000E+00 0.  1.
         22    1    3    3    0    0  0.38913438027E+02  0.80288682781E+02  0.10809573952E+03  0.14016139677E+03  0.00000000000E+00 0.  1.
</event>
<event>
 7    1  0.6330892E-006  0.8351993E+02  0.7818608E-02  0.1475992E+00
          2   -1    0    0  502    0  0.00000000000E+00  0.00000000000E+00  0.39960162440E+03  0.39960162440E+03  0.00000000000E+00 0. -1.
          1   -1    0    0  501    0 -0.00000000000E+00 -0.00000000000E+00 -0.14436498847E+04  0.14436498847E+04  0.00000000000E+00 0. -1.
         25    2    1    2    0    0  0.63571593031E+02  0.39564831519E+02  0.12187067103E+03  0.18996813422E+03  0.12501483204E+03 0.  0.
          2    1    1    2  501    0 -0.51027227957E+01  0.23413240232E+02 -0.14019192693E+04  0.14021240513E+04  0.00000000000E+00 0. -1.
          1    1    1    2  502    0 -0.58468870236E+02 -0.62978071751E+02  0.23600033797E+03  0.25115932359E+03  0.00000000000E+00 0. -1.
         22    1    3    3    0    0  0.67967797610E+01  0.26203735312E+02 -0.21897921659E+02  0.34818830141E+02  0.00000000000E+00 0. -1.
         22    1    3    3    0    0  0.56774813270E+02  0.13361096207E+02  0.14376859269E+03  0.15514930408E+03  0.00000000000E+00 0. -1.
</event>
<event>
 7    1  0.6330892E-006  0.8909166E+02  0.7818608E-02  0.1489468E+00
          2   -1    0    0  502    0  0.00000000000E+00  0.00000000000E+00  0.52148375309E+03  0.52148375309E+03  0.00000000000E+00 0. -1.
          1   -1    0    0  501    0 -0.00000000000E+00 -0.00000000000E+00 -0.36130596896E+03  0.36130596896E+03  0.00000000000E+00 0. -1.
         25    2    1    2    0    0 -0.72635406540E+02 -0.46498055829E+01  0.58693446618E+02  0.15610051648E+03  0.12499971038E+03 0.  0.
          2    1    1    2  501    0  0.88362165282E+02  0.17693019260E+02 -0.30584645300E+03  0.31884630780E+03  0.00000000000E+00 0. -1.
          1    1    1    2  502    0 -0.15726758742E+02 -0.13043213677E+02  0.40733079051E+03  0.40784289777E+03  0.00000000000E+00 0. -1.
         22    1    3    3    0    0  0.20351740287E+00 -0.48441984076E+02 -0.66476420031E+01  0.48896404620E+02  0.00000000000E+00 0. -1.
         22    1    3    3    0    0 -0.72838923943E+02  0.43792178493E+02  0.65341088621E+02  0.10720411186E+03  0.00000000000E+00 0. -1.
</event>
<event>
 7    1  0.6330892E-006  0.7345624E+02  0.7818608E-02  0.1451332E+00
          2   -1    0    0  502    0  0.00000000000E+00  0.00000000000E+00  0.66995099789E+03  0.66995099789E+03  0.00000000000E+00 0. -1.
          1   -1    0    0  501    0 -0.00000000000E+00 -0.00000000000E+00 -0.74559349274E+02  0.74559349274E+02  0.00000000000E+00 0. -1.
         25    2    1    2    0    0  0.50505295173E+02 -0.23845670325E+02  0.39243142888E+03  0.41562065966E+03  0.12497481958E+03 0.  0.
          2    1    1    2  501    0 -0.49000534622E+02  0.56371909087E+02 -0.39335162046E+02  0.84416227708E+02  0.00000000000E+00 0. -1.
          1    1    1    2  502    0 -0.15047605512E+01 -0.32526238762E+02  0.24229538179E+03  0.24447345980E+03  0.00000000000E+00 0. -1.
         22    1    3    3    0    0  0.32878706150E+02 -0.45167573747E+01  0.38760101323E+03  0.38901922301E+03  0.00000000000E+00 0.  1.
         22    1    3    3    0    0  0.17626589023E+02 -0.19328912950E+02  0.48304156511E+01  0.26601436649E+02  0.00000000000E+00 0.  1.
</event>
<event>
 7    1  0.6330892E-006  0.4460619E+02  0.7818608E-02  0.1506961E+00
          2   -1    0    0  502    0  0.00000000000E+00  0.00000000000E+00  0.40427487480E+03  0.40427487480E+03  0.00000000000E+00 0. -1.
          1   -1    0    0  501    0 -0.00000000000E+00 -0.00000000000E+00 -0.12820456924E+04  0.12820456924E+04  0.00000000000E+00 0. -1.
         25    2    1    2    0    0  0.19592406621E+02 -0.47937740333E+01 -0.12978826291E+03  0.18131585673E+03  0.12499441606E+03 0.  0.
          2    1    1    2  501    0  0.15611233354E+02  0.32633878202E+02 -0.11248713788E+04  0.11254529309E+04  0.00000000000E+00 0. -1.
          1    1    1    2  502    0 -0.35203639975E+02 -0.27840104169E+02  0.37688882413E+03  0.37955177964E+03  0.00000000000E+00 0. -1.
         22    1    3    3    0    0 -0.34340420225E+02 -0.12834516455E+02 -0.12056106884E+03  0.12601174784E+03  0.00000000000E+00 0. -1.
         22    1    3    3    0    0  0.53932826847E+02  0.80407424215E+01 -0.92271940762E+01  0.55304108897E+02  0.00000000000E+00 0. -1.
</event>
<event>
 7    1  0.6330892E-006  0.6469252E+02  0.7818608E-02  0.1401411E+00
          2   -1    0    0  502    0  0.00000000000E+00  0.00000000000E+00  0.56157187584E+03  0.56157187584E+03  0.00000000000E+00 0. -1.
          1   -1    0    0  501    0 -0.00000000000E+00 -0.00000000000E+00 -0.72220170169E+02  0.72220170169E+02  0.00000000000E+00 0. -1.
         25    2    1    2    0    0  0.19396085387E+02 -0.63088683178E+02  0.72821154871E+02  0.15901144432E+03  0.12500131501E+03 0.  0.
          2    1    1    2  501    0  0.34660974198E+02  0.61141215091E+02  0.17939475087E+02  0.72535895125E+02  0.00000000000E+00 0. -1.
          1    1    1    2  502    0 -0.54057059585E+02  0.19474680869E+01  0.39859107572E+03  0.40224470657E+03  0.00000000000E+00 0. -1.
         22    1    3    3    0    0  0.18733592558E+02  0.36232638121E+02  0.31046179683E+02  0.51260285097E+02  0.00000000000E+00 0.  1.
         22    1    3    3    0    0  0.66249282841E+00 -0.99321321299E+02  0.41774975187E+02  0.10775115922E+03  0.00000000000E+00 0.  1.
</event>
<event>
 7    1  0.6330892E-006  0.4513321E+02  0.7818608E-02  0.1486912E+00
          2   -1    0    0  502    0  0.00000000000E+00  0.00000000000E+00  0.40018150192E+03  0.40018150192E+03  0.00000000000E+00 0. -1.
          1   -1    0    0  501    0 -0.00000000000E+00 -0.00000000000E+00 -0.44723265650E+02  0.44723265650E+02  0.00000000000E+00 0. -1.
         25    2    1    2    0    0  0.58335953389E+02 -0.10531250557E+02  0.22161125644E+03  0.26125044168E+03  0.12500501431E+03 0.  0.
          2    1    1    2  501    0 -0.20801824094E+02  0.35398791279E+02 -0.14279990369E+01  0.41083202052E+02  0.00000000000E+00 0. -1.
          1    1    1    2  502    0 -0.37534129295E+02 -0.24867540721E+02  0.13527497887E+03  0.14257112384E+03  0.00000000000E+00 0. -1.
         22    1    3    3    0    0 -0.52552619591E+01  0.38861996888E+01  0.18758939733E+03  0.18770322937E+03  0.00000000000E+00 0.  1.
         22    1    3    3    0    0  0.63591215348E+02 -0.14417450246E+02  0.34021859105E+02  0.73547212306E+02  0.00000000000E+00 0.  1.
</event>
<event>
 7    1  0.6330892E-006  0.5882553E+02  0.7818608E-02  0.1428833E+00
          2   -1    0    0  502    0  0.00000000000E+00  0.00000000000E+00  0.27410209468E+03  0.27410209468E+03  0.00000000000E+00 0. -1.
          1   -1    0    0  501    0 -0.00000000000E+00 -0.00000000000E+00 -0.13294936024E+04  0.13294936024E+04  0.00000000000E+00 0. -1.
         25    2    1    2    0    0  0.41070905139E+02 -0.18406258373E+02  0.94164037804E+02  0.16283987921E+03  0.12499740258E+03 0.  0.
          2    1    1    2  501    0  0.17827099156E+02  0.44678114388E+02 -0.12875429955E+04  0.12884412694E+04  0.00000000000E+00 0. -1.
          1    1    1    2  502    0 -0.58898004295E+02 -0.26271856015E+02  0.13798744998E+03  0.15231454849E+03  0.00000000000E+00 0. -1.
         22    1    3    3    0    0 -0.31068376544E+01 -0.52685539938E+02  0.92974836095E+02  0.10690995606E+03  0.00000000000E+00 0. -1.
         22    1    3    3    0    0  0.44177742793E+02  0.34279281565E+02  0.11892017092E+01  0.55929923150E+02  0.00000000000E+00 0. -1.
</event>
<event>
 7    1  0.6330892E-006  0.7783822E+02  0.7818608E-02  0.1399171E+00
          2   -1    0    0  502    0  0.00000000000E+00  0.00000000000E+00  0.36000925376E+03  0.36000925376E+03  0.00000000000E+00 0. -1.
          1   -1    0    0  501    0 -0.00000000000E+00 -0.00000000000E+00 -0.35283156401E+03  0.35283156401E+03  0.00000000000E+00 0. -1.
         25    2    1    2    0    0 -0.47346844430E+02 -0.78974449301E+02  0.28814802612E+03  0.32731211302E+03  0.12500098821E+03 0.  0.
          2    1    1    2  501    0  0.67854920083E+02  0.38066325143E+02 -0.31755121226E+03  0.32694358488E+03  0.00000000000E+00 0. -1.
          1    1    1    2  502    0 -0.20508075653E+02  0.40908124158E+02  0.36580875891E+02  0.58585119869E+02  0.00000000000E+00 0. -1.
         22    1    3    3    0    0  0.23062383488E+02  0.20797037749E+02  0.39052623516E+02  0.49894866618E+02  0.00000000000E+00 0. -1.
         22    1    3    3    0    0 -0.70409227918E+02 -0.99771487050E+02  0.24909540260E+03  0.27741724640E+03  0.00000000000E+00 0. -1.
</event>
<event>
 7    1  0.6330892E-006  0.1260700E+03  0.7818608E-02  0.1324103E+00
          2   -1    0    0  502    0  0.00000000000E+00  0.00000000000E+00  0.13262279189E+04  0.13262279189E+04  0.00000000000E+00 0. -1.
          1   -1    0    0  501    0 -0.00000000000E+00 -0.00000000000E+00 -0.68743420396E+03  0.68743420396E+03  0.00000000000E+00 0. -1.
         25    2    1    2    0    0 -0.80808153427E+02 -0.18270828304E+02  0.15660638194E+03  0.21682865481E+03  0.12500130342E+03 0.  0.
          2    1    1    2  501    0 -0.39488490816E+02 -0.35404761945E+02 -0.65243644790E+03  0.65458853994E+03  0.00000000000E+00 0. -1.
          1    1    1    2  502    0  0.12029664424E+03  0.53675590249E+02  0.11346237809E+04  0.11422449281E+04  0.00000000000E+00 0. -1.
         22    1    3    3    0    0  0.15909118442E+02 -0.85501038018E+01 -0.12368031088E+02  0.21890009539E+02  0.00000000000E+00 0.  1.
         22    1    3    3    0    0 -0.96717271869E+02 -0.97207245018E+01  0.16897441303E+03  0.19493864527E+03  0.00000000000E+00 0.  1.
</event>
<event>
 7    1  0.6330892E-006  0.1188595E+03  0.7818608E-02  0.1312628E+00
          2   -1    0    0  502    0  0.00000000000E+00  0.00000000000E+00  0.24297425860E+03  0.24297425860E+03  0.00000000000E+00 0. -1.
          1   -1    0    0  501    0 -0.00000000000E+00 -0.00000000000E+00 -0.10677643181E+04  0.10677643181E+04  0.00000000000E+00 0. -1.
         25    2    1    2    0    0 -0.43116090466E+02 -0.40822367554E+02  0.20837140623E+02  0.13994491769E+03  0.12499972243E+03 0.  0.
          2    1    1    2  501    0  0.84291102858E+02  0.87632851061E+02 -0.99840697573E+03  0.10057837719E+04  0.00000000000E+00 0. -1.
          1    1    1    2  502    0 -0.41175012392E+02 -0.46810483507E+02  0.15277977561E+03  0.16500988712E+03  0.00000000000E+00 0. -1.
         22    1    3    3    0    0  0.29847430370E+02 -0.56340840013E+02  0.11074060861E+02  0.64713168498E+02  0.00000000000E+00 0. -1.
         22    1    3    3    0    0 -0.72963520836E+02  0.15518472459E+02  0.97630797619E+01  0.75231749194E+02  0.00000000000E+00 0. -1.
</event>
<event>
 7    1  0.6330892E-006  0.5495125E+02  0.7818608E-02  0.1501642E+00
          2   -1    0    0  502    0  0.00000000000E+00  0.00000000000E+00  0.26897828886E+03  0.26897828886E+03  0.00000000000E+00 0. -1.
          1   -1    0    0  501    0 -0.00000000000E+00 -0.00000000000E+00 -0.87104974185E+03  0.87104974185E+03  0.00000000000E+00 0. -1.
         25    2    1    2    0    0  0.66224338106E+02  0.10544821568E+02 -0.15273494180E+03  0.20844612694E+03  0.12499987668E+03 0.  0.
          2    1    1    2  501    0 -0.21639923709E+02  0.21425178992E+02 -0.68699688253E+03  0.68767146313E+03  0.00000000000E+00 0. -1.
          1    1    1    2  502    0 -0.44584414396E+02 -0.31970000560E+02  0.23766037135E+03  0.24391044064E+03  0.00000000000E+00 0. -1.
         22    1    3    3    0    0  0.83938493583E+02 -0.19163777846E+02 -0.15099049381E+03  0.17381326275E+03  0.00000000000E+00 0.  1.
         22    1    3    3    0    0 -0.17714155477E+02  0.29708599414E+02 -0.17444479917E+01  0.34632864193E+02  0.00000000000E+00 0.  1.
</event>
<event>
 7    1  0.6330892E-006  0.3631395E+02  0.7818608E-02  0.1550799E+00
          2   -1    0    0  502    0  0.00000000000E+00  0.00000000000E+00  0.23178675569E+03  0.23178675569E+03  0.00000000000E+00 0. -1.
          1   -1    0    0  501    0 -0.00000000000E+00 -0.00000000000E+00 -0.10474331679E+04  0.10474331679E+04  0.00000000000E+00 0. -1.
         25    2    1    2    0    0  0.51257279920E+02  0.14738838894E+02 -0.78636451866E+03  0.79802202520E+03  0.12500181751E+03 0.  0.
          2    1    1    2  501    0 -0.17560723842E+02 -0.28246798861E+02 -0.25268487288E+03  0.25486448487E+03  0.00000000000E+00 0. -1.
          1    1    1    2  502    0 -0.33696556078E+02  0.13507959967E+02  0.22340297936E+03  0.22633341349E+03  0.00000000000E+00 0. -1.
         22    1    3    3    0    0  0.40581443353E+02  0.47356377539E+02 -0.17653208711E+03  0.18722461862E+03  0.00000000000E+00 0. -1.
         22    1    3    3    0    0  0.10675836567E+02 -0.32617538645E+02 -0.60983243155E+03  0.61079740658E+03  0.00000000000E+00 0. -1.
</event>
<event>
 7    1  0.6330892E-006  0.1055732E+03  0.7818608E-02  0.1299678E+00
          2   -1    0    0  502    0  0.00000000000E+00  0.00000000000E+00  0.11677837367E+03  0.11677837367E+03  0.00000000000E+00 0. -1.
          1   -1    0    0  501    0 -0.00000000000E+00 -0.00000000000E+00 -0.44697151364E+03  0.44697151364E+03  0.00000000000E+00 0. -1.
         25    2    1    2    0    0  0.99237355092E+02  0.67134181674E+00 -0.17097757811E+03  0.23389492934E+03  0.12500000964E+03 0.  0.
          2    1    1    2  501    0 -0.88519993183E+02  0.77595520194E+02 -0.20656674847E+03  0.23775339223E+03  0.00000000000E+00 0. -1.
          1    1    1    2  502    0 -0.10717361909E+02 -0.78266862011E+02  0.47351186613E+02  0.92101565725E+02  0.00000000000E+00 0. -1.
         22    1    3    3    0    0 -0.13230293138E+02 -0.16987425125E+02  0.69823515144E+01  0.22635514166E+02  0.00000000000E+00 0.  1.
         22    1    3    3    0    0  0.11246764823E+03  0.17658766942E+02 -0.17795992963E+03  0.21125941518E+03  0.00000000000E+00 0.  1.
</event>
<event>
 7    1  0.6330892E-006  0.1289942E+03  0.7818608E-02  0.1339551E+00
          2   -1    0    0  502    0  0.00000000000E+00  0.00000000000E+00  0.12879830636E+04  0.12879830636E+04  0.00000000000E+00 0. -1.
          1   -1    0    0  501    0 -0.00000000000E+00 -0.00000000000E+00 -0.51868695803E+02  0.51868695803E+02  0.00000000000E+00 0. -1.
         25    2    1    2    0    0 -0.33020659676E+02  0.15522006194E+03  0.78102239212E+03  0.80672422252E+03  0.12499745037E+03 0.  0.
          2    1    1    2  501    0  0.52117863093E+02 -0.11418081472E+03  0.66754327897E+02  0.14216072030E+03  0.00000000000E+00 0. -1.
          1    1    1    2  502    0 -0.19097203417E+02 -0.41039247223E+02  0.38833764773E+03  0.39096681654E+03  0.00000000000E+00 0. -1.
         22    1    3    3    0    0  0.87254735500E+01  0.11786777663E+02  0.36281832625E+01  0.15107141693E+02  0.00000000000E+00 0.  1.
         22    1    3    3    0    0 -0.41746133226E+02  0.14343328428E+03  0.77739420886E+03  0.79161708082E+03  0.00000000000E+00 0.  1.
</event>
<event>
 7    1  0.6330892E-006  0.6818726E+02  0.7818608E-02  0.1446929E+00
          2   -1    0    0  502    0  0.00000000000E+00  0.00000000000E+00  0.11528435784E+04  0.11528435784E+04  0.00000000000E+00 0. -1.
          1   -1    0    0  501    0 -0.00000000000E+00 -0.00000000000E+00 -0.84791361912E+03  0.84791361912E+03  0.00000000000E+00 0. -1.
         25    2    1    2    0    0  0.73631910383E+02 -0.47589407093E+01  0.29726698369E+03  0.33081194685E+03  0.12499831536E+03 0.  0.
          2    1    1    2  501    0 -0.57245617450E+02  0.37077286622E+02 -0.82934927977E+03  0.83214903339E+03  0.00000000000E+00 0. -1.
          1    1    1    2  502    0 -0.16386292932E+02 -0.32318345913E+02  0.83701225538E+03  0.83779621731E+03  0.00000000000E+00 0. -1.
         22    1    3    3    0    0  0.75309958537E+02  0.48608308187E+02  0.21249492578E+03  0.23062621482E+03  0.00000000000E+00 0. -1.
         22    1    3    3    0    0 -0.16780481540E+01 -0.53367248897E+02  0.84772057916E+02  0.10018573204E+03  0.00000000000E+00 0. -1.
</event>
<event>
 7    1  0.6330892E-006  0.9092813E+02  0.7818608E-02  0.1419698E+00
          2   -1    0    0  502    0  0.00000000000E+00  0.00000000000E+00  0.34233536065E+03  0.34233536065E+03  0.00000000000E+00 0. -1.
          1   -1    0    0  501    0 -0.00000000000E+00 -0.00000000000E+00 -0.18056673917E+03  0.18056673917E+03  0.00000000000E+00 0. -1.
         25    2    1    2    0    0 -0.40037933428E+01 -0.73803255403E+02  0.11413396139E+03  0.18470078856E+03  0.12499947712E+03 0.  0.
          2    1    1    2  501    0  0.34992405160E+02  0.86185345013E+02 -0.12866713562E+03  0.15876905839E+03  0.00000000000E+00 0. -1.
          1    1    1    2  502    0 -0.30988611817E+02 -0.12382089609E+02  0.17630179570E+03  0.17943225288E+03  0.00000000000E+00 0. -1.
         22    1    3    3    0    0  0.16838870806E+02 -0.74984089787E+01 -0.23884206468E+02  0.30170002085E+02  0.00000000000E+00 0. -1.
         22    1    3    3    0    0 -0.20842664149E+02 -0.66304846425E+02  0.13801816786E+03  0.15453078647E+03  0.00000000000E+00 0. -1.
</event>
<event>
 7    1  0.6330892E-006  0.2178945E+03  0.7818608E-02  0.1301208E+00
          2   -1    0    0  502    0  0.00000000000E+00  0.00000000000E+00  0.10543422539E+04  0.10543422539E+04  0.00000000000E+00 0. -1.
          1   -1    0    0  501    0 -0.00000000000E+00 -0.00000000000E+00 -0.88333994020E+03  0.88333994020E+03  0.00000000000E+00 0. -1.
         25    2    1    2    0    0  0.12030325340E+03  0.18307957017E+03  0.50298269709E+03  0.56267861894E+03  0.12499853138E+03 0.  0.
          2    1    1    2  501    0 -0.33516517908E+02  0.17347107001E+02 -0.83017691976E+03  0.83103429364E+03  0.00000000000E+00 0. -1.
          1    1    1    2  502    0 -0.86786735489E+02 -0.20042667717E+03  0.49819653639E+03  0.54396928153E+03  0.00000000000E+00 0. -1.
         22    1    3    3    0    0  0.99586906911E+02  0.10049569999E+03  0.18159207023E+03  0.23020125481E+03  0.00000000000E+00 0.  1.
         22    1    3    3    0    0  0.20716346487E+02  0.82583870181E+02  0.32139062686E+03  0.33247736413E+03  0.00000000000E+00 0.  1.
</event>
<event>
 7    1  0.6330892E-006  0.1064736E+03  0.7818608E-02  0.1458242E+00
          2   -1    0    0  502    0  0.00000000000E+00  0.00000000000E+00  0.74070623066E+03  0.74070623066E+03  0.00000000000E+00 0. -1.
          1   -1    0    0  501    0 -0.00000000000E+00 -0.00000000000E+00 -0.44114374776E+02  0.44114374776E+02  0.00000000000E+00 0. -1.
         25    2    1    2    0    0  0.35089805440E+01 -0.89338343941E+02  0.17934858435E+03  0.23618847335E+03  0.12500171035E+03 0.  0.
          2    1    1    2  501    0  0.71404113200E+01 -0.20127215698E+02  0.16287678463E+01  0.21418290554E+02  0.00000000000E+00 0. -1.
          1    1    1    2  502    0 -0.10649391864E+02  0.10946555964E+03  0.51561450369E+03  0.52721384154E+03  0.00000000000E+00 0. -1.
         22    1    3    3    0    0 -0.41244016602E+02  0.11450935572E+02  0.41071398131E+02  0.59321602941E+02  0.00000000000E+00 0. -1.
         22    1    3    3    0    0  0.44752997146E+02 -0.10078927951E+03  0.13827718622E+03  0.17686687041E+03  0.00000000000E+00 0. -1.
</event>
<event>
 7    1  0.6330892E-006  0.8425773E+02  0.7818608E-02  0.1322373E+00
          2   -1    0    0  502    0  0.00000000000E+00  0.00000000000E+00  0.19426348164E+04  0.19426348164E+04  0.00000000000E+00 0. -1.
          1   -1    0    0  501    0 -0.00000000000E+00 -0.00000000000E+00 -0.13965120610E+03  0.13965120610E+03  0.00000000000E+00 0. -1.
         25    2    1    2    0    0  0.21434094359E+02  0.26463129595E+02  0.45986474026E+03  0.47776574622E+03  0.12499924518E+03 0.  0.
          2    1    1    2  501    0 -0.82379734804E+02  0.26257987192E+02 -0.11516586379E+03  0.14401068981E+03  0.00000000000E+00 0. -1.
          1    1    1    2  502    0  0.60945640445E+02 -0.52721116786E+02  0.14582847338E+04  0.14605095864E+04  0.00000000000E+00 0. -1.
         22    1    3    3    0    0 -0.28856240586E+02 -0.76475339162E+01  0.25765340058E+02  0.39433743724E+02  0.00000000000E+00 0. -1.
         22    1    3    3    0    0  0.50290334945E+02  0.34110663511E+02  0.43409940020E+03  0.43833200249E+03  0.00000000000E+00 0. -1.
</event>
<event>
 7    1  0.6330892E-006  0.3603892E+02  0.7818608E-02  0.1540773E+00
          2   -1    0    0  502    0  0.00000000000E+00  0.00000000000E+00  0.12507508617E+04  0.12507508617E+04  0.00000000000E+00 0. -1.
          1   -1    0    0  501    0 -0.00000000000E+00 -0.00000000000E+00 -0.12533665326E+03  0.12533665326E+03  0.00000000000E+00 0. -1.
         25    2    1    2    0    0  0.84518474075E-02 -0.73011974010E+01  0.74548554410E+03  0.75593171217E+03  0.12502299567E+03 0.  0.
          2    1    1    2  501    0 -0.35725732853E+02  0.56268275061E+01 -0.11673379444E+03  0.12220788821E+03  0.00000000000E+00 0. -1.
          1    1    1    2  502    0  0.35717281005E+02  0.16743698949E+01  0.49666245875E+03  0.49794791455E+03  0.00000000000E+00 0. -1.
         22    1    3    3    0    0  0.24735887030E+02  0.30275851696E+01  0.71462721898E+03  0.71506160048E+03  0.00000000000E+00 0.  1.
         22    1    3    3    0    0 -0.24727435182E+02 -0.10328782571E+02  0.30858325125E+02  0.40870111691E+02  0.00000000000E+00 0.  1.
</event>
<event>
 7    1  0.6330892E-006  0.8548039E+02  0.7818608E-02  0.1366759E+00
          2   -1    0    0  502    0  0.00000000000E+00  0.00000000000E+00  0.89842265250E+03  0.89842265250E+03  0.00000000000E+00 0. -1.
          1   -1    0    0  501    0 -0.00000000000E+00 -0.00000000000E+00 -0.53067041642E+03  0.53067041642E+03  0.00000000000E+00 0. -1.
         25    2    1    2    0    0  0.15460446511E+01 -0.55224360493E+02 -0.17995105233E+03  0.22596144879E+03  0.12499629940E+03 0.  0.
          2    1    1    2  501    0  0.42664921144E+02  0.86605018929E+02 -0.31973904164E+03  0.33399667596E+03  0.00000000000E+00 0. -1.
          1    1    1    2  502    0 -0.44210965795E+02 -0.31380658436E+02  0.86744233005E+03  0.86913494417E+03  0.00000000000E+00 0. -1.
         22    1    3    3    0    0 -0.53115662667E+02 -0.60113829863E+02 -0.89724974768E+02  0.12035579445E+03  0.00000000000E+00 0. -1.
         22    1    3    3    0    0  0.54661707318E+02  0.48894693697E+01 -0.90226077557E+02  0.10560565434E+03  0.00000000000E+00 0. -1.
</event>
<event>
 7    1  0.6330892E-006  0.9960498E+02  0.7818608E-02  0.1376739E+00
          2   -1    0    0  502    0  0.00000000000E+00  0.00000000000E+00  0.93366574150E+03  0.93366574150E+03  0.00000000000E+00 0. -1.
          1   -1    0    0  501    0 -0.00000000000E+00 -0.00000000000E+00 -0.15416519423E+03  0.15416519423E+03  0.00000000000E+00 0. -1.
         25    2    1    2    0    0 -0.89577995282E+02  0.26486831243E+02  0.51327201554E+03  0.53647048528E+03  0.12500660052E+03 0.  0.
          2    1    1    2  501    0  0.74683133399E+02 -0.66662523590E+02 -0.12367305883E+03  0.15911155818E+03  0.00000000000E+00 0. -1.
          1    1    1    2  502    0  0.14894861883E+02  0.40175692346E+02  0.38990159056E+03  0.39224889227E+03  0.00000000000E+00 0. -1.
         22    1    3    3    0    0 -0.16852124189E+02  0.36815433159E+02  0.39618979929E+03  0.39825334559E+03  0.00000000000E+00 0.  1.
         22    1    3    3    0    0 -0.72725871093E+02 -0.10328601915E+02  0.11708221625E+03  0.13821713969E+03  0.00000000000E+00 0.  1.
</event>
<event>
 7    1  0.1189740E-005  0.1103516E+03  0.7818608E-02  0.1318509E+00
          2   -1    0    0  502    0  0.00000000000E+00  0.00000000000E+00  0.15385024099E+04  0.15385024099E+04  0.00000000000E+00 0. -1.
          1   -1    0    0  501    0 -0.00000000000E+00 -0.00000000000E+00 -0.15626229110E+04  0.15626229110E+04  0.00000000000E+00 0. -1.
         25    2    1    2    0    0  0.17022167731E+03 -0.60408798684E+01 -0.67652960949E+03  0.70875158891E+03  0.12499836240E+03 0.  0.
          2    1    1    2  501    0 -0.61990182657E+02 -0.14612672049E+02 -0.86681879364E+03  0.86915541415E+03  0.00000000000E+00 0. -1.
          1    1    1    2  502    0 -0.10823149465E+03  0.20653551917E+02  0.15192279021E+04  0.15232183179E+04  0.00000000000E+00 0. -1.
         22    1    3    3    0    0  0.14412617085E+03  0.80421645607E+01 -0.65830568510E+03  0.67394614367E+03  0.00000000000E+00 0. -1.
         22    1    3    3    0    0  0.26095506462E+02 -0.14083044429E+02 -0.18223924397E+02  0.34805445239E+02  0.00000000000E+00 0. -1.
</event>
<event>
 7    1  0.6330892E-006  0.2110918E+03  0.7818608E-02  0.1375936E+00
          2   -1    0    0  502    0  0.00000000000E+00  0.00000000000E+00  0.26010950288E+03  0.26010950288E+03  0.00000000000E+00 0. -1.
          1   -1    0    0  501    0 -0.00000000000E+00 -0.00000000000E+00 -0.10570965309E+04  0.10570965309E+04  0.00000000000E+00 0. -1.
         25    2    1    2    0    0  0.14775109166E+03 -0.12726572766E+03 -0.31047391069E+03  0.38735733440E+03  0.12499881906E+03 0.  0.
          2    1    1    2  501    0  0.19680382335E+02 -0.51832931649E+01 -0.65658536617E+03  0.65690069801E+03  0.00000000000E+00 0. -1.
          1    1    1    2  502    0 -0.16743147400E+03  0.13244902082E+03  0.17007224887E+03  0.27294800135E+03  0.00000000000E+00 0. -1.
         22    1    3    3    0    0  0.89237813273E+01  0.22264489234E+02 -0.57845365468E+02  0.62621303565E+02  0.00000000000E+00 0. -1.
         22    1    3    3    0    0  0.13882731033E+03 -0.14953021689E+03 -0.25262854522E+03  0.32473603083E+03  0.00000000000E+00 0. -1.
</event>
<event>
 7    1  0.6330892E-006  0.9879823E+02  0.7818608E-02  0.1301496E+00
          2   -1    0    0  502    0  0.00000000000E+00  0.00000000000E+00  0.16543814878E+02  0.16543814878E+02  0.00000000000E+00 0. -1.
          1   -1    0    0  501    0 -0.00000000000E+00 -0.00000000000E+00 -0.36887260885E+04  0.36887260885E+04  0.00000000000E+00 0. -1.
         25    2    1    2    0    0  0.63895137499E+02 -0.30764889657E+02 -0.98702036893E+03  0.99742947009E+03  0.12500908797E+03 0.  0.
          2    1    1    2  501    0 -0.29328350395E+02  0.10623810297E+03 -0.25253569481E+04  0.25277607486E+04  0.00000000000E+00 0. -1.
          1    1    1    2  502    0 -0.34566787104E+02 -0.75473213317E+02 -0.15980495653E+03  0.18007968467E+03  0.00000000000E+00 0. -1.
         22    1    3    3    0    0  0.27002646337E+02  0.43867414126E+02 -0.22227643836E+03  0.22816728069E+03  0.00000000000E+00 0. -1.
         22    1    3    3    0    0  0.36892491162E+02 -0.74632303783E+02 -0.76474393058E+03  0.76926218939E+03  0.00000000000E+00 0. -1.
</event>
<event>
 7    1  0.6330892E-006  0.1153882E+03  0.7818608E-02  0.1297923E+00
          2   -1    0    0  502    0  0.00000000000E+00  0.00000000000E+00  0.48526466228E+03  0.48526466228E+03  0.00000000000E+00 0. -1.
          1   -1    0    0  501    0 -0.00000000000E+00 -0.00000000000E+00 -0.10805166676E+04  0.10805166676E+04  0.00000000000E+00 0. -1.
         25    2    1    2    0    0 -0.83857574875E+02  0.82581091970E+02 -0.19730996435E+02  0.17281135783E+03  0.12499089391E+03 0.  0.
          2    1    1    2  501    0  0.17891997574E+02 -0.11490264066E+03 -0.97747037060E+03  0.98436327939E+03  0.00000000000E+00 0. -1.
          1    1    1    2  502    0  0.65965577301E+02  0.32321548692E+02  0.40194936171E+03  0.40860669265E+03  0.00000000000E+00 0. -1.
         22    1    3    3    0    0 -0.38561336223E+02  0.47574660985E+02 -0.72535390334E+02  0.94930015644E+02  0.00000000000E+00 0.  1.
         22    1    3    3    0    0 -0.45296238652E+02  0.35006430984E+02  0.52804393899E+02  0.77881342191E+02  0.00000000000E+00 0.  1.
</event>
<event>
 7    1  0.6330892E-006  0.9570032E+02  0.7818608E-02  0.1309585E+00
          2   -1    0    0  502    0  0.00000000000E+00  0.00000000000E+00  0.17424586378E+03  0.17424586378E+03  0.00000000000E+00 0. -1.
          1   -1    0    0  501    0 -0.00000000000E+00 -0.00000000000E+00 -0.93682872017E+03  0.93682872017E+03  0.00000000000E+00 0. -1.
         25    2    1    2    0    0 -0.93201983600E+02  0.14034823769E+03 -0.25266176467E+03  0.32840514397E+03  0.12501093430E+03 0.  0.
          2    1    1    2  501    0  0.42652544878E+02 -0.78867470019E+02 -0.63123750102E+03  0.63757360368E+03  0.00000000000E+00 0. -1.
          1    1    1    2  502    0  0.50549438722E+02 -0.61480767672E+02  0.12131640929E+03  0.14509583630E+03  0.00000000000E+00 0. -1.
         22    1    3    3    0    0  0.25726789320E+02  0.94177434931E+00 -0.41330773431E+02  0.48692786530E+02  0.00000000000E+00 0. -1.
         22    1    3    3    0    0 -0.11892877292E+03  0.13940646334E+03 -0.21133099124E+03  0.27971235744E+03  0.00000000000E+00 0. -1.
</event>
<event>
 7    1  0.6330892E-006  0.2928855E+02  0.7818608E-02  0.1656280E+00
          2   -1    0    0  502    0  0.00000000000E+00  0.00000000000E+00  0.20080857612E+04  0.20080857612E+04  0.00000000000E+00 0. -1.
          1   -1    0    0  501    0 -0.00000000000E+00 -0.00000000000E+00 -0.85053889908E+01  0.85053889908E+01  0.00000000000E+00 0. -1.
         25    2    1    2    0    0  0.27898565065E+01 -0.11684503940E+02  0.12701174356E+04  0.12763099474E+04  0.12499788289E+03 0.  0.
          2    1    1    2  501    0 -0.11988323111E+02 -0.18339037491E+02  0.18643127480E+02  0.28768148869E+02  0.00000000000E+00 0. -1.
          1    1    1    2  502    0  0.91984666042E+01  0.30023541430E+02  0.71081980914E+03  0.71151305392E+03  0.00000000000E+00 0. -1.
         22    1    3    3    0    0  0.84558159611E+01  0.55462835819E+02  0.69426309177E+03  0.69652628635E+03  0.00000000000E+00 0.  1.
         22    1    3    3    0    0 -0.56659594546E+01 -0.67147339758E+02  0.57585434379E+03  0.57978366103E+03  0.00000000000E+00 0.  1.
</event>
<event>
 7    1  0.6330892E-006  0.4892679E+02  0.7818608E-02  0.1464240E+00
          2   -1    0    0  502    0  0.00000000000E+00  0.00000000000E+00  0.97112386793E+03  0.97112386793E+03  0.00000000000E+00 0. -1.
          1   -1    0    0  501    0 -0.00000000000E+00 -0.00000000000E+00 -0.25824409809E+03  0.25824409809E+03  0.00000000000E+00 0. -1.
         25    2    1    2    0    0 -0.63347671995E+02  0.11301445147E+02  0.52023232384E+03  0.53889165460E+03  0.12498757707E+03 0.  0.
          2    1    1    2  501    0  0.34459616305E+02  0.28152122524E+02 -0.24555493130E+03  0.24955406517E+03  0.00000000000E+00 0. -1.
          1    1    1    2  502    0  0.28888055690E+02 -0.39453567671E+02  0.43820237730E+03  0.44092224625E+03  0.00000000000E+00 0. -1.
         22    1    3    3    0    0 -0.24919349027E+01  0.39120792366E+02  0.39467856895E+03  0.39662049736E+03  0.00000000000E+00 0.  1.
         22    1    3    3    0    0 -0.60855737092E+02 -0.27819347218E+02  0.12555375489E+03  0.14227115724E+03  0.00000000000E+00 0.  1.
</event>
<event>
 7    1  0.6330892E-006  0.1662369E+03  0.7818608E-02  0.1185137E+00
          2   -1    0    0  502    0  0.00000000000E+00  0.00000000000E+00  0.13560468265E+04  0.13560468265E+04  0.00000000000E+00 0. -1.
          1   -1    0    0  501    0 -0.00000000000E+00 -0.00000000000E+00 -0.23447689659E+04  0.23447689659E+04  0.00000000000E+00 0. -1.
         25    2    1    2    0    0 -0.24023227930E+03 -0.12023836231E+03 -0.25094849885E+03  0.38829433604E+03  0.12501412134E+03 0.  0.
          2    1    1    2  501    0  0.16212807950E+03 -0.19641367061E+02 -0.20168497844E+04  0.20234510990E+04  0.00000000000E+00 0. -1.
          1    1    1    2  502    0  0.78104199800E+02  0.13987972937E+03  0.12790761438E+04  0.12890703574E+04  0.00000000000E+00 0. -1.
         22    1    3    3    0    0 -0.18190376317E+03 -0.10357613296E+03 -0.25203134093E+03  0.32762294057E+03  0.00000000000E+00 0.  1.
         22    1    3    3    0    0 -0.58328516132E+02 -0.16662229350E+02  0.10828420857E+01  0.60671395468E+02  0.00000000000E+00 0.  1.
</event>
<event>
 7    1  0.6330892E-006  0.8799265E+02  0.7818608E-02  0.1426252E+00
          2   -1    0    0  502    0  0.00000000000E+00  0.00000000000E+00  0.24591327479E+03  0.24591327479E+03  0.00000000000E+00 0. -1.
          1   -1    0    0  501    0 -0.00000000000E+00 -0.00000000000E+00 -0.76439375596E+03  0.76439375596E+03  0.00000000000E+00 0. -1.
         25    2    1    2    0    0  0.73626678308E+02 -0.45368561238E+02  0.14626057512E+03  0.21094483542E+03  0.12500549448E+03 0.  0.
          2    1    1    2  501    0 -0.52690625150E+02  0.70612731478E+02 -0.72522592915E+03  0.73055807992E+03  0.00000000000E+00 0. -1.
          1    1    1    2  502    0 -0.20936053158E+02 -0.25244170240E+02  0.60484872858E+02  0.68804115412E+02  0.00000000000E+00 0. -1.
         22    1    3    3    0    0  0.75703512680E+02 -0.68944401724E+02  0.15495655437E+03  0.18573068164E+03  0.00000000000E+00 0.  1.
         22    1    3    3    0    0 -0.20768343720E+01  0.23575840486E+02 -0.86959792509E+01  0.25214153779E+02  0.00000000000E+00 0.  1.
</event>
<event>
 7    1  0.6330892E-006  0.1107295E+03  0.7818608E-02  0.1401685E+00
          2   -1    0    0  502    0  0.00000000000E+00  0.00000000000E+00  0.11806383500E+04  0.11806383500E+04  0.00000000000E+00 0. -1.
          1   -1    0    0  501    0 -0.00000000000E+00 -0.00000000000E+00 -0.72068482416E+03  0.72068482416E+03  0.00000000000E+00 0. -1.
         25    2    1    2    0    0 -0.74683719682E+02 -0.99914248594E+02  0.25641191996E+03  0.31133953014E+03  0.12499886108E+03 0.  0.
          2    1    1    2  501    0  0.31528538390E+02 -0.61143975596E+00 -0.68952293322E+03  0.69024365120E+03  0.00000000000E+00 0. -1.
          1    1    1    2  502    0  0.43155181292E+02  0.10052568835E+03  0.89306453913E+03  0.89973999286E+03  0.00000000000E+00 0. -1.
         22    1    3    3    0    0  0.50461397304E+01 -0.14752425332E+00  0.13510287807E+03  0.13519716325E+03  0.00000000000E+00 0.  1.
         22    1    3    3    0    0 -0.79729859413E+02 -0.99766724341E+02  0.12130904190E+03  0.17614236689E+03  0.00000000000E+00 0.  1.
</event>
<event>
 7    1  0.6330892E-006  0.1160989E+03  0.7818608E-02  0.1418094E+00
          2   -1    0    0  502    0  0.00000000000E+00  0.00000000000E+00  0.28160235752E+03  0.28160235752E+03  0.00000000000E+00 0. -1.
          1   -1    0    0  501    0 -0.00000000000E+00 -0.00000000000E+00 -0.22067833151E+04  0.22067833151E+04  0.00000000000E+00 0. -1.
         25    2    1    2    0    0  0.96551604476E+02 -0.28713706524E+02 -0.15306795522E+03  0.22181352596E+03  0.12499900845E+03 0.  0.
          2    1    1    2  501    0 -0.11640502746E+03  0.11220456354E+02 -0.20169359455E+04  0.20203233992E+04  0.00000000000E+00 0. -1.
          1    1    1    2  502    0  0.19853422986E+02  0.17493250169E+02  0.24482294307E+03  0.24624874753E+03  0.00000000000E+00 0. -1.
         22    1    3    3    0    0  0.83967996389E+02  0.32104385446E+00 -0.16724341467E+03  0.18713921886E+03  0.00000000000E+00 0.  1.
         22    1    3    3    0    0  0.12583608087E+02 -0.29034750378E+02  0.14175459448E+02  0.34674307096E+02  0.00000000000E+00 0.  1.
</event>
<event>
 7    1  0.6330892E-006  0.3298208E+02  0.7818608E-02  0.1597261E+00
          2   -1    0    0  502    0  0.00000000000E+00  0.00000000000E+00  0.25029301587E+04  0.25029301587E+04  0.00000000000E+00 0. -1.
          1   -1    0    0  501    0 -0.00000000000E+00 -0.00000000000E+00 -0.11938666644E+02  0.11938666644E+02  0.00000000000E+00 0. -1.
         25    2    1    2    0    0 -0.77058260331E+01 -0.48100251678E+02  0.85273361972E+03  0.86322195820E+03  0.12499803573E+03 0.  0.
          2    1    1    2  501    0 -0.13971686376E+02  0.23598286302E+02  0.22269266215E+02  0.35327147554E+02  0.00000000000E+00 0. -1.
          1    1    1    2  502    0  0.21677512409E+02  0.24501965376E+02  0.16159886061E+04  0.16163197196E+04  0.00000000000E+00 0. -1.
         22    1    3    3    0    0 -0.15304760141E+02 -0.46339476584E+02  0.10875543378E+03  0.11920288230E+03  0.00000000000E+00 0. -1.
         22    1    3    3    0    0  0.75989341084E+01 -0.17607750939E+01  0.74397818595E+03  0.74401907590E+03  0.00000000000E+00 0. -1.
</event>
<event>
 7    1  0.6330892E-006  0.8161920E+02  0.7818608E-02  0.1489434E+00
          2   -1    0    0  502    0  0.00000000000E+00  0.00000000000E+00  0.23249833578E+03  0.23249833578E+03  0.00000000000E+00 0. -1.
          1   -1    0    0  501    0 -0.00000000000E+00 -0.00000000000E+00 -0.42997041610E+03  0.42997041610E+03  0.00000000000E+00 0. -1.
         25    2    1    2    0    0  0.63625272357E+02  0.20766855999E+02  0.66429057674E+02  0.15657835109E+03  0.12499809093E+03 0.  0.
          2    1    1    2  501    0  0.14726054568E+02  0.16756334915E+02 -0.36892181284E+03  0.36959563774E+03  0.00000000000E+00 0. -1.
          1    1    1    2  502    0 -0.78351326925E+02 -0.37523190914E+02  0.10502067486E+03  0.13629476305E+03  0.00000000000E+00 0. -1.
         22    1    3    3    0    0  0.91091863710E+02 -0.11256325866E+02  0.68205413685E+02  0.11435213580E+03  0.00000000000E+00 0.  1.
         22    1    3    3    0    0 -0.27466591353E+02  0.32023181864E+02 -0.17763560112E+01  0.42226215293E+02  0.00000000000E+00 0.  1.
</event>
<event>
 7    1  0.6330892E-006  0.7487651E+02  0.7818608E-02  0.1411466E+00
          2   -1    0    0  502    0  0.00000000000E+00  0.00000000000E+00  0.22456543080E+04  0.22456543080E+04  0.00000000000E+00 0. -1.
          1   -1    0    0  501    0 -0.00000000000E+00 -0.00000000000E+00 -0.11210417325E+02  0.11210417325E+02  0.00000000000E+00 0. -1.
         25    2    1    2    0    0 -0.49613061663E+02 -0.10160477491E+03  0.16366185203E+04  0.16452742027E+04  0.12498813872E+03 0.  0.
          2    1    1    2  501    0  0.30674690254E+02  0.62787484147E+02  0.20898219438E+03  0.22035599006E+03  0.00000000000E+00 0. -1.
          1    1    1    2  502    0  0.18938371409E+02  0.38817290763E+02  0.38884317601E+03  0.39123453261E+03  0.00000000000E+00 0. -1.
         22    1    3    3    0    0 -0.81028383246E+01  0.18652437471E+02  0.67137592877E+03  0.67168385952E+03  0.00000000000E+00 0.  1.
         22    1    3    3    0    0 -0.41510223338E+02 -0.12025721238E+03  0.96524259155E+03  0.97359034317E+03  0.00000000000E+00 0.  1.
</event>
<event>
 7    1  0.6330892E-006  0.6215834E+02  0.7818608E-02  0.1412281E+00
          2   -1    0    0  502    0  0.00000000000E+00  0.00000000000E+00  0.21386126417E+04  0.21386126417E+04  0.00000000000E+00 0. -1.
          1   -1    0    0  501    0 -0.00000000000E+00 -0.00000000000E+00 -0.46580822243E+02  0.46580822243E+02  0.00000000000E+00 0. -1.
         25    2    1    2    0    0  0.13468668008E+02  0.46886426508E+01  0.43697578240E+03  0.45471982864E+03  0.12497559669E+03 0.  0.
          2    1    1    2  501    0 -0.53334559965E+02 -0.37605386567E+02 -0.87690331391E+01  0.65845549035E+02  0.00000000000E+00 0. -1.
          1    1    1    2  502    0  0.39865891957E+02  0.32916743916E+02  0.16638250702E+04  0.16646280863E+04  0.00000000000E+00 0. -1.
         22    1    3    3    0    0 -0.36077556402E+02  0.38167310390E+02  0.30939427051E+03  0.31382024836E+03  0.00000000000E+00 0. -1.
         22    1    3    3    0    0  0.49546224410E+02 -0.33478667739E+02  0.12758151189E+03  0.14089958028E+03  0.00000000000E+00 0. -1.
</event>
<event>
 7    1  0.6330892E-006  0.8937955E+02  0.7818608E-02  0.1428666E+00
          2   -1    0    0  502    0  0.00000000000E+00  0.00000000000E+00  0.15033045180E+02  0.15033045180E+02  0.00000000000E+00 0. -1.
          1   -1    0    0  501    0 -0.00000000000E+00 -0.00000000000E+00 -0.15607697959E+04  0.15607697959E+04  0.00000000000E+00 0. -1.
         25    2    1    2    0    0 -0.86457769875E+02 -0.20844825663E+02 -0.61387213595E+03  0.63275046382E+03  0.12499878974E+03 0.  0.
          2    1    1    2  501    0  0.87110986558E+01 -0.30479298543E+02 -0.79118460646E+02  0.85232632803E+02  0.00000000000E+00 0. -1.
          1    1    1    2  502    0  0.77746671219E+02  0.51324124206E+02 -0.85274615414E+03  0.85781974447E+03  0.00000000000E+00 0. -1.
         22    1    3    3    0    0 -0.57915810368E+02  0.49804085178E+02 -0.34011340595E+03  0.34858545136E+03  0.00000000000E+00 0. -1.
         22    1    3    3    0    0 -0.28541959507E+02 -0.70648910841E+02 -0.27375873000E+03  0.28416501246E+03  0.00000000000E+00 0. -1.
</event>
<event>
 7    1  0.6330892E-006  0.1918661E+03  0.7818608E-02  0.1259303E+00
          2   -1    0    0  502    0  0.00000000000E+00  0.00000000000E+00  0.20993415533E+04  0.20993415533E+04  0.00000000000E+00 0. -1.
          1   -1    0    0  501    0 -0.00000000000E+00 -0.00000000000E+00 -0.68746844162E+03  0.68746844162E+03  0.00000000000E+00 0. -1.
         25    2    1    2    0    0  0.30385301128E+02  0.13641411615E+03  0.55019497058E+03  0.58126707023E+03  0.12499929469E+03 0.  0.
          2    1    1    2  501    0 -0.80903922692E+02 -0.17546991350E+03 -0.65735678516E+03  0.68516646025E+03  0.00000000000E+00 0. -1.
          1    1    1    2  502    0  0.50518621563E+02  0.39055797350E+02  0.15190349263E+04  0.15203764645E+04  0.00000000000E+00 0. -1.
         22    1    3    3    0    0  0.32308886182E+02 -0.53707893331E+01  0.39813818970E+02  0.51554337212E+02  0.00000000000E+00 0.  1.
         22    1    3    3    0    0 -0.19235850538E+01  0.14178490548E+03  0.51038115161E+03  0.52971273302E+03  0.00000000000E+00 0.  1.
</event>
<event>
 7    1  0.6330892E-006  0.1573154E+03  0.7818608E-02  0.1405100E+00
          2   -1    0    0  502    0  0.00000000000E+00  0.00000000000E+00  0.83815761468E+03  0.83815761468E+03  0.00000000000E+00 0. -1.
          1   -1    0    0  501    0 -0.00000000000E+00 -0.00000000000E+00 -0.21994860876E+03  0.21994860876E+03  0.00000000000E+00 0. -1.
         25    2    1    2    0    0 -0.10894646590E+03 -0.10872266493E+03  0.35005668488E+03  0.40231156977E+03  0.12499986495E+03 0.  0.
          2    1    1    2  501    0  0.11946826657E+02 -0.18003660107E+02 -0.17937100957E+03  0.18066769916E+03  0.00000000000E+00 0. -1.
          1    1    1    2  502    0  0.96999639241E+02  0.12672632503E+03  0.44752333061E+03  0.47512695451E+03  0.00000000000E+00 0. -1.
         22    1    3    3    0    0 -0.81077033593E+02 -0.12611924537E+03  0.20738673561E+03  0.25590781062E+03  0.00000000000E+00 0. -1.
         22    1    3    3    0    0 -0.27869432305E+02  0.17396580438E+02  0.14266994928E+03  0.14640375915E+03  0.00000000000E+00 0. -1.
</event>
<event>
 7    1  0.6330892E-006  0.1547525E+03  0.7818608E-02  0.1299590E+00
          2   -1    0    0  502    0  0.00000000000E+00  0.00000000000E+00  0.41864680325E+03  0.41864680325E+03  0.00000000000E+00 0. -1.
          1   -1    0    0  501    0 -0.00000000000E+00 -0.00000000000E+00 -0.75100052310E+03  0.75100052310E+03  0.00000000000E+00 0. -1.
         25    2    1    2    0    0  0.72764788255E+02 -0.76417845980E+02 -0.44445020242E+03  0.47359868650E+03  0.12500132733E+03 0.  0.
          2    1    1    2  501    0  0.18367562144E+02 -0.50712153887E+02 -0.27411113398E+03  0.27936714850E+03  0.00000000000E+00 0. -1.
          1    1    1    2  502    0 -0.91132350399E+02  0.12712999987E+03  0.38620761655E+03  0.41668149135E+03  0.00000000000E+00 0. -1.
         22    1    3    3    0    0  0.84936695723E+02 -0.69519334665E+02 -0.19509216415E+03  0.22384845920E+03  0.00000000000E+00 0.  1.
         22    1    3    3    0    0 -0.12171907469E+02 -0.68985113156E+01 -0.24935803827E+03  0.24975022731E+03  0.00000000000E+00 0.  1.
</event>
<event>
 7    1  0.6330892E-006  0.8815383E+02  0.7818608E-02  0.1398648E+00
          2   -1    0    0  502    0  0.00000000000E+00  0.00000000000E+00  0.95533853296E+03  0.95533853296E+03  0.00000000000E+00 0. -1.
          1   -1    0    0  501    0 -0.00000000000E+00 -0.00000000000E+00 -0.21172000318E+04  0.21172000318E+04  0.00000000000E+00 0. -1.
         25    2    1    2    0    0 -0.89511578846E+02 -0.47505555260E+02  0.72660764921E+03  0.74421284130E+03  0.12499990693E+03 0.  0.
          2    1    1    2  501    0  0.87872168142E+02  0.69648359937E+01 -0.21055960809E+04  0.21074403628E+04  0.00000000000E+00 0. -1.
          1    1    1    2  502    0  0.16394107043E+01  0.40540719266E+02  0.21712693285E+03  0.22088536066E+03  0.00000000000E+00 0. -1.
         22    1    3    3    0    0 -0.69327519789E+02 -0.87521451642E+02  0.58904329121E+03  0.59953174096E+03  0.00000000000E+00 0. -1.
         22    1    3    3    0    0 -0.20184059057E+02  0.40015896382E+02  0.13756435800E+03  0.14468110034E+03  0.00000000000E+00 0. -1.
</event>
<event>
 7    1  0.6330892E-006  0.5809234E+02  0.7818608E-02  0.1469007E+00
          2   -1    0    0  502    0  0.00000000000E+00  0.00000000000E+00  0.15550588177E+04  0.15550588177E+04  0.00000000000E+00 0. -1.
          1   -1    0    0  501    0 -0.00000000000E+00 -0.00000000000E+00 -0.19953646211E+04  0.19953646211E+04  0.00000000000E+00 0. -1.
         25    2    1    2    0    0  0.46715857184E+02  0.14857182440E+02  0.36806878169E+03  0.39179477337E+03  0.12500163678E+03 0.  0.
          2    1    1    2  501    0  0.90060744637E+01 -0.35075067086E+02 -0.19825886589E+04  0.19829193529E+04  0.00000000000E+00 0. -1.
          1    1    1    2  502    0 -0.55721931648E+02  0.20217884646E+02  0.11742140738E+04  0.11757093126E+04  0.00000000000E+00 0. -1.
         22    1    3    3    0    0  0.28104353423E+02  0.34770174616E+01  0.36887927245E+03  0.36996467666E+03  0.00000000000E+00 0.  1.
         22    1    3    3    0    0  0.18611503761E+02  0.11380164979E+02 -0.81049075281E+00  0.21830096712E+02  0.00000000000E+00 0.  1.
</event>
<event>
 7    1  0.6330892E-006  0.5666090E+02  0.7818608E-02  0.1430340E+00
          2   -1    0    0  502    0  0.00000000000E+00  0.00000000000E+00  0.12143068379E+04  0.12143068379E+04  0.00000000000E+00 0. -1.
          1   -1    0    0  501    0 -0.00000000000E+00 -0.00000000000E+00 -0.16061558093E+03  0.16061558093E+03  0.00000000000E+00 0. -1.
         25    2    1    2    0    0 -0.11203416367E+02 -0.51264326970E+01 -0.19878179264E+02  0.12716983893E+03  0.12500091629E+03 0.  0.
          2    1    1    2  501    0  0.33940369691E+02 -0.46772398984E+02 -0.76730396022E+02  0.96058105724E+02  0.00000000000E+00 0. -1.
          1    1    1    2  502    0 -0.22736953324E+02  0.51898831681E+02  0.11502998322E+04  0.11516944742E+04  0.00000000000E+00 0. -1.
         22    1    3    3    0    0 -0.60286250370E+02  0.22902522272E+02 -0.27552466995E+02  0.70129137650E+02  0.00000000000E+00 0. -1.
         22    1    3    3    0    0  0.49082834003E+02 -0.28028954969E+02  0.76742877315E+01  0.57040701280E+02  0.00000000000E+00 0. -1.
</event>
<event>
 7    1  0.6330892E-006  0.1210236E+03  0.7818608E-02  0.1256168E+00
          2   -1    0    0  502    0  0.00000000000E+00  0.00000000000E+00  0.31131525768E+03  0.31131525768E+03  0.00000000000E+00 0. -1.
          1   -1    0    0  501    0 -0.00000000000E+00 -0.00000000000E+00 -0.91379433120E+03  0.91379433120E+03  0.00000000000E+00 0. -1.
         25    2    1    2    0    0 -0.10837916791E+03 -0.15898754369E+03 -0.12484911178E+03  0.26121997332E+03  0.12500196264E+03 0.  0.
          2    1    1    2  501    0  0.95369445885E+02  0.42505098302E+02 -0.70254815301E+03  0.71026468438E+03  0.00000000000E+00 0. -1.
          1    1    1    2  502    0  0.13009722026E+02  0.11648244539E+03  0.22491819126E+03  0.25362493117E+03  0.00000000000E+00 0. -1.
         22    1    3    3    0    0 -0.79462229374E+02 -0.60410160816E+02 -0.36339684479E+00  0.99818663006E+02  0.00000000000E+00 0. -1.
         22    1    3    3    0    0 -0.28916938536E+02 -0.98577382877E+02 -0.12448571493E+03  0.16140131031E+03  0.00000000000E+00 0. -1.
</event>
<event>
 7    1  0.6330892E-006  0.1506539E+03  0.7818608E-02  0.1295398E+00
          2   -1    0    0  502    0  0.00000000000E+00  0.00000000000E+00  0.70242071585E+02  0.70242071585E+02  0.00000000000E+00 0. -1.
          1   -1    0    0  501    0 -0.00000000000E+00 -0.00000000000E+00 -0.17929086323E+04  0.17929086323E+04  0.00000000000E+00 0. -1.
         25    2    1    2    0    0 -0.15783565764E+03 -0.82030465888E+02 -0.40503685651E+03  0.45969817307E+03  0.12500585201E+03 0.  0.
          2    1    1    2  501    0  0.10464972714E+03  0.10413124515E+03 -0.13351223425E+04  0.13432596738E+04  0.00000000000E+00 0. -1.
          1    1    1    2  502    0  0.53185930500E+02 -0.22100779258E+02  0.17492638318E+02  0.60192857071E+02  0.00000000000E+00 0. -1.
         22    1    3    3    0    0 -0.14611581973E+03 -0.12635488693E+02 -0.26086554749E+03  0.29926630652E+03  0.00000000000E+00 0.  1.
         22    1    3    3    0    0 -0.11719837904E+02 -0.69394977194E+02 -0.14417130902E+03  0.16043186655E+03  0.00000000000E+00 0.  1.
</event>
<event>
 7    1  0.6330892E-006  0.1649747E+03  0.7818608E-02  0.1312662E+00
          2   -1    0    0  502    0  0.00000000000E+00  0.00000000000E+00  0.10503799790E+04  0.10503799790E+04  0.00000000000E+00 0. -1.
          1   -1    0    0  501    0 -0.00000000000E+00 -0.00000000000E+00 -0.57466380077E+02  0.57466380077E+02  0.00000000000E+00 0. -1.
         25    2    1    2    0    0  0.10604279940E+03 -0.10491585273E+03  0.54871994894E+03  0.58221204545E+03  0.12499948820E+03 0.  0.
          2    1    1    2  501    0 -0.89003565056E+02  0.14645978873E+03  0.14915658569E+03  0.22719989296E+03  0.00000000000E+00 0. -1.
          1    1    1    2  502    0 -0.17039234342E+02 -0.41543936009E+02  0.29503706434E+03  0.29843442071E+03  0.00000000000E+00 0. -1.
         22    1    3    3    0    0  0.51239266383E+02 -0.26263067196E+02  0.56233355435E+02  0.80482304773E+02  0.00000000000E+00 0. -1.
         22    1    3    3    0    0  0.54803533015E+02 -0.78652785529E+02  0.49248659351E+03  0.50172974068E+03  0.00000000000E+00 0. -1.
</event>
<event>
 7    1  0.6330892E-006  0.5102864E+02  0.7818608E-02  0.1484654E+00
          2   -1    0    0  502    0  0.00000000000E+00  0.00000000000E+00  0.37116819385E+03  0.37116819385E+03  0.00000000000E+00 0. -1.
          1   -1    0    0  501    0 -0.00000000000E+00 -0.00000000000E+00 -0.23238535379E+04  0.23238535379E+04  0.00000000000E+00 0. -1.
         25    2    1    2    0    0 -0.33264772632E+02 -0.68298843042E+02 -0.42647733912E+03  0.45086414607E+03  0.12499712144E+03 0.  0.
          2    1    1    2  501    0  0.32560677073E+02  0.17348339294E+02 -0.18831929638E+04  0.18835543267E+04  0.00000000000E+00 0. -1.
          1    1    1    2  502    0  0.70409555859E+00  0.50950503748E+02  0.35698495885E+03  0.36060325904E+03  0.00000000000E+00 0. -1.
         22    1    3    3    0    0 -0.56909158315E+02 -0.76680195072E+02 -0.40970921867E+03  0.42069008602E+03  0.00000000000E+00 0. -1.
         22    1    3    3    0    0  0.23644385683E+02  0.83813520295E+01 -0.16768120454E+02  0.30174060047E+02  0.00000000000E+00 0. -1.
</event>
<event>
 7    1  0.6330892E-006  0.3719193E+02  0.7818608E-02  0.1554088E+00
          2   -1    0    0  502    0  0.00000000000E+00  0.00000000000E+00  0.56743111259E+03  0.56743111259E+03  0.00000000000E+00 0. -1.
          1   -1    0    0  501    0 -0.00000000000E+00 -0.00000000000E+00 -0.13133086141E+03  0.13133086141E+03  0.00000000000E+00 0. -1.
         25    2    1    2    0    0  0.39184881198E+02  0.53475506219E+02  0.18289188931E+03  0.23123588622E+03  0.12500202887E+03 0.  0.
          2    1    1    2  501    0 -0.28161112497E+02 -0.23648912536E+02 -0.10327523944E+03  0.10962706966E+03  0.00000000000E+00 0. -1.
          1    1    1    2  502    0 -0.11023768702E+02 -0.29826593683E+02  0.35648360131E+03  0.35789901812E+03  0.00000000000E+00 0. -1.
         22    1    3    3    0    0  0.30862268936E+02 -0.36937238756E+01 -0.77487886624E+01  0.32033840945E+02  0.00000000000E+00 0.  1.
         22    1    3    3    0    0  0.83226122626E+01  0.57169230095E+02  0.19064067797E+03  0.19920204528E+03  0.00000000000E+00 0.  1.
</event>
<event>
 7    1  0.6330892E-006  0.1486438E+03  0.7818608E-02  0.1333130E+00
          2   -1    0    0  502    0  0.00000000000E+00  0.00000000000E+00  0.16820272922E+04  0.16820272922E+04  0.00000000000E+00 0. -1.
          1   -1    0    0  501    0 -0.00000000000E+00 -0.00000000000E+00 -0.17789306287E+03  0.17789306287E+03  0.00000000000E+00 0. -1.
         25    2    1    2    0    0 -0.17512330535E+03 -0.24828184878E+02  0.18259816504E+03  0.28328758447E+03  0.12500061918E+03 0.  0.
          2    1    1    2  501    0  0.14400294726E+03 -0.26885563828E+01 -0.86484897127E+02  0.16799915055E+03  0.00000000000E+00 0. -1.
          1    1    1    2  502    0  0.31120358095E+02  0.27516741261E+02  0.14080209614E+04  0.14086336201E+04  0.00000000000E+00 0. -1.
         22    1    3    3    0    0  0.11188954984E+02  0.10023849869E+02  0.49371091477E+02  0.51605958508E+02  0.00000000000E+00 0. -1.
         22    1    3    3    0    0 -0.18631226034E+03 -0.34852034747E+02  0.13322707356E+03  0.23168162596E+03  0.00000000000E+00 0. -1.
</event>
<event>
 7    1  0.6330892E-006  0.6954474E+02  0.7818608E-02  0.1491169E+00
          2   -1    0    0  502    0  0.00000000000E+00  0.00000000000E+00  0.14678165628E+02  0.14678165628E+02  0.00000000000E+00 0. -1.
          1   -1    0    0  501    0 -0.00000000000E+00 -0.00000000000E+00 -0.25300081766E+04  0.25300081766E+04  0.00000000000E+00 0. -1.
         25    2    1    2    0    0  0.82333044412E+02  0.20843290028E+02 -0.96985578045E+03  0.98156026708E+03  0.12500860008E+03 0.  0.
          2    1    1    2  501    0 -0.67876139508E+02  0.60589170709E+00 -0.15328343518E+04  0.15343365627E+04  0.00000000000E+00 0. -1.
          1    1    1    2  502    0 -0.14456904904E+02 -0.21449181735E+02 -0.12639878736E+02  0.28789512517E+02  0.00000000000E+00 0. -1.
         22    1    3    3    0    0  0.11552314227E+03  0.11902322296E+02 -0.70877861742E+03  0.71823003988E+03  0.00000000000E+00 0.  1.
         22    1    3    3    0    0 -0.33190097857E+02  0.89409677318E+01 -0.26107716303E+03  0.26333022720E+03  0.00000000000E+00 0.  1.
</event>
<event>
 7    1  0.6330892E-006  0.1126605E+03  0.7818608E-02  0.1355608E+00
          2   -1    0    0  502    0  0.00000000000E+00  0.00000000000E+00  0.11900523370E+04  0.11900523370E+04  0.00000000000E+00 0. -1.
          1   -1    0    0  501    0 -0.00000000000E+00 -0.00000000000E+00 -0.81822650141E+03  0.81822650141E+03  0.00000000000E+00 0. -1.
         25    2    1    2    0    0 -0.76280403323E+02  0.58711459794E+02  0.20066950435E+03  0.25526337212E+03  0.12500161490E+03 0.  0.
          2    1    1    2  501    0  0.55236976914E+02 -0.98679503222E+02 -0.78635211573E+03  0.79444220551E+03  0.00000000000E+00 0. -1.
          1    1    1    2  502    0  0.21043426410E+02  0.39968043428E+02  0.95750844693E+03  0.95857326076E+03  0.00000000000E+00 0. -1.
         22    1    3    3    0    0  0.26712359368E+02 -0.13065636586E+02  0.22406603271E+02  0.37233276415E+02  0.00000000000E+00 0.  1.
         22    1    3    3    0    0 -0.10299276269E+03  0.71777096380E+02  0.17826290108E+03  0.21803009570E+03  0.00000000000E+00 0.  1.
</event>
<event>
 7    1  0.6330892E-006  0.6195163E+02  0.7818608E-02  0.1482831E+00
          2   -1    0    0  502    0  0.00000000000E+00  0.00000000000E+00  0.32433126784E+03  0.32433126784E+03  0.00000000000E+00 0. -1.
          1   -1    0    0  501    0 -0.00000000000E+00 -0.00000000000E+00 -0.58316647612E+03  0.58316647612E+03  0.00000000000E+00 0. -1.
         25    2    1    2    0    0 -0.89416295092E+02 -0.17430383146E+01  0.56270950353E+02  0.16367356154E+03  0.12499721150E+03 0.  0.
          2    1    1    2  501    0  0.30116167968E+02 -0.63613166421E+01 -0.52482764867E+03  0.52572950338E+03  0.00000000000E+00 0. -1.
          1    1    1    2  502    0  0.59300127124E+02  0.81043549568E+01  0.20972149003E+03  0.21809467904E+03  0.00000000000E+00 0. -1.
         22    1    3    3    0    0 -0.35123046258E+02  0.50862812340E+02  0.62394039798E+02  0.87827502868E+02  0.00000000000E+00 0.  1.
         22    1    3    3    0    0 -0.54293248834E+02 -0.52605850655E+02 -0.61230894453E+01  0.75846058674E+02  0.00000000000E+00 0.  1.
</event>
<event>
 7    1  0.6330892E-006  0.2595931E+03  0.7818608E-02  0.1239327E+00
          2   -1    0    0  502    0  0.00000000000E+00  0.00000000000E+00  0.11771187302E+04  0.11771187302E+04  0.00000000000E+00 0. -1.
          1   -1    0    0  501    0 -0.00000000000E+00 -0.00000000000E+00 -0.12103111027E+04  0.12103111027E+04  0.00000000000E+00 0. -1.
         25    2    1    2    0    0 -0.16113714143E+03  0.16393834918E+03 -0.31164509055E+03  0.40692588603E+03  0.12500021432E+03 0.  0.
          2    1    1    2  501    0  0.18414027044E+02  0.54610913730E+02 -0.83493822598E+03  0.83692488880E+03  0.00000000000E+00 0. -1.
          1    1    1    2  502    0  0.14272311438E+03 -0.21854926291E+03  0.11133909441E+04  0.11435790580E+04  0.00000000000E+00 0. -1.
         22    1    3    3    0    0 -0.16987054266E+03  0.10182187525E+03 -0.25043102412E+03  0.31927949102E+03  0.00000000000E+00 0. -1.
         22    1    3    3    0    0  0.87334012319E+01  0.62116473923E+02 -0.61214066424E+02  0.87646395008E+02  0.00000000000E+00 0. -1.
</event>
<event>
 7    1  0.6330892E-006  0.4534444E+02  0.7818608E-02  0.1511858E+00
          2   -1    0    0  502    0  0.00000000000E+00  0.00000000000E+00  0.27059102354E+04  0.27059102354E+04  0.00000000000E+00 0. -1.
          1   -1    0    0  501    0 -0.00000000000E+00 -0.00000000000E+00 -0.10032584332E+02  0.10032584332E+02  0.00000000000E+00 0. -1.
         25    2    1    2    0    0  0.24099722718E+02 -0.62703084727E+02  0.72840817212E+03  0.74210307890E+03  0.12500416404E+03 0.  0.
          2    1    1    2  501    0  0.94827388957E+01  0.33092171045E+02  0.98643746177E+02  0.10447776214E+03  0.00000000000E+00 0. -1.
          1    1    1    2  502    0 -0.33582461614E+02  0.29610913682E+02  0.18688257328E+04  0.18693619787E+04  0.00000000000E+00 0. -1.
         22    1    3    3    0    0 -0.41010128755E+02 -0.57064990802E+02  0.26714060873E+03  0.27622879769E+03  0.00000000000E+00 0. -1.
         22    1    3    3    0    0  0.65109851473E+02 -0.56380939253E+01  0.46126756338E+03  0.46587428121E+03  0.00000000000E+00 0. -1.
</event>
<event>
 7    1  0.6330892E-006  0.6749283E+02  0.7818608E-02  0.1457347E+00
          2   -1    0    0  502    0  0.00000000000E+00  0.00000000000E+00  0.38400093538E+03  0.38400093538E+03  0.00000000000E+00 0. -1.
          1   -1    0    0  501    0 -0.00000000000E+00 -0.00000000000E+00 -0.18053797457E+03  0.18053797457E+03  0.00000000000E+00 0. -1.
         25    2    1    2    0    0 -0.11005848972E+02 -0.86842025928E+02 -0.26330281166E+02  0.15485278200E+03  0.12499373667E+03 0.  0.
          2    1    1    2  501    0  0.28613765477E+02  0.57860390185E+02 -0.77311008773E+02  0.10071526401E+03  0.00000000000E+00 0. -1.
          1    1    1    2  502    0 -0.17607916505E+02  0.28981635743E+02  0.30710425075E+03  0.30897086394E+03  0.00000000000E+00 0. -1.
         22    1    3    3    0    0 -0.52713563473E+02 -0.21046286771E+00 -0.25831378867E+02  0.58702846633E+02  0.00000000000E+00 0. -1.
         22    1    3    3    0    0  0.41707714502E+02 -0.86631563060E+02 -0.49890229896E+00  0.96149935365E+02  0.00000000000E+00 0. -1.
</event>
<event>
 7    1  0.6330892E-006  0.8763489E+02  0.7818608E-02  0.1335777E+00
          2   -1    0    0  502    0  0.00000000000E+00  0.00000000000E+00  0.36676373958E+03  0.36676373958E+03  0.00000000000E+00 0. -1.
          1   -1    0    0  501    0 -0.00000000000E+00 -0.00000000000E+00 -0.22813909071E+03  0.22813909071E+03  0.00000000000E+00 0. -1.
         25    2    1    2    0    0  0.36351987755E+02  0.13947735763E+03  0.57290332476E+02  0.19921918463E+03  0.12502280202E+03 0.  0.
          2    1    1    2  501    0  0.30871939718E+01 -0.83042493670E+02 -0.14059636753E+03  0.16331847747E+03  0.00000000000E+00 0. -1.
          1    1    1    2  502    0 -0.39439181727E+02 -0.56434863960E+02  0.22193068391E+03  0.23236516819E+03  0.00000000000E+00 0. -1.
         22    1    3    3    0    0 -0.67230950505E+01  0.14489460599E+02 -0.34673856046E+02  0.38176180644E+02  0.00000000000E+00 0.  1.
         22    1    3    3    0    0  0.43075082806E+02  0.12498789703E+03  0.91964188521E+02  0.16104300399E+03  0.00000000000E+00 0.  1.
</event>
<event>
 7    1  0.6330892E-006  0.1759066E+03  0.7818608E-02  0.1263972E+00
          2   -1    0    0  502    0  0.00000000000E+00  0.00000000000E+00  0.11796812165E+04  0.11796812165E+04  0.00000000000E+00 0. -1.
          1   -1    0    0  501    0 -0.00000000000E+00 -0.00000000000E+00 -0.10225457069E+03  0.10225457069E+03  0.00000000000E+00 0. -1.
         25    2    1    2    0    0 -0.12029004195E+03 -0.15780110771E+01  0.99511376804E+02  0.19999764391E+03  0.12499743656E+03 0.  0.
          2    1    1    2  501    0 -0.64614699257E+02  0.15862335248E+02 -0.17981887430E+02  0.68920398396E+02  0.00000000000E+00 0. -1.
          1    1    1    2  502    0  0.18490474121E+03 -0.14284324171E+02  0.99589715639E+03  0.10130177448E+04  0.00000000000E+00 0. -1.
         22    1    3    3    0    0 -0.52547730425E+02 -0.14594368722E+02  0.11678054459E+03  0.12888737396E+03  0.00000000000E+00 0. -1.
         22    1    3    3    0    0 -0.67742311527E+02  0.13016357645E+02 -0.17269167784E+02  0.71110269956E+02  0.00000000000E+00 0. -1.
</event>
<event>
 7    1  0.1220517E-005  0.7701776E+02  0.7818608E-02  0.1384318E+00
          2   -1    0    0  502    0  0.00000000000E+00  0.00000000000E+00  0.27730350511E+04  0.27730350511E+04  0.00000000000E+00 0. -1.
          1   -1    0    0  501    0 -0.00000000000E+00 -0.00000000000E+00 -0.64397746898E+03  0.64397746898E+03  0.00000000000E+00 0. -1.
         25    2    1    2    0    0 -0.25789326788E+02 -0.57189850771E+01 -0.24607455452E+03  0.27726485218E+03  0.12500126282E+03 0.  0.
          2    1    1    2  501    0 -0.42493404467E+02 -0.30136040544E+02 -0.37999096731E+03  0.38354531101E+03  0.00000000000E+00 0. -1.
          1    1    1    2  502    0  0.68282731256E+02  0.35855025621E+02  0.27551231039E+04  0.27562023569E+04  0.00000000000E+00 0. -1.
         22    1    3    3    0    0  0.33197403707E+02  0.26407802042E+02 -0.32678124273E+02  0.53547170117E+02  0.00000000000E+00 0. -1.
         22    1    3    3    0    0 -0.58986730496E+02 -0.32126787119E+02 -0.21339643024E+03  0.22371768206E+03  0.00000000000E+00 0. -1.
</event>
<event>
 7    1  0.6330892E-006  0.6110564E+02  0.7818608E-02  0.1459363E+00
          2   -1    0    0  502    0  0.00000000000E+00  0.00000000000E+00  0.86962774369E+03  0.86962774369E+03  0.00000000000E+00 0. -1.
          1   -1    0    0  501    0 -0.00000000000E+00 -0.00000000000E+00 -0.26180933167E+03  0.26180933167E+03  0.00000000000E+00 0. -1.
         25    2    1    2    0    0 -0.33542223049E+02 -0.11708533788E+02  0.26317349795E+03  0.29350901742E+03  0.12500033116E+03 0.  0.
          2    1    1    2  501    0 -0.30297997086E+02  0.21080218306E+02 -0.24348626154E+03  0.24626795120E+03  0.00000000000E+00 0. -1.
          1    1    1    2  502    0  0.63840220135E+02 -0.93716845176E+01  0.58813117561E+03  0.59166010673E+03  0.00000000000E+00 0. -1.
         22    1    3    3    0    0 -0.47110239920E+02  0.13516134519E+02  0.27694086058E+02  0.56294076068E+02  0.00000000000E+00 0. -1.
         22    1    3    3    0    0  0.13568016871E+02 -0.25224668308E+02  0.23547941190E+03  0.23721494135E+03  0.00000000000E+00 0. -1.
</event>
<event>
 7    1  0.6330892E-006  0.1572251E+03  0.7818608E-02  0.1278655E+00
          2   -1    0    0  502    0  0.00000000000E+00  0.00000000000E+00  0.20084650216E+03  0.20084650216E+03  0.00000000000E+00 0. -1.
          1   -1    0    0  501    0 -0.00000000000E+00 -0.00000000000E+00 -0.99711383493E+03  0.99711383493E+03  0.00000000000E+00 0. -1.
         25    2    1    2    0    0  0.84914254232E+01  0.10294021379E+03 -0.92711221153E+02  0.18678460913E+03  0.12499731101E+03 0.  0.
          2    1    1    2  501    0 -0.29502906315E+02 -0.16403275667E+03 -0.84203364714E+03  0.85836928513E+03  0.00000000000E+00 0. -1.
          1    1    1    2  502    0  0.21011480892E+02  0.61092542886E+02  0.13847753552E+03  0.15280644283E+03  0.00000000000E+00 0. -1.
         22    1    3    3    0    0  0.58396550280E+02  0.47691264123E+02 -0.10920540900E+02  0.76183147558E+02  0.00000000000E+00 0.  1.
         22    1    3    3    0    0 -0.49905124856E+02  0.55248949664E+02 -0.81790680254E+02  0.11060146157E+03  0.00000000000E+00 0.  1.
</event>
<event>
 7    1  0.6330892E-006  0.1458474E+03  0.7818608E-02  0.1263391E+00
          2   -1    0    0  502    0  0.00000000000E+00  0.00000000000E+00  0.30049021565E+04  0.30049021565E+04  0.00000000000E+00 0. -1.
          1   -1    0    0  501    0 -0.00000000000E+00 -0.00000000000E+00 -0.87048013773E+03  0.87048013773E+03  0.00000000000E+00 0. -1.
         25    2    1    2    0    0 -0.34577719058E+02  0.91735687751E+02  0.52172474496E+03  0.54537383906E+03  0.12499943903E+03 0.  0.
          2    1    1    2  501    0 -0.26831514642E+02 -0.14409676764E+03 -0.85173520376E+03  0.86425497739E+03  0.00000000000E+00 0. -1.
          1    1    1    2  502    0  0.61409233700E+02  0.52361079894E+02  0.24644324775E+04  0.24657534778E+04  0.00000000000E+00 0. -1.
         22    1    3    3    0    0  0.17409047550E+02 -0.20597245160E+02  0.41808596761E+02  0.49752187971E+02  0.00000000000E+00 0.  1.
         22    1    3    3    0    0 -0.51986766608E+02  0.11233293291E+03  0.47991614820E+03  0.49562165109E+03  0.00000000000E+00 0.  1.
</event>
<event>
 7    1  0.6330892E-006  0.1849969E+03  0.7818608E-02  0.1206844E+00
          2   -1    0    0  502    0  0.00000000000E+00  0.00000000000E+00  0.11644460160E+03  0.11644460160E+03  0.00000000000E+00 0. -1.
          1   -1    0    0  501    0 -0.00000000000E+00 -0.00000000000E+00 -0.20838343913E+04  0.20838343913E+04  0.00000000000E+00 0. -1.
         25    2    1    2    0    0 -0.32923425323E+02 -0.86486807959E+02 -0.53724897807E+03  0.55930840054E+03  0.12500201032E+03 0.  0.
          2    1    1    2  501    0  0.39464305654E+01 -0.11347406981E+03 -0.14343895218E+04  0.14388763807E+04  0.00000000000E+00 0. -1.
          1    1    1    2  502    0  0.28976994758E+02  0.19996087777E+03  0.42487100795E+01  0.20209421170E+03  0.00000000000E+00 0. -1.
         22    1    3    3    0    0  0.19472090225E+02  0.24027916617E+02 -0.15186842922E+03  0.15498555697E+03  0.00000000000E+00 0. -1.
         22    1    3    3    0    0 -0.52395515549E+02 -0.11051472458E+03 -0.38538054885E+03  0.40432284357E+03  0.00000000000E+00 0. -1.
</event>
<event>
 7    1  0.6330892E-006  0.1054932E+03  0.7818608E-02  0.1338034E+00
          2   -1    0    0  502    0  0.00000000000E+00  0.00000000000E+00  0.12491054702E+04  0.12491054702E+04  0.00000000000E+00 0. -1.
          1   -1    0    0  501    0 -0.00000000000E+00 -0.00000000000E+00 -0.20160061742E+04  0.20160061742E+04  0.00000000000E+00 0. -1.
         25    2    1    2    0    0 -0.10697905315E+03  0.51525489616E+02  0.56735101763E+03  0.59296893106E+03  0.12500232843E+03 0.  0.
          2    1    1    2  501    0  0.10539760879E+03  0.45345857750E+01 -0.20006295769E+04  0.20034090751E+04  0.00000000000E+00 0. -1.
          1    1    1    2  502    0  0.15814443595E+01 -0.56060075390E+02  0.66637785523E+03  0.66873363828E+03  0.00000000000E+00 0. -1.
         22    1    3    3    0    0  0.83851568590E+01 -0.22962383795E+02  0.31899908433E+02  0.40189377740E+02  0.00000000000E+00 0. -1.
         22    1    3    3    0    0 -0.11536421001E+03  0.74487873410E+02  0.53545110919E+03  0.55277955332E+03  0.00000000000E+00 0. -1.
</event>
<event>
 7    1  0.6330892E-006  0.3505900E+02  0.7818608E-02  0.1573110E+00
          2   -1    0    0  502    0  0.00000000000E+00  0.00000000000E+00  0.12426694169E+04  0.12426694169E+04  0.00000000000E+00 0. -1.
          1   -1    0    0  501    0 -0.00000000000E+00 -0.00000000000E+00 -0.44365944657E+03  0.44365944657E+03  0.00000000000E+00 0. -1.
         25    2    1    2    0    0  0.44544741352E+02 -0.12098827437E+02  0.24259246400E+03  0.27678219694E+03  0.12500666120E+03 0.  0.
          2    1    1    2  501    0 -0.31719970887E+02 -0.14931585703E+02 -0.42561602115E+03  0.42705749761E+03  0.00000000000E+00 0. -1.
          1    1    1    2  502    0 -0.12824770464E+02  0.27030413140E+02  0.98203352747E+03  0.98248916892E+03  0.00000000000E+00 0. -1.
         22    1    3    3    0    0 -0.26915120310E+01 -0.96571307199E+01  0.22664527005E+03  0.22686688354E+03  0.00000000000E+00 0.  1.
         22    1    3    3    0    0  0.47236253383E+02 -0.24416967168E+01  0.15947193949E+02  0.49915313395E+02  0.00000000000E+00 0.  1.
</event>
<event>
 7    1  0.6330892E-006  0.6783398E+02  0.7818608E-02  0.1389582E+00
          2   -1    0    0  502    0  0.00000000000E+00  0.00000000000E+00  0.83681480834E+03  0.83681480834E+03  0.00000000000E+00 0. -1.
          1   -1    0    0  501    0 -0.00000000000E+00 -0.00000000000E+00 -0.66991418782E+02  0.66991418782E+02  0.00000000000E+00 0. -1.
         25    2    1    2    0    0  0.88681252215E+02 -0.70794741280E+02  0.20063661986E+03  0.26221385227E+03  0.12499916481E+03 0.  0.
          2    1    1    2  501    0 -0.26563101691E+02  0.50078626322E+02 -0.10980781016E+02  0.57741187531E+02  0.00000000000E+00 0. -1.
          1    1    1    2  502    0 -0.62118150524E+02  0.20716114959E+02  0.58016755071E+03  0.58385118733E+03  0.00000000000E+00 0. -1.
         22    1    3    3    0    0  0.71071069408E+01 -0.56402413343E+02  0.14786966292E+02  0.58740084883E+02  0.00000000000E+00 0. -1.
         22    1    3    3    0    0  0.81574145274E+02 -0.14392327937E+02  0.18584965357E+03  0.20347376738E+03  0.00000000000E+00 0. -1.
</event>
<event>
 7    1  0.6330892E-006  0.3834908E+02  0.7818608E-02  0.1600977E+00
          2   -1    0    0  502    0  0.00000000000E+00  0.00000000000E+00  0.10647785041E+04  0.10647785041E+04  0.00000000000E+00 0. -1.
          1   -1    0    0  501    0 -0.00000000000E+00 -0.00000000000E+00 -0.81670178214E+03  0.81670178214E+03  0.00000000000E+00 0. -1.
         25    2    1    2    0    0 -0.60318521620E+02  0.85459734757E+01  0.18697630668E+03  0.23301491903E+03  0.12499782204E+03 0.  0.
          2    1    1    2  501    0  0.38256667906E+02 -0.18210327957E+01 -0.79306466914E+03  0.79398895347E+03  0.00000000000E+00 0. -1.
          1    1    1    2  502    0  0.22061853714E+02 -0.67249406800E+01  0.85416508437E+03  0.85447641370E+03  0.00000000000E+00 0. -1.
         22    1    3    3    0    0  0.35888322357E+01 -0.42885508419E+02  0.11878545877E+03  0.12634093463E+03  0.00000000000E+00 0.  1.
         22    1    3    3    0    0 -0.63907353856E+02  0.51431481894E+02  0.68190847914E+02  0.10667398439E+03  0.00000000000E+00 0.  1.
</event>
<event>
 7    1  0.6330892E-006  0.1644861E+03  0.7818608E-02  0.1357903E+00
          2   -1    0    0  502    0  0.00000000000E+00  0.00000000000E+00  0.10619267709E+04  0.10619267709E+04  0.00000000000E+00 0. -1.
          1   -1    0    0  501    0 -0.00000000000E+00 -0.00000000000E+00 -0.68904764561E+02  0.68904764561E+02  0.00000000000E+00 0. -1.
         25    2    1    2    0    0 -0.23914999890E+02  0.18647417088E+03  0.35712622592E+03  0.42250215048E+03  0.12499752918E+03 0.  0.
          2    1    1    2  501    0  0.59441398881E+01 -0.29756000252E+02 -0.18265618943E+02  0.35417300650E+02  0.00000000000E+00 0. -1.
          1    1    1    2  502    0  0.17970860002E+02 -0.15671817063E+03  0.65416139933E+03  0.67291208430E+03  0.00000000000E+00 0. -1.
         22    1    3    3    0    0 -0.64259510623E+02  0.47727212263E+02  0.14892381007E+03  0.16907238894E+03  0.00000000000E+00 0.  1.
         22    1    3    3    0    0  0.40344510733E+02  0.13874695862E+03  0.20820241584E+03  0.25342976154E+03  0.00000000000E+00 0.  1.
</event>
<event>
 7    1  0.6330892E-006  0.3481010E+02  0.7818608E-02  0.1613938E+00
          2   -1    0    0  502    0  0.00000000000E+00  0.00000000000E+00  0.39166615126E+03  0.39166615126E+03  0.00000000000E+00 0. -1.
          1   -1    0    0  501    0 -0.00000000000E+00 -0.00000000000E+00 -0.17612706192E+04  0.17612706192E+04  0.00000000000E+00 0. -1.
         25    2    1    2    0    0 -0.71147793967E+01  0.30143575492E+02 -0.38797380482E+03  0.40878749398E+03  0.12499714706E+03 0.  0.
          2    1    1    2  501    0 -0.21294461460E+02 -0.99875430017E+01 -0.13619926018E+04  0.13621956733E+04  0.00000000000E+00 0. -1.
          1    1    1    2  502    0  0.28409240857E+02 -0.20156032490E+02  0.38036193865E+03  0.38195360318E+03  0.00000000000E+00 0. -1.
         22    1    3    3    0    0  0.52665319854E+02 -0.13963245315E+02 -0.16519371147E+03  0.17394703344E+03  0.00000000000E+00 0.  1.
         22    1    3    3    0    0 -0.59780099250E+02  0.44106820807E+02 -0.22278009336E+03  0.23484046054E+03  0.00000000000E+00 0.  1.
</event>
<event>
 7    1  0.6330892E-006  0.3888901E+02  0.7818608E-02  0.1534762E+00
          2   -1    0    0  502    0  0.00000000000E+00  0.00000000000E+00  0.73458169750E+03  0.73458169750E+03  0.00000000000E+00 0. -1.
          1   -1    0    0  501    0 -0.00000000000E+00 -0.00000000000E+00 -0.45916171977E+02  0.45916171977E+02  0.00000000000E+00 0. -1.
         25    2    1    2    0    0  0.10681940014E+02  0.34662327946E+01  0.30995906882E+03  0.33440431445E+03  0.12500201024E+03 0.  0.
          2    1    1    2  501    0 -0.13313328065E+02 -0.37827807489E+02 -0.20750521935E+02  0.45152761645E+02  0.00000000000E+00 0. -1.
          1    1    1    2  502    0  0.26313880514E+01  0.34361574694E+02  0.39945697863E+03  0.40094079338E+03  0.00000000000E+00 0. -1.
         22    1    3    3    0    0  0.34935451079E+02 -0.50811324045E+02  0.11377283466E+03  0.12940840119E+03  0.00000000000E+00 0. -1.
         22    1    3    3    0    0 -0.24253511066E+02  0.54277556840E+02  0.19618623416E+03  0.20499591325E+03  0.00000000000E+00 0. -1.
</event>
<event>
 7    1  0.6330892E-006  0.4442938E+02  0.7818608E-02  0.1519255E+00
          2   -1    0    0  502    0  0.00000000000E+00  0.00000000000E+00  0.30936127944E+03  0.30936127944E+03  0.00000000000E+00 0. -1.
          1   -1    0    0  501    0 -0.00000000000E+00 -0.00000000000E+00 -0.15877620728E+04  0.15877620728E+04  0.00000000000E+00 0. -1.
         25    2    1    2    0    0 -0.26656871628E+02  0.19851530595E+02 -0.58659519183E+03  0.60068587461E+03  0.12499971523E+03 0.  0.
          2    1    1    2  501    0  0.54618439561E+01 -0.45700665527E+02 -0.99266264405E+03  0.99372909158E+03  0.00000000000E+00 0. -1.
          1    1    1    2  502    0  0.21195027672E+02  0.25849134931E+02  0.30085704250E+03  0.30270838607E+03  0.00000000000E+00 0. -1.
         22    1    3    3    0    0 -0.46898034835E+02  0.38287448933E+01 -0.75656311655E+02  0.89095243712E+02  0.00000000000E+00 0.  1.
         22    1    3    3    0    0  0.20241163207E+02  0.16022785702E+02 -0.51093888018E+03  0.51159063090E+03  0.00000000000E+00 0.  1.
</event>
<event>
 7    1  0.6330892E-006  0.1009181E+03  0.7818608E-02  0.1356873E+00
          2   -1    0    0  502    0  0.00000000000E+00  0.00000000000E+00  0.19173030974E+04  0.19173030974E+04  0.00000000000E+00 0. -1.
          1   -1    0    0  501    0 -0.00000000000E+00 -0.00000000000E+00 -0.17098032788E+03  0.17098032788E+03  0.00000000000E+00 0. -1.
         25    2    1    2    0    0  0.59661554525E+02  0.90663592468E+02  0.40531484760E+03  0.43781762110E+03  0.12499902231E+03 0.  0.
          2    1    1    2  501    0 -0.88046138237E+02 -0.49636188662E+02 -0.13775720386E+03  0.17085935999E+03  0.00000000000E+00 0. -1.
          1    1    1    2  502    0  0.28384583712E+02 -0.41027403806E+02  0.14787651258E+04  0.14796064442E+04  0.00000000000E+00 0. -1.
         22    1    3    3    0    0  0.44285423830E+02  0.12229625367E+03  0.30777532234E+03  0.33413054554E+03  0.00000000000E+00 0. -1.
         22    1    3    3    0    0  0.15376130695E+02 -0.31632661203E+02  0.97539525260E+02  0.10368707556E+03  0.00000000000E+00 0. -1.
</event>
<event>
 7    1  0.6330892E-006  0.4310198E+02  0.7818608E-02  0.1567707E+00
          2   -1    0    0  502    0  0.00000000000E+00  0.00000000000E+00  0.15143086054E+04  0.15143086054E+04  0.00000000000E+00 0. -1.
          1   -1    0    0  501    0 -0.00000000000E+00 -0.00000000000E+00 -0.86953501342E+03  0.86953501342E+03  0.00000000000E+00 0. -1.
         25    2    1    2    0    0  0.38762507172E+02  0.52051044636E+02 -0.27907083033E+03  0.31260021132E+03  0.12500608213E+03 0.  0.
          2    1    1    2  501    0 -0.17708346580E+02 -0.38254682752E+02 -0.57281915606E+03  0.57436816750E+03  0.00000000000E+00 0. -1.
          1    1    1    2  502    0 -0.21054160592E+02 -0.13796361884E+02  0.14966635783E+04  0.14968752400E+04  0.00000000000E+00 0. -1.
         22    1    3    3    0    0  0.80268396180E+01 -0.23453400462E+02 -0.19095992278E+03  0.19256215686E+03  0.00000000000E+00 0.  1.
         22    1    3    3    0    0  0.30735667554E+02  0.75504445098E+02 -0.88110907547E+02  0.12003805446E+03  0.00000000000E+00 0.  1.
</event>
<event>
 7    1  0.6330892E-006  0.6306993E+02  0.7818608E-02  0.1424132E+00
          2   -1    0    0  502    0  0.00000000000E+00  0.00000000000E+00  0.56384278755E+03  0.56384278755E+03  0.00000000000E+00 0. -1.
          1   -1    0    0  501    0 -0.00000000000E+00 -0.00000000000E+00 -0.17672152643E+03  0.17672152643E+03  0.00000000000E+00 0. -1.
         25    2    1    2    0    0 -0.68627054409E+02 -0.36713735833E+02  0.28754782692E+03  0.32305648043E+03  0.12499666309E+03 0.  0.
          2    1    1    2  501    0  0.42028802802E+02 -0.19901087142E+02 -0.15164716099E+03  0.15861694415E+03  0.00000000000E+00 0. -1.
          1    1    1    2  502    0  0.26598251607E+02  0.56614822975E+02  0.25122059519E+03  0.25889088940E+03  0.00000000000E+00 0. -1.
         22    1    3    3    0    0 -0.27782251218E+02 -0.21494494274E+02  0.30718109394E+01  0.35260498993E+02  0.00000000000E+00 0.  1.
         22    1    3    3    0    0 -0.40844803191E+02 -0.15219241559E+02  0.28447601598E+03  0.28779598144E+03  0.00000000000E+00 0.  1.
</event>
<event>
 7    1  0.6330892E-006  0.9223484E+02  0.7818608E-02  0.1297797E+00
          2   -1    0    0  502    0  0.00000000000E+00  0.00000000000E+00  0.10434829424E+04  0.10434829424E+04  0.00000000000E+00 0. -1.
          1   -1    0    0  501    0 -0.00000000000E+00 -0.00000000000E+00 -0.25926322232E+04  0.25926322232E+04  0.00000000000E+00 0. -1.
         25    2    1    2    0    0 -0.34054520872E+02 -0.10588439296E+01 -0.73490883298E+03  0.74624194072E+03  0.12500083906E+03 0.  0.
          2    1    1    2  501    0  0.75061472993E+02  0.83676610509E+02 -0.18482965767E+04  0.18517117042E+04  0.00000000000E+00 0. -1.
          1    1    1    2  502    0 -0.41006952122E+02 -0.82617766579E+02  0.10340561288E+04  0.10381615207E+04  0.00000000000E+00 0. -1.
         22    1    3    3    0    0  0.26665876633E+00 -0.59583784037E+02 -0.41165505017E+03  0.41594492275E+03  0.00000000000E+00 0.  1.
         22    1    3    3    0    0 -0.34321179638E+02  0.58524940107E+02 -0.32325378280E+03  0.33029701798E+03  0.00000000000E+00 0.  1.
</event>
<event>
 7    1  0.6330892E-006  0.7340892E+02  0.7818608E-02  0.1387608E+00
          2   -1    0    0  502    0  0.00000000000E+00  0.00000000000E+00  0.64023475099E+02  0.64023475099E+02  0.00000000000E+00 0. -1.
          1   -1    0    0  501    0 -0.00000000000E+00 -0.00000000000E+00 -0.14231106320E+04  0.14231106320E+04  0.00000000000E+00 0. -1.
         25    2    1    2    0    0  0.75406133627E+02  0.98263464883E+02 -0.21855810416E+03  0.28059387335E+03  0.12499393324E+03 0.  0.
          2    1    1    2  501    0 -0.37220711333E+02 -0.61190435441E+02 -0.11502164813E+04  0.11524441872E+04  0.00000000000E+00 0. -1.
          1    1    1    2  502    0 -0.38185422294E+02 -0.37073029443E+02  0.96874285052E+01  0.54096046610E+02  0.00000000000E+00 0. -1.
         22    1    3    3    0    0  0.34591337645E+02  0.10481146669E+02  0.54591434599E+01  0.36554306488E+02  0.00000000000E+00 0. -1.
         22    1    3    3    0    0  0.40814795983E+02  0.87782318214E+02 -0.22401724762E+03  0.24403956686E+03  0.00000000000E+00 0. -1.
</event>
<event>
 7    1  0.6330892E-006  0.1124137E+03  0.7818608E-02  0.1301221E+00
          2   -1    0    0  502    0  0.00000000000E+00  0.00000000000E+00  0.60583907854E+02  0.60583907854E+02  0.00000000000E+00 0. -1.
          1   -1    0    0  501    0 -0.00000000000E+00 -0.00000000000E+00 -0.16689455985E+04  0.16689455985E+04  0.00000000000E+00 0. -1.
         25    2    1    2    0    0  0.12646463776E+03 -0.54142174732E+02 -0.27711768806E+03  0.33367979908E+03  0.12499326220E+03 0.  0.
          2    1    1    2  501    0 -0.63948909704E+02 -0.35502482710E+02 -0.12669310495E+04  0.12690406508E+04  0.00000000000E+00 0. -1.
          1    1    1    2  502    0 -0.62515728058E+02  0.89644657442E+02 -0.64312953158E+02  0.12680905648E+03  0.00000000000E+00 0. -1.
         22    1    3    3    0    0  0.99513086400E+02 -0.42013250762E+02 -0.80148412807E+02  0.13450552286E+03  0.00000000000E+00 0. -1.
         22    1    3    3    0    0  0.26951551362E+02 -0.12128923971E+02 -0.19696927525E+03  0.19917427622E+03  0.00000000000E+00 0. -1.
</event>
<event>
 7    1  0.6330892E-006  0.3378032E+03  0.7818608E-02  0.1223389E+00
          2   -1    0    0  502    0  0.00000000000E+00  0.00000000000E+00  0.16325057001E+04  0.16325057001E+04  0.00000000000E+00 0. -1.
          1   -1    0    0  501    0 -0.00000000000E+00 -0.00000000000E+00 -0.91493222900E+03  0.91493222900E+03  0.00000000000E+00 0. -1.
         25    2    1    2    0    0 -0.26609890030E+03 -0.20634865997E+03 -0.25647432072E+02  0.36009821828E+03  0.12499816729E+03 0.  0.
          2    1    1    2  501    0  0.23260590600E+03  0.24637531820E+03 -0.68180577252E+03  0.76135761399E+03  0.00000000000E+00 0. -1.
          1    1    1    2  502    0  0.33492994296E+02 -0.40026658231E+02  0.14250266757E+04  0.14259820969E+04  0.00000000000E+00 0. -1.
         22    1    3    3    0    0 -0.27360599193E+03 -0.17618542973E+03 -0.10683614243E+02  0.32560049767E+03  0.00000000000E+00 0. -1.
         22    1    3    3    0    0  0.75070916297E+01 -0.30163230248E+02 -0.14963817829E+02  0.34497720617E+02  0.00000000000E+00 0. -1.
</event>
<event>
 7    1  0.6330892E-006  0.1343455E+03  0.7818608E-02  0.1275322E+00
          2   -1    0    0  502    0  0.00000000000E+00  0.00000000000E+00  0.77610382984E+03  0.77610382984E+03  0.00000000000E+00 0. -1.
          1   -1    0    0  501    0 -0.00000000000E+00 -0.00000000000E+00 -0.19839174446E+04  0.19839174446E+04  0.00000000000E+00 0. -1.
         25    2    1    2    0    0  0.62227510630E+02 -0.37914179464E+02 -0.18331166311E+03  0.23353424947E+03  0.12500132703E+03 0.  0.
          2    1    1    2  501    0  0.10758198690E+02 -0.77310631668E+02 -0.17684334628E+04  0.17701552432E+04  0.00000000000E+00 0. -1.
          1    1    1    2  502    0 -0.72985709321E+02  0.11522481113E+03  0.74393151115E+03  0.75633178179E+03  0.00000000000E+00 0. -1.
         22    1    3    3    0    0  0.64705255694E+02  0.32846039637E+02 -0.77017877025E+02  0.10581770086E+03  0.00000000000E+00 0.  1.
         22    1    3    3    0    0 -0.24777450638E+01 -0.70760219101E+02 -0.10629378608E+03  0.12771654860E+03  0.00000000000E+00 0.  1.
</event>
<event>
 7    1  0.6330892E-006  0.1932496E+03  0.7818608E-02  0.1218584E+00
          2   -1    0    0  502    0  0.00000000000E+00  0.00000000000E+00  0.17149173488E+04  0.17149173488E+04  0.00000000000E+00 0. -1.
          1   -1    0    0  501    0 -0.00000000000E+00 -0.00000000000E+00 -0.56011628184E+03  0.56011628184E+03  0.00000000000E+00 0. -1.
         25    2    1    2    0    0  0.10501608297E+03  0.21129817769E+03  0.42849385058E+03  0.50488353148E+03  0.12500041121E+03 0.  0.
          2    1    1    2  501    0  0.37348276455E+02 -0.88375455389E+02 -0.51034026541E+03  0.51928056132E+03  0.00000000000E+00 0. -1.
          1    1    1    2  502    0 -0.14236435942E+03 -0.12292272230E+03  0.12366474818E+04  0.12508695378E+04  0.00000000000E+00 0. -1.
         22    1    3    3    0    0  0.83761254939E+02  0.47463114815E+02  0.20950281671E+03  0.23056479633E+03  0.00000000000E+00 0.  1.
         22    1    3    3    0    0  0.21254828029E+02  0.16383506288E+03  0.21899103387E+03  0.27431873515E+03  0.00000000000E+00 0.  1.
</event>
<event>
 7    1  0.6330892E-006  0.1708275E+03  0.7818608E-02  0.1303159E+00
          2   -1    0    0  502    0  0.00000000000E+00  0.00000000000E+00  0.10286061972E+04  0.10286061972E+04  0.00000000000E+00 0. -1.
          1   -1    0    0  501    0 -0.00000000000E+00 -0.00000000000E+00 -0.86167787353E+03  0.86167787353E+03  0.00000000000E+00 0. -1.
         25    2    1    2    0    0 -0.15036651336E+03  0.10206465364E+02  0.13279942798E+03  0.23659062233E+03  0.12500069691E+03 0.  0.
          2    1    1    2  501    0 -0.21794125270E+02 -0.41960436203E+02 -0.79999768695E+03  0.80139376166E+03  0.00000000000E+00 0. -1.
          1    1    1    2  502    0  0.17216063863E+03  0.31753970838E+02  0.83412658265E+03  0.85229968675E+03  0.00000000000E+00 0. -1.
         22    1    3    3    0    0 -0.23821941847E+02 -0.50206065625E+02  0.36725678191E+02  0.66610129691E+02  0.00000000000E+00 0. -1.
         22    1    3    3    0    0 -0.12654457151E+03  0.60412530989E+02  0.96073749788E+02  0.16998049264E+03  0.00000000000E+00 0. -1.
</event>
<event>
 7    1  0.6330892E-006  0.7327017E+02  0.7818608E-02  0.1470121E+00
          2   -1    0    0  502    0  0.00000000000E+00  0.00000000000E+00  0.13430916414E+04  0.13430916414E+04  0.00000000000E+00 0. -1.
          1   -1    0    0  501    0 -0.00000000000E+00 -0.00000000000E+00 -0.55636356861E+03  0.55636356861E+03  0.00000000000E+00 0. -1.
         25    2    1    2    0    0 -0.41932096205E+02 -0.81044567570E+02 -0.81281285701E+01  0.15497575038E+03  0.12499957642E+03 0.  0.
          2    1    1    2  501    0  0.26837776456E+02  0.95403317468E+01 -0.47333157208E+03  0.47418779118E+03  0.00000000000E+00 0. -1.
          1    1    1    2  502    0  0.15094319749E+02  0.71504235823E+02  0.12681877735E+04  0.12702916685E+04  0.00000000000E+00 0. -1.
         22    1    3    3    0    0 -0.46203323860E+02 -0.59142262447E+02  0.51691581013E+02  0.91129434821E+02  0.00000000000E+00 0. -1.
         22    1    3    3    0    0  0.42712276552E+01 -0.21902305123E+02 -0.59819709584E+02  0.63846315556E+02  0.00000000000E+00 0. -1.
</event>
<event>
 7    1  0.6330892E-006  0.9806220E+02  0.7818608E-02  0.1347250E+00
          2   -1    0    0  502    0  0.00000000000E+00  0.00000000000E+00  0.13401549020E+04  0.13401549020E+04  0.00000000000E+00 0. -1.
          1   -1    0    0  501    0 -0.00000000000E+00 -0.00000000000E+00 -0.64185685668E+02  0.64185685668E+02  0.00000000000E+00 0. -1.
         25    2    1    2    0    0  0.10052502073E+03  0.62633407380E+02  0.15406378895E+03  0.23106203639E+03  0.12500316029E+03 0.  0.
          2    1    1    2  501    0 -0.31314950781E+01 -0.55632727846E+02  0.94143641031E+01  0.56510502744E+02  0.00000000000E+00 0. -1.
          1    1    1    2  502    0 -0.97393525653E+02 -0.70006795341E+01  0.11124910633E+04  0.11167680485E+04  0.00000000000E+00 0. -1.
         22    1    3    3    0    0  0.28019220711E+02 -0.97311486864E+01  0.11922786294E+03  0.12286193587E+03  0.00000000000E+00 0. -1.
         22    1    3    3    0    0  0.72505800020E+02  0.72364556066E+02  0.34835926007E+02  0.10820010052E+03  0.00000000000E+00 0. -1.
</event>
<event>
 7    1  0.6330892E-006  0.8353093E+02  0.7818608E-02  0.1369940E+00
          2   -1    0    0  502    0  0.00000000000E+00  0.00000000000E+00  0.42897086911E+04  0.42897086911E+04  0.00000000000E+00 0. -1.
          1   -1    0    0  501    0 -0.00000000000E+00 -0.00000000000E+00 -0.27863418690E+02  0.27863418690E+02  0.00000000000E+00 0. -1.
         25    2    1    2    0    0 -0.68573389797E+01  0.65176609758E+02  0.26758592949E+04  0.26795789406E+04  0.12500127808E+03 0.  0.
          2    1    1    2  501    0  0.60517411711E+02 -0.58813495696E+02  0.44204406417E+02  0.95264967028E+02  0.00000000000E+00 0. -1.
          1    1    1    2  502    0 -0.53660072731E+02 -0.63631140619E+01  0.15417815711E+04  0.15427282021E+04  0.00000000000E+00 0. -1.
         22    1    3    3    0    0  0.26215588985E+02 -0.27588252830E+02  0.10902999718E+04  0.10909639762E+04  0.00000000000E+00 0. -1.
         22    1    3    3    0    0 -0.33072927965E+02  0.92764862588E+02  0.15855593231E+04  0.15886149645E+04  0.00000000000E+00 0. -1.
</event>
<event>
 7    1  0.6330892E-006  0.1169293E+03  0.7818608E-02  0.1404672E+00
          2   -1    0    0  502    0  0.00000000000E+00  0.00000000000E+00  0.42548422291E+03  0.42548422291E+03  0.00000000000E+00 0. -1.
          1   -1    0    0  501    0 -0.00000000000E+00 -0.00000000000E+00 -0.95428215149E+03  0.95428215149E+03  0.00000000000E+00 0. -1.
         25    2    1    2    0    0  0.14500780423E+03  0.49185331570E+01  0.40337898387E+02  0.19572362801E+03  0.12501654794E+03 0.  0.
          2    1    1    2  501    0 -0.11585945690E+03 -0.59756067526E+01 -0.87204720641E+03  0.87973032905E+03  0.00000000000E+00 0. -1.
          1    1    1    2  502    0 -0.29148347330E+02  0.10570735956E+01  0.30291137945E+03  0.30431241735E+03  0.00000000000E+00 0. -1.
         22    1    3    3    0    0  0.91237700475E+02  0.64143653376E+02  0.23493353644E+02  0.11397659375E+03  0.00000000000E+00 0.  1.
         22    1    3    3    0    0  0.53770103758E+02 -0.59225120219E+02  0.16844544743E+02  0.81747034263E+02  0.00000000000E+00 0.  1.
</event>
<event>
 7    1  0.6330892E-006  0.5626573E+02  0.7818608E-02  0.1529131E+00
          2   -1    0    0  502    0  0.00000000000E+00  0.00000000000E+00  0.70420680157E+03  0.70420680157E+03  0.00000000000E+00 0. -1.
          1   -1    0    0  501    0 -0.00000000000E+00 -0.00000000000E+00 -0.36168902504E+03  0.36168902504E+03  0.00000000000E+00 0. -1.
         25    2    1    2    0    0  0.47581092157E+02 -0.50622856363E+02  0.43012745517E+02  0.14934286143E+03  0.12500624011E+03 0.  0.
          2    1    1    2  501    0 -0.24712270874E+02 -0.53359480047E+00 -0.30673470184E+03  0.30772903400E+03  0.00000000000E+00 0. -1.
          1    1    1    2  502    0 -0.22868821282E+02  0.51156451164E+02  0.60623973285E+03  0.60882393118E+03  0.00000000000E+00 0. -1.
         22    1    3    3    0    0 -0.20150342093E+02  0.27605276323E+02 -0.62419702576E+01  0.34742621664E+02  0.00000000000E+00 0.  1.
         22    1    3    3    0    0  0.67731434250E+02 -0.78228132687E+02  0.49254715775E+02  0.11460023977E+03  0.00000000000E+00 0.  1.
</event>
<event>
 7    1  0.6330892E-006  0.8224231E+02  0.7818608E-02  0.1427719E+00
          2   -1    0    0  502    0  0.00000000000E+00  0.00000000000E+00  0.44786853483E+03  0.44786853483E+03  0.00000000000E+00 0. -1.
          1   -1    0    0  501    0 -0.00000000000E+00 -0.00000000000E+00 -0.49074192799E+03  0.49074192799E+03  0.00000000000E+00 0. -1.
         25    2    1    2    0    0 -0.23278829134E+02 -0.81983234970E+02 -0.33328340295E+02  0.15490246545E+03  0.12498336223E+03 0.  0.
          2    1    1    2  501    0 -0.29335676655E+02  0.18533076058E+02 -0.39146226410E+03  0.39299715145E+03  0.00000000000E+00 0. -1.
          1    1    1    2  502    0  0.52614505788E+02  0.63450158912E+02  0.38191721124E+03  0.39071084592E+03  0.00000000000E+00 0. -1.
         22    1    3    3    0    0  0.11350857256E+02 -0.43085898966E+02 -0.75649602763E+02  0.87795780356E+02  0.00000000000E+00 0.  1.
         22    1    3    3    0    0 -0.34629686389E+02 -0.38897336004E+02  0.42321262467E+02  0.67106685095E+02  0.00000000000E+00 0.  1.
</event>
<event>
 7    1  0.6330892E-006  0.7863690E+02  0.7818608E-02  0.1476454E+00
          2   -1    0    0  502    0  0.00000000000E+00  0.00000000000E+00  0.26007037671E+03  0.26007037671E+03  0.00000000000E+00 0. -1.
          1   -1    0    0  501    0 -0.00000000000E+00 -0.00000000000E+00 -0.12319807838E+04  0.12319807838E+04  0.00000000000E+00 0. -1.
         25    2    1    2    0    0  0.17201788310E+01  0.57770926662E+02  0.34335808853E+02  0.14193332401E+03  0.12500272682E+03 0.  0.
          2    1    1    2  501    0 -0.61185848946E+01  0.24618564500E+02 -0.11681382539E+04  0.11684136644E+04  0.00000000000E+00 0. -1.
          1    1    1    2  502    0  0.43984060636E+01 -0.82389491163E+02  0.16189203794E+03  0.18170417216E+03  0.00000000000E+00 0. -1.
         22    1    3    3    0    0  0.17742573142E+01  0.91627355893E+02  0.50256877931E+02  0.10452020913E+03  0.00000000000E+00 0. -1.
         22    1    3    3    0    0 -0.54078483220E-01 -0.33856429231E+02 -0.15921069078E+02  0.37413114884E+02  0.00000000000E+00 0. -1.
</event>
<event>
 7    1  0.6330892E-006  0.1985002E+03  0.7818608E-02  0.1166116E+00
          2   -1    0    0  502    0  0.00000000000E+00  0.00000000000E+00  0.46514632444E+04  0.46514632444E+04  0.00000000000E+00 0. -1.
          1   -1    0    0  501    0 -0.00000000000E+00 -0.00000000000E+00 -0.21114060788E+04  0.21114060788E+04  0.00000000000E+00 0. -1.
         25    2    1    2    0    0 -0.71107774277E+01  0.35511019171E+02  0.57897543509E+03  0.59343078057E+03  0.12504375733E+03 0.  0.
          2    1    1    2  501    0  0.10566147172E+03 -0.16961448361E+03 -0.20977248173E+04  0.21072215899E+04  0.00000000000E+00 0. -1.
          1    1    1    2  502    0 -0.98550694297E+02  0.13410346444E+03  0.40588065479E+04  0.40622169528E+04  0.00000000000E+00 0. -1.
         22    1    3    3    0    0  0.66309732921E+01  0.60671179867E+02  0.13079043132E+03  0.14432982644E+03  0.00000000000E+00 0. -1.
         22    1    3    3    0    0 -0.13741750720E+02 -0.25160160696E+02  0.44818500377E+03  0.44910095413E+03  0.00000000000E+00 0. -1.
</event>
<event>
 7    1  0.6330892E-006  0.1153724E+03  0.7818608E-02  0.1445447E+00
          2   -1    0    0  502    0  0.00000000000E+00  0.00000000000E+00  0.10719085197E+03  0.10719085197E+03  0.00000000000E+00 0. -1.
          1   -1    0    0  501    0 -0.00000000000E+00 -0.00000000000E+00 -0.25972446482E+03  0.25972446482E+03  0.00000000000E+00 0. -1.
         25    2    1    2    0    0 -0.53204185607E+02 -0.86701137690E+02 -0.75865884842E+02  0.17812714945E+03  0.12500350493E+03 0.  0.
          2    1    1    2  501    0 -0.15288714997E+02 -0.15331928584E+02 -0.61213437871E+02  0.64929945451E+02  0.00000000000E+00 0. -1.
          1    1    1    2  502    0  0.68492900604E+02  0.10203306627E+03 -0.15454290141E+02  0.12385822189E+03  0.00000000000E+00 0. -1.
         22    1    3    3    0    0  0.22440577071E+02 -0.65112738192E+02 -0.45963112548E-01  0.68871258786E+02  0.00000000000E+00 0.  1.
         22    1    3    3    0    0 -0.75644762679E+02 -0.21588399498E+02 -0.75819921729E+02  0.10925589066E+03  0.00000000000E+00 0.  1.
</event>
<event>
 7    1  0.6330892E-006  0.1162825E+03  0.7818608E-02  0.1299410E+00
          2   -1    0    0  502    0  0.00000000000E+00  0.00000000000E+00  0.18504727846E+04  0.18504727846E+04  0.00000000000E+00 0. -1.
          1   -1    0    0  501    0 -0.00000000000E+00 -0.00000000000E+00 -0.77575214191E+02  0.77575214191E+02  0.00000000000E+00 0. -1.
         25    2    1    2    0    0 -0.31319742144E+02  0.12541249362E+03  0.11437024844E+04  0.11577520206E+04  0.12500059400E+03 0.  0.
          2    1    1    2  501    0  0.70039062293E+02 -0.16248374957E+02 -0.45923242353E+02  0.85313680755E+02  0.00000000000E+00 0. -1.
          1    1    1    2  502    0 -0.38719320149E+02 -0.10916411866E+03  0.67511832832E+03  0.68498229743E+03  0.00000000000E+00 0. -1.
         22    1    3    3    0    0 -0.77398126785E+02  0.69272217186E+02  0.77838110670E+03  0.78528100535E+03  0.00000000000E+00 0. -1.
         22    1    3    3    0    0  0.46078384641E+02  0.56140276430E+02  0.36532137774E+03  0.37247101525E+03  0.00000000000E+00 0. -1.
</event>
<event>
 7    1  0.6330892E-006  0.1030871E+03  0.7818608E-02  0.1399956E+00
          2   -1    0    0  502    0  0.00000000000E+00  0.00000000000E+00  0.18405723612E+04  0.18405723612E+04  0.00000000000E+00 0. -1.
          1   -1    0    0  501    0 -0.00000000000E+00 -0.00000000000E+00 -0.48959904037E+03  0.48959904037E+03  0.00000000000E+00 0. -1.
         25    2    1    2    0    0  0.76927912024E+02 -0.10924146897E+03  0.35115202590E+03  0.39596030313E+03  0.12500085666E+03 0.  0.
          2    1    1    2  501    0 -0.69234492927E+02  0.75775938783E+02 -0.46135316371E+03  0.47263320829E+03  0.00000000000E+00 0. -1.
          1    1    1    2  502    0 -0.76934190971E+01  0.33465530191E+02  0.14611744587E+04  0.14615778902E+04  0.00000000000E+00 0. -1.
         22    1    3    3    0    0 -0.16796359156E+01  0.18437773051E+02  0.56984221969E+01  0.19371232987E+02  0.00000000000E+00 0. -1.
         22    1    3    3    0    0  0.78607547940E+02 -0.12767924203E+03  0.34545360370E+03  0.37658907014E+03  0.00000000000E+00 0. -1.
</event>
<event>
 7    1  0.6330892E-006  0.4379247E+02  0.7818608E-02  0.1576607E+00
          2   -1    0    0  502    0  0.00000000000E+00  0.00000000000E+00  0.89374720260E+03  0.89374720260E+03  0.00000000000E+00 0. -1.
          1   -1    0    0  501    0 -0.00000000000E+00 -0.00000000000E+00 -0.38937566833E+02  0.38937566833E+02  0.00000000000E+00 0. -1.
         25    2    1    2    0    0  0.12144784498E+00  0.54659704584E+02  0.16518434538E+03  0.21423855374E+03  0.12499836757E+03 0.  0.
          2    1    1    2  501    0 -0.18083898862E+02 -0.14908425175E+02 -0.37198153775E+01  0.23730266870E+02  0.00000000000E+00 0. -1.
          1    1    1    2  502    0  0.17962451017E+02 -0.39751279409E+02  0.69334510576E+03  0.69471594882E+03  0.00000000000E+00 0. -1.
         22    1    3    3    0    0  0.48630292025E+01 -0.10634037991E+02 -0.17008947432E+02  0.20640642184E+02  0.00000000000E+00 0. -1.
         22    1    3    3    0    0 -0.47415813575E+01  0.65293742575E+02  0.18219329282E+03  0.19359791156E+03  0.00000000000E+00 0. -1.
</event>
<event>
 7    1  0.6330892E-006  0.6628660E+02  0.7818608E-02  0.1472239E+00
          2   -1    0    0  502    0  0.00000000000E+00  0.00000000000E+00  0.23265611845E+04  0.23265611845E+04  0.00000000000E+00 0. -1.
          1   -1    0    0  501    0 -0.00000000000E+00 -0.00000000000E+00 -0.39292834826E+02  0.39292834826E+02  0.00000000000E+00 0. -1.
         25    2    1    2    0    0 -0.92545424710E+02 -0.20928681824E+02  0.12366622670E+04  0.12465796868E+04  0.12499874997E+03 0.  0.
          2    1    1    2  501    0  0.65292462500E+02  0.61321666575E+01 -0.25812297535E+01  0.65630571186E+02  0.00000000000E+00 0. -1.
          1    1    1    2  502    0  0.27252962211E+02  0.14796515166E+02  0.10531873124E+04  0.10536437614E+04  0.00000000000E+00 0. -1.
         22    1    3    3    0    0  0.11248847194E+02  0.35616610866E+02  0.23182690976E+03  0.23481651479E+03  0.00000000000E+00 0. -1.
         22    1    3    3    0    0 -0.10379427190E+03 -0.56545292690E+02  0.10048353572E+04  0.10117631720E+04  0.00000000000E+00 0. -1.
</event>
<event>
 7    1  0.6330892E-006  0.9734596E+02  0.7818608E-02  0.1381929E+00
          2   -1    0    0  502    0  0.00000000000E+00  0.00000000000E+00  0.10223100212E+04  0.10223100212E+04  0.00000000000E+00 0. -1.
          1   -1    0    0  501    0 -0.00000000000E+00 -0.00000000000E+00 -0.12096071333E+04  0.12096071333E+04  0.00000000000E+00 0. -1.
         25    2    1    2    0    0  0.23319421760E+02 -0.83192847189E+02 -0.33665433207E+02  0.15564410019E+03  0.12500751688E+03 0.  0.
          2    1    1    2  501    0  0.40955275451E+02  0.94147172478E+01 -0.11120645563E+04  0.11128582788E+04  0.00000000000E+00 0. -1.
          1    1    1    2  502    0 -0.64274697211E+02  0.73778129941E+02  0.95843287738E+03  0.96341477548E+03  0.00000000000E+00 0. -1.
         22    1    3    3    0    0  0.29475039361E+01 -0.88228606245E+02  0.26300449309E+02  0.92112368188E+02  0.00000000000E+00 0. -1.
         22    1    3    3    0    0  0.20371917824E+02  0.50357590554E+01 -0.59965882515E+02  0.63531732000E+02  0.00000000000E+00 0. -1.
</event>
<event>
 7    1  0.7943395E-006  0.1210337E+03  0.7818608E-02  0.1386467E+00
          2   -1    0    0  502    0  0.00000000000E+00  0.00000000000E+00  0.76856692491E+03  0.76856692491E+03  0.00000000000E+00 0. -1.
          1   -1    0    0  501    0 -0.00000000000E+00 -0.00000000000E+00 -0.11255690373E+04  0.11255690373E+04  0.00000000000E+00 0. -1.
         25    2    1    2    0    0  0.13002372569E+03 -0.13647454688E+02 -0.33182750043E+03  0.37792694841E+03  0.12500746390E+03 0.  0.
          2    1    1    2  501    0 -0.16499593179E+02 -0.28091228113E+02 -0.76543710049E+03  0.76613008588E+03  0.00000000000E+00 0. -1.
          1    1    1    2  502    0 -0.11352413252E+03  0.41738682801E+02  0.74026248849E+03  0.75007892796E+03  0.00000000000E+00 0. -1.
         22    1    3    3    0    0 -0.10142916587E+01  0.14042502125E+02  0.53983353720E+01  0.15078550272E+02  0.00000000000E+00 0.  1.
         22    1    3    3    0    0  0.13103801735E+03 -0.27689956813E+02 -0.33722583580E+03  0.36284839814E+03  0.00000000000E+00 0.  1.
</event>
<event>
 7    1  0.7501932E-006  0.1176483E+03  0.7818608E-02  0.1260885E+00
          2   -1    0    0  502    0  0.00000000000E+00  0.00000000000E+00  0.90332779670E+03  0.90332779670E+03  0.00000000000E+00 0. -1.
          1   -1    0    0  501    0 -0.00000000000E+00 -0.00000000000E+00 -0.23017608856E+04  0.23017608856E+04  0.00000000000E+00 0. -1.
         25    2    1    2    0    0  0.18972939840E+00 -0.17499038644E+02 -0.10183547406E+04  0.10261470241E+04  0.12500033984E+03 0.  0.
          2    1    1    2  501    0  0.51947258867E+02 -0.88397154618E+02 -0.12735683186E+04  0.12776888654E+04  0.00000000000E+00 0. -1.
          1    1    1    2  502    0 -0.52136988265E+02  0.10589619326E+03  0.89348997037E+03  0.90125279275E+03  0.00000000000E+00 0. -1.
         22    1    3    3    0    0 -0.48750915988E+02 -0.41487234179E+02 -0.72118199118E+03  0.72401747687E+03  0.00000000000E+00 0. -1.
         22    1    3    3    0    0  0.48940645386E+02  0.23988195535E+02 -0.29717274945E+03  0.30212954723E+03  0.00000000000E+00 0. -1.
</event>
<event>
 7    1  0.6330892E-006  0.7745022E+02  0.7818608E-02  0.1491221E+00
          2   -1    0    0  502    0  0.00000000000E+00  0.00000000000E+00  0.44040998479E+03  0.44040998479E+03  0.00000000000E+00 0. -1.
          1   -1    0    0  501    0 -0.00000000000E+00 -0.00000000000E+00 -0.33065613268E+04  0.33065613268E+04  0.00000000000E+00 0. -1.
         25    2    1    2    0    0  0.69349363553E+02 -0.10918566048E+02 -0.21099761202E+02  0.14490623010E+03  0.12499626511E+03 0.  0.
          2    1    1    2  501    0 -0.69609184793E+02  0.34134824732E+02 -0.32227356469E+04  0.32236680466E+04  0.00000000000E+00 0. -1.
          1    1    1    2  502    0  0.25982123987E+00 -0.23216258684E+02  0.37768406613E+03  0.37839703484E+03  0.00000000000E+00 0. -1.
         22    1    3    3    0    0  0.46200322345E+01  0.39135328960E+02  0.29030909564E+02  0.48946014963E+02  0.00000000000E+00 0. -1.
         22    1    3    3    0    0  0.64729331318E+02 -0.50053895008E+02 -0.50130670767E+02  0.95960215141E+02  0.00000000000E+00 0. -1.
</event>
<event>
 7    1  0.6330892E-006  0.1687356E+03  0.7818608E-02  0.1379828E+00
          2   -1    0    0  502    0  0.00000000000E+00  0.00000000000E+00  0.12707741645E+03  0.12707741645E+03  0.00000000000E+00 0. -1.
          1   -1    0    0  501    0 -0.00000000000E+00 -0.00000000000E+00 -0.61169068936E+03  0.61169068936E+03  0.00000000000E+00 0. -1.
         25    2    1    2    0    0  0.14565191464E+03  0.55354848672E+02 -0.20205037527E+03  0.28412645271E+03  0.12499938989E+03 0.  0.
          2    1    1    2  501    0 -0.16903070022E+03 -0.47502197909E+02 -0.34522066751E+03  0.38730497763E+03  0.00000000000E+00 0. -1.
          1    1    1    2  502    0  0.23378785577E+02 -0.78526507632E+01  0.62657769862E+02  0.67336675468E+02  0.00000000000E+00 0. -1.
         22    1    3    3    0    0  0.12105048254E+03  0.83101023657E+02 -0.10579145890E+03  0.18097191007E+03  0.00000000000E+00 0. -1.
         22    1    3    3    0    0  0.24601432095E+02 -0.27746174985E+02 -0.96258916367E+02  0.10315454264E+03  0.00000000000E+00 0. -1.
</event>
<event>
 7    1  0.6330892E-006  0.1033131E+03  0.7818608E-02  0.1364995E+00
          2   -1    0    0  502    0  0.00000000000E+00  0.00000000000E+00  0.23982862556E+04  0.23982862556E+04  0.00000000000E+00 0. -1.
          1   -1    0    0  501    0 -0.00000000000E+00 -0.00000000000E+00 -0.36170682697E+03  0.36170682697E+03  0.00000000000E+00 0. -1.
         25    2    1    2    0    0  0.68516945654E+02  0.35058439850E+02 -0.11657318243E+03  0.18744416540E+03  0.12498936849E+03 0.  0.
          2    1    1    2  501    0 -0.11313339856E+03 -0.26024031382E+02 -0.19339402013E+03  0.22556077474E+03  0.00000000000E+00 0. -1.
          1    1    1    2  502    0  0.44616452901E+02 -0.90344084682E+01  0.23465466312E+04  0.23469881424E+04  0.00000000000E+00 0. -1.
         22    1    3    3    0    0  0.10113673085E+03  0.34833397231E+02 -0.11135592303E+03  0.15440902009E+03  0.00000000000E+00 0. -1.
         22    1    3    3    0    0 -0.32619785196E+02  0.22504261961E+00 -0.52172593919E+01  0.33035145315E+02  0.00000000000E+00 0. -1.
</event>
<event>
 7    1  0.6330892E-006  0.4589154E+02  0.7818608E-02  0.1567164E+00
          2   -1    0    0  502    0  0.00000000000E+00  0.00000000000E+00  0.16846221717E+04  0.16846221717E+04  0.00000000000E+00 0. -1.
          1   -1    0    0  501    0 -0.00000000000E+00 -0.00000000000E+00 -0.10764376183E+03  0.10764376183E+03  0.00000000000E+00 0. -1.
         25    2    1    2    0    0 -0.16795761070E+02 -0.39846365775E+02  0.14847664700E+03  0.19884451396E+03  0.12499598223E+03 0.  0.
          2    1    1    2  501    0  0.23016762959E+02 -0.57425634702E+01 -0.80395732873E+02  0.83822564245E+02  0.00000000000E+00 0. -1.
          1    1    1    2  502    0 -0.62210018891E+01  0.45588929245E+02  0.15088974958E+04  0.15095988554E+04  0.00000000000E+00 0. -1.
         22    1    3    3    0    0 -0.23706804532E+02 -0.84130921913E+02  0.10034369026E+03  0.13307471878E+03  0.00000000000E+00 0.  1.
         22    1    3    3    0    0  0.69110434619E+01  0.44284556138E+02  0.48132956744E+02  0.65769795187E+02  0.00000000000E+00 0.  1.
</event>
<event>
 7    1  0.6330892E-006  0.2312791E+03  0.7818608E-02  0.1174993E+00
          2   -1    0    0  502    0  0.00000000000E+00  0.00000000000E+00  0.86655562107E+03  0.86655562107E+03  0.00000000000E+00 0. -1.
          1   -1    0    0  501    0 -0.00000000000E+00 -0.00000000000E+00 -0.56403329605E+03  0.56403329605E+03  0.00000000000E+00 0. -1.
         25    2    1    2    0    0 -0.12180491492E+03 -0.19406576824E+02  0.23122788767E+03  0.29035148465E+03  0.12499838429E+03 0.  0.
          2    1    1    2  501    0  0.22096486284E+03  0.10200928370E+03 -0.49917908430E+03  0.55534774941E+03  0.00000000000E+00 0. -1.
          1    1    1    2  502    0 -0.99159947918E+02 -0.82602706880E+02  0.57047352164E+03  0.58488968306E+03  0.00000000000E+00 0. -1.
         22    1    3    3    0    0 -0.11985453066E+03 -0.58550241458E+02  0.15392826398E+03  0.20368394573E+03  0.00000000000E+00 0.  1.
         22    1    3    3    0    0 -0.19503842663E+01  0.39143664634E+02  0.77299623691E+02  0.86667538920E+02  0.00000000000E+00 0.  1.
</event>
<event>
 7    1  0.6330892E-006  0.9855841E+02  0.7818608E-02  0.1377698E+00
          2   -1    0    0  502    0  0.00000000000E+00  0.00000000000E+00  0.10811427292E+03  0.10811427292E+03  0.00000000000E+00 0. -1.
          1   -1    0    0  501    0 -0.00000000000E+00 -0.00000000000E+00 -0.12542873158E+04  0.12542873158E+04  0.00000000000E+00 0. -1.
         25    2    1    2    0    0 -0.31433574042E+02  0.63428224401E+02 -0.35247629139E+03  0.38062469151E+03  0.12499764225E+03 0.  0.
          2    1    1    2  501    0  0.72321291852E+02 -0.76622924716E+02 -0.87951552452E+03  0.88580415427E+03  0.00000000000E+00 0. -1.
          1    1    1    2  502    0 -0.40887717810E+02  0.13194700315E+02  0.85818773029E+02  0.95972742945E+02  0.00000000000E+00 0. -1.
         22    1    3    3    0    0 -0.79563388861E+02  0.48633443320E+02 -0.22411875048E+03  0.24274422542E+03  0.00000000000E+00 0.  1.
         22    1    3    3    0    0  0.48129814819E+02  0.14794781081E+02 -0.12835754091E+03  0.13788046609E+03  0.00000000000E+00 0.  1.
</event>
<event>
 7    1  0.6330892E-006  0.2772009E+03  0.7818608E-02  0.1281868E+00
          2   -1    0    0  502    0  0.00000000000E+00  0.00000000000E+00  0.73668864803E+03  0.73668864803E+03  0.00000000000E+00 0. -1.
          1   -1    0    0  501    0 -0.00000000000E+00 -0.00000000000E+00 -0.68330806274E+03  0.68330806274E+03  0.00000000000E+00 0. -1.
         25    2    1    2    0    0 -0.12884792961E+03  0.23553439848E+03 -0.80468874187E+02  0.30688649430E+03  0.12500335530E+03 0.  0.
          2    1    1    2  501    0  0.26353001850E+02  0.23846092506E+02 -0.45771777772E+03  0.45909550300E+03  0.00000000000E+00 0. -1.
          1    1    1    2  502    0  0.10249492776E+03 -0.25938049099E+03  0.59156723719E+03  0.65401471347E+03  0.00000000000E+00 0. -1.
         22    1    3    3    0    0  0.95960472004E+01 -0.19095035802E+00  0.14584150196E+02  0.17459038371E+02  0.00000000000E+00 0. -1.
         22    1    3    3    0    0 -0.13844397681E+03  0.23572534884E+03 -0.95053024382E+02  0.28942745593E+03  0.00000000000E+00 0. -1.
</event>
<event>
 7    1  0.6330892E-006  0.5235736E+02  0.7818608E-02  0.1547624E+00
          2   -1    0    0  502    0  0.00000000000E+00  0.00000000000E+00  0.25621432379E+02  0.25621432379E+02  0.00000000000E+00 0. -1.
          1   -1    0    0  501    0 -0.00000000000E+00 -0.00000000000E+00 -0.18338234365E+04  0.18338234365E+04  0.00000000000E+00 0. -1.
         25    2    1    2    0    0  0.41371820200E+02 -0.81823686016E+01 -0.77930840768E+03  0.79039600625E+03  0.12500269497E+03 0.  0.
          2    1    1    2  501    0 -0.52623900624E+02 -0.12499422907E+02 -0.10411165865E+04  0.10425206268E+04  0.00000000000E+00 0. -1.
          1    1    1    2  502    0  0.11252080424E+02  0.20681791509E+02  0.12222990055E+02  0.26528235896E+02  0.00000000000E+00 0. -1.
         22    1    3    3    0    0  0.75793239592E+02 -0.30627876099E+02 -0.36436211089E+03  0.37341991084E+03  0.00000000000E+00 0.  1.
         22    1    3    3    0    0 -0.34421419391E+02  0.22445507497E+02 -0.41494629679E+03  0.41697609541E+03  0.00000000000E+00 0.  1.
</event>
<event>
 7    1  0.6330892E-006  0.4961060E+02  0.7818608E-02  0.1465853E+00
          2   -1    0    0  502    0  0.00000000000E+00  0.00000000000E+00  0.16615231812E+04  0.16615231812E+04  0.00000000000E+00 0. -1.
          1   -1    0    0  501    0 -0.00000000000E+00 -0.00000000000E+00 -0.59812510030E+03  0.59812510030E+03  0.00000000000E+00 0. -1.
         25    2    1    2    0    0 -0.48334127690E+02  0.36932367427E+02  0.10100056934E+04  0.10195310714E+04  0.12502766556E+03 0.  0.
          2    1    1    2  501    0  0.41425048809E+02  0.12863165704E+02 -0.59159024770E+03  0.59317831794E+03  0.00000000000E+00 0. -1.
          1    1    1    2  502    0  0.69090788803E+01 -0.49795533131E+02  0.64498263514E+03  0.64693889211E+03  0.00000000000E+00 0. -1.
         22    1    3    3    0    0 -0.12457859785E+02  0.11383639594E+02  0.12370240492E+02  0.20923870833E+02  0.00000000000E+00 0.  1.
         22    1    3    3    0    0 -0.35876267905E+02  0.25548727833E+02  0.99763545295E+03  0.99860720059E+03  0.00000000000E+00 0.  1.
</event>
<event>
 7    1  0.6330892E-006  0.7206787E+02  0.7818608E-02  0.1368282E+00
          2   -1    0    0  502    0  0.00000000000E+00  0.00000000000E+00  0.18250758861E+04  0.18250758861E+04  0.00000000000E+00 0. -1.
          1   -1    0    0  501    0 -0.00000000000E+00 -0.00000000000E+00 -0.12857019546E+02  0.12857019546E+02  0.00000000000E+00 0. -1.
         25    2    1    2    0    0 -0.26063485216E+02 -0.85282986571E+01  0.91359436281E+03  0.92251403499E+03  0.12500179141E+03 0.  0.
          2    1    1    2  501    0  0.47060112098E+02 -0.60413118819E+02  0.21937774339E+03  0.23235962079E+03  0.00000000000E+00 0. -1.
          1    1    1    2  502    0 -0.20996626881E+02  0.68941417477E+02  0.67924676040E+03  0.68305924992E+03  0.00000000000E+00 0. -1.
         22    1    3    3    0    0  0.25861583387E+02 -0.38844365096E+02  0.66945629503E+03  0.67108079779E+03  0.00000000000E+00 0. -1.
         22    1    3    3    0    0 -0.51925068603E+02  0.30316066439E+02  0.24413806777E+03  0.25143323720E+03  0.00000000000E+00 0. -1.
</event>
<event>
 7    1  0.6330892E-006  0.1132882E+03  0.7818608E-02  0.1313338E+00
          2   -1    0    0  502    0  0.00000000000E+00  0.00000000000E+00  0.19723025364E+04  0.19723025364E+04  0.00000000000E+00 0. -1.
          1   -1    0    0  501    0 -0.00000000000E+00 -0.00000000000E+00 -0.28196330692E+03  0.28196330692E+03  0.00000000000E+00 0. -1.
         25    2    1    2    0    0 -0.23214094708E+02 -0.11205418142E+03  0.70704063780E+03  0.72706685681E+03  0.12499886804E+03 0.  0.
          2    1    1    2  501    0  0.80061054792E+02  0.80554559435E+02 -0.25920608022E+03  0.28299576245E+03  0.00000000000E+00 0. -1.
          1    1    1    2  502    0 -0.56846960083E+02  0.31499621989E+02  0.12425046719E+04  0.12442032240E+04  0.00000000000E+00 0. -1.
         22    1    3    3    0    0 -0.66871870928E+01 -0.25694142809E+02  0.17176382239E+02  0.31621757585E+02  0.00000000000E+00 0.  1.
         22    1    3    3    0    0 -0.16526907616E+02 -0.86360038615E+02  0.68986425556E+03  0.69544509923E+03  0.00000000000E+00 0.  1.
</event>
<event>
 7    1  0.6330892E-006  0.8764602E+02  0.7818608E-02  0.1383997E+00
          2   -1    0    0  502    0  0.00000000000E+00  0.00000000000E+00  0.16274708902E+04  0.16274708902E+04  0.00000000000E+00 0. -1.
          1   -1    0    0  501    0 -0.00000000000E+00 -0.00000000000E+00 -0.34182034467E+03  0.34182034467E+03  0.00000000000E+00 0. -1.
         25    2    1    2    0    0  0.13893353608E+01 -0.12663615013E+03 -0.66247202172E+02  0.18987359123E+03  0.12499857631E+03 0.  0.
          2    1    1    2  501    0 -0.11597894994E+02  0.81888808344E+02 -0.20540921320E+03  0.22143448911E+03  0.00000000000E+00 0. -1.
          1    1    1    2  502    0  0.10208559633E+02  0.44747341786E+02  0.15573069609E+04  0.15579831546E+04  0.00000000000E+00 0. -1.
         22    1    3    3    0    0 -0.51738733287E+02 -0.10351200578E+03 -0.24051572034E+02  0.11819521979E+03  0.00000000000E+00 0. -1.
         22    1    3    3    0    0  0.53128068648E+02 -0.23124144346E+02 -0.42195630138E+02  0.71678371443E+02  0.00000000000E+00 0. -1.
</event>
<event>
 7    1  0.6330892E-006  0.1464193E+03  0.7818608E-02  0.1381631E+00
          2   -1    0    0  502    0  0.00000000000E+00  0.00000000000E+00  0.31828940688E+03  0.31828940688E+03  0.00000000000E+00 0. -1.
          1   -1    0    0  501    0 -0.00000000000E+00 -0.00000000000E+00 -0.15354110238E+04  0.15354110238E+04  0.00000000000E+00 0. -1.
         25    2    1    2    0    0 -0.97835047003E+02  0.91073933970E+02 -0.21659515350E+03  0.28356054880E+03  0.12500786552E+03 0.  0.
          2    1    1    2  501    0 -0.25884653445E+02 -0.10694406025E+02 -0.12660607110E+04  0.12663704472E+04  0.00000000000E+00 0. -1.
          1    1    1    2  502    0  0.12371970045E+03 -0.80379527944E+02  0.26553424759E+03  0.30376943467E+03  0.00000000000E+00 0. -1.
         22    1    3    3    0    0  0.86822571732E+01  0.71009457747E+02 -0.11223857801E+03  0.13309854647E+03  0.00000000000E+00 0. -1.
         22    1    3    3    0    0 -0.10651730418E+03  0.20064476222E+02 -0.10435657550E+03  0.15046200233E+03  0.00000000000E+00 0. -1.
</event>
<event>
 7    1  0.6330892E-006  0.4576164E+02  0.7818608E-02  0.1507622E+00
          2   -1    0    0  502    0  0.00000000000E+00  0.00000000000E+00  0.18095836500E+04  0.18095836500E+04  0.00000000000E+00 0. -1.
          1   -1    0    0  501    0 -0.00000000000E+00 -0.00000000000E+00 -0.13241870931E+02  0.13241870931E+02  0.00000000000E+00 0. -1.
         25    2    1    2    0    0  0.28068020736E+02  0.39157549659E+02  0.67696988244E+03  0.69009924338E+03  0.12501046553E+03 0.  0.
          2    1    1    2  501    0  0.17616564067E+02 -0.30363762957E+02  0.43721391515E+02  0.56070148086E+02  0.00000000000E+00 0. -1.
          1    1    1    2  502    0 -0.45684584803E+02 -0.87937867025E+01  0.10756505051E+04  0.10766561295E+04  0.00000000000E+00 0. -1.
         22    1    3    3    0    0  0.54458019071E+02 -0.38799568724E+01  0.13268886238E+03  0.14348192955E+03  0.00000000000E+00 0.  1.
         22    1    3    3    0    0 -0.26389998335E+02  0.43037506532E+02  0.54428102006E+03  0.54661731383E+03  0.00000000000E+00 0.  1.
</event>
<event>
 7    1  0.6330892E-006  0.1878362E+03  0.7818608E-02  0.1314457E+00
          2   -1    0    0  502    0  0.00000000000E+00  0.00000000000E+00  0.50829259876E+03  0.50829259876E+03  0.00000000000E+00 0. -1.
          1   -1    0    0  501    0 -0.00000000000E+00 -0.00000000000E+00 -0.77568583658E+03  0.77568583658E+03  0.00000000000E+00 0. -1.
         25    2    1    2    0    0 -0.75243023822E+02 -0.14401360858E+03  0.10648961361E+02  0.20528457266E+03  0.12500769298E+03 0.  0.
          2    1    1    2  501    0  0.75709776140E+01 -0.38057998973E+02 -0.65419744685E+03  0.65534725944E+03  0.00000000000E+00 0. -1.
          1    1    1    2  502    0  0.67672046208E+02  0.18207160755E+03  0.37615524768E+03  0.42334660324E+03  0.00000000000E+00 0. -1.
         22    1    3    3    0    0 -0.10243122544E+03 -0.64714330398E+02  0.50293796278E+01  0.12126580377E+03  0.00000000000E+00 0.  1.
         22    1    3    3    0    0  0.27188201621E+02 -0.79299278178E+02  0.56195817330E+01  0.84018768890E+02  0.00000000000E+00 0.  1.
</event>
<event>
 7    1  0.6330892E-006  0.6259649E+02  0.7818608E-02  0.1387433E+00
          2   -1    0    0  502    0  0.00000000000E+00  0.00000000000E+00  0.15716746957E+04  0.15716746957E+04  0.00000000000E+00 0. -1.
          1   -1    0    0  501    0 -0.00000000000E+00 -0.00000000000E+00 -0.54578938537E+02  0.54578938537E+02  0.00000000000E+00 0. -1.
         25    2    1    2    0    0  0.31411481975E+02  0.74969068198E+02  0.13126210423E+03  0.19865565647E+03  0.12500914949E+03 0.  0.
          2    1    1    2  501    0 -0.59646846829E+02 -0.18988780140E+02  0.28435232128E+02  0.68752327481E+02  0.00000000000E+00 0. -1.
          1    1    1    2  502    0  0.28235364855E+02 -0.55980288057E+02  0.13573984208E+04  0.13588456502E+04  0.00000000000E+00 0. -1.
         22    1    3    3    0    0  0.27510059460E+02  0.90456008952E+02  0.14793531703E+03  0.17556751110E+03  0.00000000000E+00 0.  1.
         22    1    3    3    0    0  0.39014225152E+01 -0.15486940754E+02 -0.16673212808E+02  0.23088145376E+02  0.00000000000E+00 0.  1.
</event>
<event>
 7    1  0.6330892E-006  0.5891387E+02  0.7818608E-02  0.1502953E+00
          2   -1    0    0  502    0  0.00000000000E+00  0.00000000000E+00  0.16252867820E+04  0.16252867820E+04  0.00000000000E+00 0. -1.
          1   -1    0    0  501    0 -0.00000000000E+00 -0.00000000000E+00 -0.37763591863E+03  0.37763591863E+03  0.00000000000E+00 0. -1.
         25    2    1    2    0    0 -0.72418002565E+02 -0.43323566170E+02  0.55747712022E+03  0.57751830975E+03  0.12500144021E+03 0.  0.
          2    1    1    2  501    0  0.44743916089E+02  0.38170136527E+02 -0.36507411648E+03  0.36978113510E+03  0.00000000000E+00 0. -1.
          1    1    1    2  502    0  0.27674086476E+02  0.51534296427E+01  0.10552478597E+04  0.10556232558E+04  0.00000000000E+00 0. -1.
         22    1    3    3    0    0  0.33751952393E+02 -0.10916931558E+01  0.85981861165E+02  0.92375681506E+02  0.00000000000E+00 0.  1.
         22    1    3    3    0    0 -0.10616995496E+03 -0.42231873014E+02  0.47149525905E+03  0.48514262825E+03  0.00000000000E+00 0.  1.
</event>
<event>
 7    1  0.6330892E-006  0.2184615E+03  0.7818608E-02  0.1172302E+00
          2   -1    0    0  502    0  0.00000000000E+00  0.00000000000E+00  0.16849531171E+04  0.16849531171E+04  0.00000000000E+00 0. -1.
          1   -1    0    0  501    0 -0.00000000000E+00 -0.00000000000E+00 -0.99270915864E+03  0.99270915864E+03  0.00000000000E+00 0. -1.
         25    2    1    2    0    0 -0.50208198788E+02  0.18536684082E+03 -0.32010629494E+03  0.39367001885E+03  0.12500525900E+03 0.  0.
          2    1    1    2  501    0  0.18956857289E+03 -0.16478457117E+03 -0.60783822386E+03  0.65769104077E+03  0.00000000000E+00 0. -1.
          1    1    1    2  502    0 -0.13936037410E+03 -0.20582269650E+02  0.16201884772E+04  0.16263012161E+04  0.00000000000E+00 0. -1.
         22    1    3    3    0    0 -0.60092641964E+02  0.19931764373E+03 -0.31114608673E+03  0.37436684683E+03  0.00000000000E+00 0.  1.
         22    1    3    3    0    0  0.98844431766E+01 -0.13950802908E+02 -0.89602082144E+01  0.19303172018E+02  0.00000000000E+00 0.  1.
</event>
<event>
 7    1  0.6330892E-006  0.8011957E+02  0.7818608E-02  0.1364402E+00
          2   -1    0    0  502    0  0.00000000000E+00  0.00000000000E+00  0.22256607802E+04  0.22256607802E+04  0.00000000000E+00 0. -1.
          1   -1    0    0  501    0 -0.00000000000E+00 -0.00000000000E+00 -0.40229928708E+02  0.40229928708E+02  0.00000000000E+00 0. -1.
         25    2    1    2    0    0 -0.53558882871E+02 -0.49478743851E+02  0.15660198489E+03  0.21322782203E+03  0.12500088956E+03 0.  0.
          2    1    1    2  501    0  0.49951727687E+02 -0.31380923727E+02  0.67419517097E+02  0.89584199268E+02  0.00000000000E+00 0. -1.
          1    1    1    2  502    0  0.36071551843E+01  0.80859667578E+02  0.19614093495E+04  0.19630786876E+04  0.00000000000E+00 0. -1.
         22    1    3    3    0    0 -0.70298219419E+02  0.13456142389E+02  0.46642844572E+02  0.85431038688E+02  0.00000000000E+00 0. -1.
         22    1    3    3    0    0  0.16739336549E+02 -0.62934886240E+02  0.10995914031E+03  0.12779678334E+03  0.00000000000E+00 0. -1.
</event>
<event>
 7    1  0.6330892E-006  0.6939088E+02  0.7818608E-02  0.1412697E+00
          2   -1    0    0  502    0  0.00000000000E+00  0.00000000000E+00  0.20377383288E+03  0.20377383288E+03  0.00000000000E+00 0. -1.
          1   -1    0    0  501    0 -0.00000000000E+00 -0.00000000000E+00 -0.16609856464E+04  0.16609856464E+04  0.00000000000E+00 0. -1.
         25    2    1    2    0    0  0.27565083480E+02  0.49402353955E+01 -0.34314514754E+03  0.36627455651E+03  0.12499687480E+03 0.  0.
          2    1    1    2  501    0 -0.67515114097E+02 -0.28066193009E+02 -0.13024641260E+04  0.13045147762E+04  0.00000000000E+00 0. -1.
          1    1    1    2  502    0  0.39950030617E+02  0.23125957614E+02  0.18839745996E+03  0.19397014662E+03  0.00000000000E+00 0. -1.
         22    1    3    3    0    0  0.14107520002E+02  0.57205657794E+02 -0.90934300029E+02  0.10835384777E+03  0.00000000000E+00 0.  1.
         22    1    3    3    0    0  0.13457563478E+02 -0.52265422399E+02 -0.25221084751E+03  0.25792070874E+03  0.00000000000E+00 0.  1.
</event>
<event>
 7    1  0.6330892E-006  0.4644513E+02  0.7818608E-02  0.1568221E+00
          2   -1    0    0  502    0  0.00000000000E+00  0.00000000000E+00  0.28050576119E+03  0.28050576119E+03  0.00000000000E+00 0. -1.
          1   -1    0    0  501    0 -0.00000000000E+00 -0.00000000000E+00 -0.13151003828E+04  0.13151003828E+04  0.00000000000E+00 0. -1.
         25    2    1    2    0    0  0.26220445715E+02  0.21466443723E+02 -0.39888825503E+03  0.41938470015E+03  0.12499346676E+03 0.  0.
          2    1    1    2  501    0 -0.86541454277E+01  0.21616704450E+02 -0.90381037700E+03  0.90411026634E+03  0.00000000000E+00 0. -1.
          1    1    1    2  502    0 -0.17566300287E+02 -0.43083148173E+02  0.26810401038E+03  0.27211117754E+03  0.00000000000E+00 0. -1.
         22    1    3    3    0    0 -0.28403169809E+02 -0.38090740697E+02 -0.12136463819E+03  0.13033426252E+03  0.00000000000E+00 0. -1.
         22    1    3    3    0    0  0.54623615524E+02  0.59557184420E+02 -0.27752361684E+03  0.28905043763E+03  0.00000000000E+00 0. -1.
</event>
<event>
 7    1  0.6330892E-006  0.4411025E+02  0.7818608E-02  0.1526846E+00
          2   -1    0    0  502    0  0.00000000000E+00  0.00000000000E+00  0.46587704709E+03  0.46587704709E+03  0.00000000000E+00 0. -1.
          1   -1    0    0  501    0 -0.00000000000E+00 -0.00000000000E+00 -0.45088387351E+03  0.45088387351E+03  0.00000000000E+00 0. -1.
         25    2    1    2    0    0  0.56078978431E+01 -0.66580910148E+02  0.11909829486E+03  0.18513053733E+03  0.12499778357E+03 0.  0.
          2    1    1    2  501    0 -0.21116838428E+02  0.38579078817E+02 -0.41588882122E+03  0.41820781653E+03  0.00000000000E+00 0. -1.
          1    1    1    2  502    0  0.15508940585E+02  0.28001831331E+02  0.31178369994E+03  0.31342256675E+03  0.00000000000E+00 0. -1.
         22    1    3    3    0    0  0.39100773567E+02 -0.91403797403E+02  0.75728254857E+02  0.12497317015E+03  0.00000000000E+00 0.  1.
         22    1    3    3    0    0 -0.33492875724E+02  0.24822887254E+02  0.43370040005E+02  0.60157367179E+02  0.00000000000E+00 0.  1.
</event>
<event>
 7    1  0.6330892E-006  0.3493199E+02  0.7818608E-02  0.1629962E+00
          2   -1    0    0  502    0  0.00000000000E+00  0.00000000000E+00  0.11011295356E+04  0.11011295356E+04  0.00000000000E+00 0. -1.
          1   -1    0    0  501    0 -0.00000000000E+00 -0.00000000000E+00 -0.10391611197E+04  0.10391611197E+04  0.00000000000E+00 0. -1.
         25    2    1    2    0    0 -0.13839728083E+02  0.53777680449E+02 -0.27464007715E+03  0.30681492183E+03  0.12499858915E+03 0.  0.
          2    1    1    2  501    0  0.98387288055E+00 -0.21318311906E+02 -0.74800055527E+03  0.74830493057E+03  0.00000000000E+00 0. -1.
          1    1    1    2  502    0  0.12855855202E+02 -0.32459368543E+02  0.10846090484E+04  0.10851708029E+04  0.00000000000E+00 0. -1.
         22    1    3    3    0    0  0.46872174094E+02  0.33530900352E+02 -0.20173052588E+03  0.20980116076E+03  0.00000000000E+00 0. -1.
         22    1    3    3    0    0 -0.60711902177E+02  0.20246780098E+02 -0.72909551268E+02  0.97013761067E+02  0.00000000000E+00 0. -1.
</event>
<event>
 7    1  0.6330892E-006  0.7657661E+02  0.7818608E-02  0.1423726E+00
          2   -1    0    0  502    0  0.00000000000E+00  0.00000000000E+00  0.89500833800E+02  0.89500833800E+02  0.00000000000E+00 0. -1.
          1   -1    0    0  501    0 -0.00000000000E+00 -0.00000000000E+00 -0.61582853069E+03  0.61582853069E+03  0.00000000000E+00 0. -1.
         25    2    1    2    0    0  0.27994640453E+02  0.10825309978E+03 -0.24113499760E+03  0.29372615868E+03  0.12500614273E+03 0.  0.
          2    1    1    2  501    0 -0.57385089323E+01 -0.37988127685E+02 -0.32538909211E+03  0.32764933938E+03  0.00000000000E+00 0. -1.
          1    1    1    2  502    0 -0.22256131521E+02 -0.70264972090E+02  0.40196392820E+02  0.83953866432E+02  0.00000000000E+00 0. -1.
         22    1    3    3    0    0 -0.31738349697E+02  0.94090453303E+02 -0.18765979291E+03  0.21231235037E+03  0.00000000000E+00 0.  1.
         22    1    3    3    0    0  0.59732990150E+02  0.14162646473E+02 -0.53475204696E+02  0.81413808317E+02  0.00000000000E+00 0.  1.
</event>
<event>
 7    1  0.6330892E-006  0.7544088E+02  0.7818608E-02  0.1449157E+00
          2   -1    0    0  502    0  0.00000000000E+00  0.00000000000E+00  0.93205305084E+03  0.93205305084E+03  0.00000000000E+00 0. -1.
          1   -1    0    0  501    0 -0.00000000000E+00 -0.00000000000E+00 -0.23045684551E+03  0.23045684551E+03  0.00000000000E+00 0. -1.
         25    2    1    2    0    0  0.10332962156E+02 -0.66205839690E+02  0.25084815544E+03  0.28816502677E+03  0.12499720896E+03 0.  0.
          2    1    1    2  501    0  0.32163255878E+02  0.18491082694E+01 -0.20831170130E+03  0.21078818545E+03  0.00000000000E+00 0. -1.
          1    1    1    2  502    0 -0.42496218034E+02  0.64356731420E+02  0.65905975118E+03  0.66355668413E+03  0.00000000000E+00 0. -1.
         22    1    3    3    0    0 -0.22863954265E+01 -0.52019287260E+02  0.26133682701E+03  0.26647358406E+03  0.00000000000E+00 0. -1.
         22    1    3    3    0    0  0.12619357583E+02 -0.14186552430E+02 -0.10488671563E+02  0.21691442709E+02  0.00000000000E+00 0. -1.
</event>
<event>
 7    1  0.6330892E-006  0.8991620E+02  0.7818608E-02  0.1306076E+00
          2   -1    0    0  502    0  0.00000000000E+00  0.00000000000E+00  0.19448425743E+03  0.19448425743E+03  0.00000000000E+00 0. -1.
          1   -1    0    0  501    0 -0.00000000000E+00 -0.00000000000E+00 -0.21917590230E+03  0.21917590230E+03  0.00000000000E+00 0. -1.
         25    2    1    2    0    0 -0.47855236047E+02  0.10333299427E+02 -0.59551094570E+02  0.14686310392E+03  0.12500215092E+03 0.  0.
          2    1    1    2  501    0  0.99364895521E+02 -0.84033217648E+02 -0.53527519094E+02  0.14071303931E+03  0.00000000000E+00 0. -1.
          1    1    1    2  502    0 -0.51509659474E+02  0.73699918221E+02  0.88386968796E+02  0.12608401650E+03  0.00000000000E+00 0. -1.
         22    1    3    3    0    0  0.21046507129E+02 -0.19441532212E+02 -0.65575628872E+02  0.71561803632E+02  0.00000000000E+00 0. -1.
         22    1    3    3    0    0 -0.68901743175E+02  0.29774831639E+02  0.60245343016E+01  0.75301300290E+02  0.00000000000E+00 0. -1.
</event>
<event>
 7    1  0.6330892E-006  0.1494119E+03  0.7818608E-02  0.1318519E+00
          2   -1    0    0  502    0  0.00000000000E+00  0.00000000000E+00  0.37503406483E+03  0.37503406483E+03  0.00000000000E+00 0. -1.
          1   -1    0    0  501    0 -0.00000000000E+00 -0.00000000000E+00 -0.73773503417E+03  0.73773503417E+03  0.00000000000E+00 0. -1.
         25    2    1    2    0    0 -0.51862008071E+01 -0.16137223782E+03  0.22925811502E+03  0.30700527026E+03  0.12500022738E+03 0.  0.
          2    1    1    2  501    0  0.38504105193E+02  0.27013094811E+02 -0.65284489290E+03  0.65453703302E+03  0.00000000000E+00 0. -1.
          1    1    1    2  502    0 -0.33317904386E+02  0.13435914301E+03  0.60885808536E+02  0.15122679572E+03  0.00000000000E+00 0. -1.
         22    1    3    3    0    0  0.89782248503E+01 -0.17934238818E+03  0.18901787924E+03  0.26071451703E+03  0.00000000000E+00 0. -1.
         22    1    3    3    0    0 -0.14164425657E+02  0.17970150359E+02  0.40240235788E+02  0.46290753228E+02  0.00000000000E+00 0. -1.
</event>
<event>
 7    1  0.6330892E-006  0.5496736E+02  0.7818608E-02  0.1484293E+00
          2   -1    0    0  502    0  0.00000000000E+00  0.00000000000E+00  0.59098642115E+02  0.59098642115E+02  0.00000000000E+00 0. -1.
          1   -1    0    0  501    0 -0.00000000000E+00 -0.00000000000E+00 -0.48088416141E+03  0.48088416141E+03  0.00000000000E+00 0. -1.
         25    2    1    2    0    0 -0.20055626755E+02 -0.25321687292E+02 -0.13401761326E+03  0.18608805904E+03  0.12499851616E+03 0.  0.
          2    1    1    2  501    0  0.74615826056E+01  0.57265682214E+02 -0.30845037232E+03  0.31380991979E+03  0.00000000000E+00 0. -1.
          1    1    1    2  502    0  0.12594044149E+02 -0.31943994923E+02  0.20682466279E+02  0.40084824697E+02  0.00000000000E+00 0. -1.
         22    1    3    3    0    0 -0.36240262962E+02 -0.68009639215E+02 -0.11054320126E+03  0.13475335629E+03  0.00000000000E+00 0.  1.
         22    1    3    3    0    0  0.16184636207E+02  0.42687951923E+02 -0.23474412001E+02  0.51334702759E+02  0.00000000000E+00 0.  1.
</event>
<event>
 7    1  0.6330892E-006  0.6867455E+02  0.7818608E-02  0.1425769E+00
          2   -1    0    0  502    0  0.00000000000E+00  0.00000000000E+00  0.22455679749E+02  0.22455679749E+02  0.00000000000E+00 0. -1.
          1   -1    0    0  501    0 -0.00000000000E+00 -0.00000000000E+00 -0.27260384914E+04  0.27260384914E+04  0.00000000000E+00 0. -1.
         25    2    1    2    0    0 -0.53363517887E+02  0.82592477780E+02 -0.49499572805E+03  0.51991869046E+03  0.12500196587E+03 0.  0.
          2    1    1    2  501    0  0.36228042219E+02 -0.21596195080E+02 -0.21158016584E+04  0.21162219932E+04  0.00000000000E+00 0. -1.
          1    1    1    2  502    0  0.17135475668E+02 -0.60996282700E+02 -0.92785425228E+02  0.11235348755E+03  0.00000000000E+00 0. -1.
         22    1    3    3    0    0 -0.39240788462E+02  0.62372359716E+02 -0.48902046502E+03  0.49454136930E+03  0.00000000000E+00 0.  1.
         22    1    3    3    0    0 -0.14122729425E+02  0.20220118064E+02 -0.59752630250E+01  0.25377321158E+02  0.00000000000E+00 0.  1.
</event>
<event>
 7    1  0.6330892E-006  0.1086597E+03  0.7818608E-02  0.1383872E+00
          2   -1    0    0  502    0  0.00000000000E+00  0.00000000000E+00  0.24402979765E+03  0.24402979765E+03  0.00000000000E+00 0. -1.
          1   -1    0    0  501    0 -0.00000000000E+00 -0.00000000000E+00 -0.65846776106E+03  0.65846776106E+03  0.00000000000E+00 0. -1.
         25    2    1    2    0    0 -0.51663420209E+02 -0.12454543064E+03  0.41041686600E+02  0.18838694219E+03  0.12499818665E+03 0.  0.
          2    1    1    2  501    0  0.61011533513E+02  0.88685396860E+02 -0.57705669632E+03  0.58701102000E+03  0.00000000000E+00 0. -1.
          1    1    1    2  502    0 -0.93481133036E+01  0.35860033784E+02  0.12157704631E+03  0.12709959652E+03  0.00000000000E+00 0. -1.
         22    1    3    3    0    0 -0.43295249317E+02 -0.15030661545E+03  0.39102324167E+02  0.16123135246E+03  0.00000000000E+00 0. -1.
         22    1    3    3    0    0 -0.83681708924E+01  0.25761184806E+02  0.19393624335E+01  0.27155589725E+02  0.00000000000E+00 0. -1.
</event>
<event>
 7    1  0.6330892E-006  0.1250204E+03  0.7818608E-02  0.1280743E+00
          2   -1    0    0  502    0  0.00000000000E+00  0.00000000000E+00  0.32834937205E+03  0.32834937205E+03  0.00000000000E+00 0. -1.
          1   -1    0    0  501    0 -0.00000000000E+00 -0.00000000000E+00 -0.86635862468E+03  0.86635862468E+03  0.00000000000E+00 0. -1.
         25    2    1    2    0    0  0.35039447878E+02  0.12343691922E+03  0.10800442519E+03  0.20920608156E+03  0.12505116060E+03 0.  0.
          2    1    1    2  501    0  0.44391857361E+02 -0.11757436457E+03 -0.80123898104E+03  0.81103530931E+03  0.00000000000E+00 0. -1.
          1    1    1    2  502    0 -0.79431305239E+02 -0.58625546530E+01  0.15522530322E+03  0.17446660586E+03  0.00000000000E+00 0. -1.
         22    1    3    3    0    0  0.55027599744E+02  0.12693868282E+03  0.48940913293E+02  0.14675380378E+03  0.00000000000E+00 0.  1.
         22    1    3    3    0    0 -0.19988151866E+02 -0.35017635937E+01  0.59063511895E+02  0.62452277786E+02  0.00000000000E+00 0.  1.
</event>
<event>
 7    1  0.6330892E-006  0.8149684E+02  0.7818608E-02  0.1384252E+00
          2   -1    0    0  502    0  0.00000000000E+00  0.00000000000E+00  0.92419755286E+03  0.92419755286E+03  0.00000000000E+00 0. -1.
          1   -1    0    0  501    0 -0.00000000000E+00 -0.00000000000E+00 -0.15859380025E+04  0.15859380025E+04  0.00000000000E+00 0. -1.
         25    2    1    2    0    0  0.89760850563E+02 -0.14180663486E+02  0.21032544700E+03  0.26099791135E+03  0.12500005825E+03 0.  0.
          2    1    1    2  501    0 -0.28542225700E+02 -0.40146086895E+02 -0.15577787190E+04  0.15585573151E+04  0.00000000000E+00 0. -1.
          1    1    1    2  502    0 -0.61218624863E+02  0.54326750381E+02  0.68571282241E+03  0.69058032890E+03  0.00000000000E+00 0. -1.
         22    1    3    3    0    0  0.64390246455E+02 -0.54631700211E+02  0.19218623428E+03  0.20991968739E+03  0.00000000000E+00 0. -1.
         22    1    3    3    0    0  0.25370604108E+02  0.40451036725E+02  0.18139212715E+02  0.51078223959E+02  0.00000000000E+00 0. -1.
</event>
<event>
 7    1  0.6330892E-006  0.5850050E+02  0.7818608E-02  0.1479363E+00
          2   -1    0    0  502    0  0.00000000000E+00  0.00000000000E+00  0.10442777436E+04  0.10442777436E+04  0.00000000000E+00 0. -1.
          1   -1    0    0  501    0 -0.00000000000E+00 -0.00000000000E+00 -0.30386304778E+03  0.30386304778E+03  0.00000000000E+00 0. -1.
         25    2    1    2    0    0  0.86650641188E+02 -0.20216089807E+02  0.57807409640E+03  0.59809017190E+03  0.12500067555E+03 0.  0.
          2    1    1    2  501    0 -0.53410239826E+02  0.23514806714E+02 -0.29033619262E+03  0.29614304753E+03  0.00000000000E+00 0. -1.
          1    1    1    2  502    0 -0.33240401362E+02 -0.32987169069E+01  0.45267679206E+03  0.45390757196E+03  0.00000000000E+00 0. -1.
         22    1    3    3    0    0  0.12049911821E+02 -0.65206123739E+02  0.24691809449E+03  0.25566694024E+03  0.00000000000E+00 0.  1.
         22    1    3    3    0    0  0.74600729366E+02  0.44990033932E+02  0.33115600191E+03  0.34242323165E+03  0.00000000000E+00 0.  1.
</event>
<event>
 7    1  0.6330892E-006  0.1320243E+03  0.7818608E-02  0.1352353E+00
          2   -1    0    0  502    0  0.00000000000E+00  0.00000000000E+00  0.34314691444E+04  0.34314691444E+04  0.00000000000E+00 0. -1.
          1   -1    0    0  501    0 -0.00000000000E+00 -0.00000000000E+00 -0.17123368341E+04  0.17123368341E+04  0.00000000000E+00 0. -1.
         25    2    1    2    0    0 -0.59217898910E+02 -0.89182445445E+02 -0.26551119129E+03  0.31237984856E+03  0.12499883582E+03 0.  0.
          2    1    1    2  501    0  0.16688108261E+02 -0.35937586129E+02 -0.14218341356E+04  0.14223861333E+04  0.00000000000E+00 0. -1.
          1    1    1    2  502    0  0.42529790648E+02  0.12512003157E+03  0.34064776372E+04  0.34090399966E+04  0.00000000000E+00 0. -1.
         22    1    3    3    0    0 -0.34530722899E+02 -0.11649698476E+03 -0.16191786268E+03  0.20243841665E+03  0.00000000000E+00 0. -1.
         22    1    3    3    0    0 -0.24687176011E+02  0.27314539310E+02 -0.10359332861E+03  0.10994143191E+03  0.00000000000E+00 0. -1.
</event>
<event>
 7    1  0.6330892E-006  0.5622338E+02  0.7818608E-02  0.1540821E+00
          2   -1    0    0  502    0  0.00000000000E+00  0.00000000000E+00  0.71198298671E+03  0.71198298671E+03  0.00000000000E+00 0. -1.
          1   -1    0    0  501    0 -0.00000000000E+00 -0.00000000000E+00 -0.14594512816E+03  0.14594512816E+03  0.00000000000E+00 0. -1.
         25    2    1    2    0    0 -0.54938595053E+02 -0.49856361177E+02  0.12934566229E+03  0.19457444887E+03  0.12500003929E+03 0.  0.
          2    1    1    2  501    0  0.22385139215E+02  0.48878831800E+01 -0.11075433237E+03  0.11309954906E+03  0.00000000000E+00 0. -1.
          1    1    1    2  502    0  0.32553455838E+02  0.44968477997E+02  0.54744652863E+03  0.55025411694E+03  0.00000000000E+00 0. -1.
         22    1    3    3    0    0 -0.50478114622E+02 -0.68920444943E+02  0.25865803589E+02  0.89258655503E+02  0.00000000000E+00 0. -1.
         22    1    3    3    0    0 -0.44604804313E+01  0.19064083766E+02  0.10347985870E+03  0.10531579336E+03  0.00000000000E+00 0. -1.
</event>
<event>
 7    1  0.6330892E-006  0.1508272E+03  0.7818608E-02  0.1260238E+00
          2   -1    0    0  502    0  0.00000000000E+00  0.00000000000E+00  0.60552900668E+03  0.60552900668E+03  0.00000000000E+00 0. -1.
          1   -1    0    0  501    0 -0.00000000000E+00 -0.00000000000E+00 -0.16396697570E+04  0.16396697570E+04  0.00000000000E+00 0. -1.
         25    2    1    2    0    0  0.20926162595E+03  0.57942487145E+02 -0.40803349285E+02  0.25384462366E+03  0.12499767893E+03 0.  0.
          2    1    1    2  501    0 -0.63165324202E+02 -0.49881060197E+02 -0.14805033199E+04  0.14826894680E+04  0.00000000000E+00 0. -1.
          1    1    1    2  502    0 -0.14609630175E+03 -0.80614269487E+01  0.48716591889E+03  0.50866467198E+03  0.00000000000E+00 0. -1.
         22    1    3    3    0    0  0.11323102195E+03  0.41875479637E+02  0.40143464971E+02  0.12722546092E+03  0.00000000000E+00 0.  1.
         22    1    3    3    0    0  0.96030603994E+02  0.16067007508E+02 -0.80946814257E+02  0.12661916274E+03  0.00000000000E+00 0.  1.
</event>
<event>
 7    1  0.6330892E-006  0.1283204E+03  0.7818608E-02  0.1300318E+00
          2   -1    0    0  502    0  0.00000000000E+00  0.00000000000E+00  0.23641310688E+04  0.23641310688E+04  0.00000000000E+00 0. -1.
          1   -1    0    0  501    0 -0.00000000000E+00 -0.00000000000E+00 -0.40194877299E+03  0.40194877299E+03  0.00000000000E+00 0. -1.
         25    2    1    2    0    0  0.18473323806E+02 -0.14656217974E+03  0.51204807659E+03  0.54739315689E+03  0.12499719694E+03 0.  0.
          2    1    1    2  501    0  0.51015841182E+02  0.39648245534E+02 -0.37932538852E+03  0.38478870799E+03  0.00000000000E+00 0. -1.
          1    1    1    2  502    0 -0.69489164988E+02  0.10691393420E+03  0.18294596077E+04  0.18338979769E+04  0.00000000000E+00 0. -1.
         22    1    3    3    0    0  0.35599209014E+02 -0.13108810629E+03  0.50545449027E+03  0.52338860995E+03  0.00000000000E+00 0.  1.
         22    1    3    3    0    0 -0.17125885209E+02 -0.15474073443E+02  0.65935863279E+01  0.24004546939E+02  0.00000000000E+00 0.  1.
</event>
<event>
 7    1  0.6330892E-006  0.1232176E+03  0.7818608E-02  0.1313781E+00
          2   -1    0    0  502    0  0.00000000000E+00  0.00000000000E+00  0.35888536541E+03  0.35888536541E+03  0.00000000000E+00 0. -1.
          1   -1    0    0  501    0 -0.00000000000E+00 -0.00000000000E+00 -0.20503940117E+04  0.20503940117E+04  0.00000000000E+00 0. -1.
         25    2    1    2    0    0 -0.20925057073E+02  0.61639348947E+02 -0.47371601092E+03  0.49423639359E+03  0.12500194556E+03 0.  0.
          2    1    1    2  501    0 -0.22379233068E+02  0.55146954904E+02 -0.15547049091E+04  0.15558436204E+04  0.00000000000E+00 0. -1.
          1    1    1    2  502    0  0.43304290141E+02 -0.11678630385E+03  0.33691227371E+03  0.35919936316E+03  0.00000000000E+00 0. -1.
         22    1    3    3    0    0 -0.23289580058E+01  0.97402475840E+02 -0.37851738835E+03  0.39085557388E+03  0.00000000000E+00 0. -1.
         22    1    3    3    0    0 -0.18596099067E+02 -0.35763126893E+02 -0.95198622569E+02  0.10338081971E+03  0.00000000000E+00 0. -1.
</event>
<event>
 7    1  0.6330892E-006  0.1431823E+03  0.7818608E-02  0.1235942E+00
          2   -1    0    0  502    0  0.00000000000E+00  0.00000000000E+00  0.22649885615E+03  0.22649885615E+03  0.00000000000E+00 0. -1.
          1   -1    0    0  501    0 -0.00000000000E+00 -0.00000000000E+00 -0.62134016527E+03  0.62134016527E+03  0.00000000000E+00 0. -1.
         25    2    1    2    0    0  0.49762023556E+02 -0.89818361034E+02 -0.83010499058E+02  0.18182137440E+03  0.12499868907E+03 0.  0.
          2    1    1    2  501    0  0.35227021549E+02  0.15671210401E+03 -0.45733328530E+03  0.48471987831E+03  0.00000000000E+00 0. -1.
          1    1    1    2  502    0 -0.84989045105E+02 -0.66893742979E+02  0.14550247524E+03  0.18129776871E+03  0.00000000000E+00 0. -1.
         22    1    3    3    0    0  0.15267784918E+02  0.31701605690E+02 -0.13914037142E+02  0.37837778598E+02  0.00000000000E+00 0.  1.
         22    1    3    3    0    0  0.34494238639E+02 -0.12151996672E+03 -0.69096461916E+02  0.14398359581E+03  0.00000000000E+00 0.  1.
</event>
<event>
 7    1  0.6330892E-006  0.8629463E+02  0.7818608E-02  0.1361189E+00
          2   -1    0    0  502    0  0.00000000000E+00  0.00000000000E+00  0.42131410004E+04  0.42131410004E+04  0.00000000000E+00 0. -1.
          1   -1    0    0  501    0 -0.00000000000E+00 -0.00000000000E+00 -0.88272315495E+02  0.88272315495E+02  0.00000000000E+00 0. -1.
         25    2    1    2    0    0 -0.23687947169E+02  0.26380959553E+02  0.61049205735E+03  0.62416471518E+03  0.12499586281E+03 0.  0.
          2    1    1    2  501    0 -0.22508264886E+02  0.51563875020E+02 -0.71077265972E+02  0.90650057547E+02  0.00000000000E+00 0. -1.
          1    1    1    2  502    0  0.46196212054E+02 -0.77944834573E+02  0.35854538936E+04  0.35865985432E+04  0.00000000000E+00 0. -1.
         22    1    3    3    0    0 -0.29103479359E+02  0.75274506326E+02  0.37278835541E+03  0.38142420183E+03  0.00000000000E+00 0. -1.
         22    1    3    3    0    0  0.54155321907E+01 -0.48893546772E+02  0.23770370194E+03  0.24274051335E+03  0.00000000000E+00 0. -1.
</event>
<event>
 7    1  0.6330892E-006  0.9778483E+02  0.7818608E-02  0.1411513E+00
          2   -1    0    0  502    0  0.00000000000E+00  0.00000000000E+00  0.48677854993E+03  0.48677854993E+03  0.00000000000E+00 0. -1.
          1   -1    0    0  501    0 -0.00000000000E+00 -0.00000000000E+00 -0.28821547390E+04  0.28821547390E+04  0.00000000000E+00 0. -1.
         25    2    1    2    0    0  0.34469112561E+02  0.64671222825E+02  0.11107202327E+03  0.18257164632E+03  0.12499969961E+03 0.  0.
          2    1    1    2  501    0 -0.22231418000E+02 -0.95383083652E+02 -0.28447564468E+04  0.28464418859E+04  0.00000000000E+00 0. -1.
          1    1    1    2  502    0 -0.12237694561E+02  0.30711860827E+02  0.33830823438E+03  0.33991975673E+03  0.00000000000E+00 0. -1.
         22    1    3    3    0    0 -0.13142286785E+02  0.73772254193E+02  0.17138947747E+02  0.76868775979E+02  0.00000000000E+00 0. -1.
         22    1    3    3    0    0  0.47611399346E+02 -0.91010313675E+01  0.93933075526E+02  0.10570287034E+03  0.00000000000E+00 0. -1.
</event>
<event>
 7    1  0.6711534E-006  0.1413969E+03  0.7818608E-02  0.1241692E+00
          2   -1    0    0  502    0  0.00000000000E+00  0.00000000000E+00  0.10272672425E+04  0.10272672425E+04  0.00000000000E+00 0. -1.
          1   -1    0    0  501    0 -0.00000000000E+00 -0.00000000000E+00 -0.13527821763E+04  0.13527821763E+04  0.00000000000E+00 0. -1.
         25    2    1    2    0    0 -0.42948503331E+02 -0.88190985360E+01 -0.77459414904E+02  0.15345741136E+03  0.12500746260E+03 0.  0.
          2    1    1    2  501    0 -0.10303893801E+03  0.73145462025E+01 -0.12297600754E+04  0.12340909077E+04  0.00000000000E+00 0. -1.
          1    1    1    2  502    0  0.14598744134E+03  0.15045523334E+01  0.98170455650E+03  0.99250109972E+03  0.00000000000E+00 0. -1.
         22    1    3    3    0    0  0.32389037755E+02  0.32811029835E+02 -0.22194036126E+02  0.51168239026E+02  0.00000000000E+00 0. -1.
         22    1    3    3    0    0 -0.75337541086E+02 -0.41630128371E+02 -0.55265378779E+02  0.10228917233E+03  0.00000000000E+00 0. -1.
</event>
<event>
 7    1  0.6330892E-006  0.5619087E+02  0.7818608E-02  0.1482066E+00
          2   -1    0    0  502    0  0.00000000000E+00  0.00000000000E+00  0.64130295148E+03  0.64130295148E+03  0.00000000000E+00 0. -1.
          1   -1    0    0  501    0 -0.00000000000E+00 -0.00000000000E+00 -0.54667945684E+03  0.54667945684E+03  0.00000000000E+00 0. -1.
         25    2    1    2    0    0  0.68575099834E+02 -0.29582741597E+02 -0.43140740429E+03  0.45531885799E+03  0.12500092419E+03 0.  0.
          2    1    1    2  501    0 -0.48644150248E+02  0.18895934160E+01 -0.97089198520E+02  0.10861001973E+03  0.00000000000E+00 0. -1.
          1    1    1    2  502    0 -0.19930949586E+02  0.27693148181E+02  0.62312009745E+03  0.62405353060E+03  0.00000000000E+00 0. -1.
         22    1    3    3    0    0  0.57510531353E+02 -0.75848097216E+02 -0.32725875286E+03  0.34082060734E+03  0.00000000000E+00 0.  1.
         22    1    3    3    0    0  0.11064568482E+02  0.46265355619E+02 -0.10414865143E+03  0.11449825065E+03  0.00000000000E+00 0.  1.
</event>
<event>
 7    1  0.6330892E-006  0.1777502E+03  0.7818608E-02  0.1359819E+00
          2   -1    0    0  502    0  0.00000000000E+00  0.00000000000E+00  0.49785124657E+03  0.49785124657E+03  0.00000000000E+00 0. -1.
          1   -1    0    0  501    0 -0.00000000000E+00 -0.00000000000E+00 -0.73206943943E+03  0.73206943943E+03  0.00000000000E+00 0. -1.
         25    2    1    2    0    0  0.14861293773E+03 -0.30925177072E+02  0.13422151198E+03  0.23808096631E+03  0.12499984161E+03 0.  0.
          2    1    1    2  501    0 -0.17537132812E+03  0.37811906600E+02 -0.66766189996E+03  0.69134452747E+03  0.00000000000E+00 0. -1.
          1    1    1    2  502    0  0.26758390391E+02 -0.68867295284E+01  0.29922219511E+03  0.30049519222E+03  0.00000000000E+00 0. -1.
         22    1    3    3    0    0  0.14156537031E+03 -0.85392013051E+01  0.49569471988E+02  0.15023582989E+03  0.00000000000E+00 0.  1.
         22    1    3    3    0    0  0.70475674219E+01 -0.22385975767E+02  0.84652039994E+02  0.87845136421E+02  0.00000000000E+00 0.  1.
</event>
<event>
 7    1  0.6330892E-006  0.1055714E+03  0.7818608E-02  0.1338352E+00
          2   -1    0    0  502    0  0.00000000000E+00  0.00000000000E+00  0.72079051554E+03  0.72079051554E+03  0.00000000000E+00 0. -1.
          1   -1    0    0  501    0 -0.00000000000E+00 -0.00000000000E+00 -0.13408438182E+03  0.13408438182E+03  0.00000000000E+00 0. -1.
         25    2    1    2    0    0 -0.45795667208E+02 -0.15158005451E+03  0.53263089074E+02  0.20865083922E+03  0.12499783995E+03 0.  0.
          2    1    1    2  501    0  0.15399220017E+02  0.53722913096E+02 -0.36756491477E+02  0.66890410631E+02  0.00000000000E+00 0. -1.
          1    1    1    2  502    0  0.30396447191E+02  0.97857141411E+02  0.57019953613E+03  0.57933364750E+03  0.00000000000E+00 0. -1.
         22    1    3    3    0    0 -0.15267090736E+02  0.21033603923E+02  0.22562604132E+01  0.26088067475E+02  0.00000000000E+00 0. -1.
         22    1    3    3    0    0 -0.30528576472E+02 -0.17261365843E+03  0.51006828660E+02  0.18256277175E+03  0.00000000000E+00 0. -1.
</event>
<event>
 7    1  0.6330892E-006  0.9042516E+02  0.7818608E-02  0.1327698E+00
          2   -1    0    0  502    0  0.00000000000E+00  0.00000000000E+00  0.16747000515E+03  0.16747000515E+03  0.00000000000E+00 0. -1.
          1   -1    0    0  501    0 -0.00000000000E+00 -0.00000000000E+00 -0.48694209782E+03  0.48694209782E+03  0.00000000000E+00 0. -1.
         25    2    1    2    0    0  0.34580752374E+02 -0.10718589418E+03 -0.71258764804E+02  0.18272458106E+03  0.12500326642E+03 0.  0.
          2    1    1    2  501    0  0.41499794478E+02  0.58379178253E+02 -0.33727252741E+03  0.34479431425E+03  0.00000000000E+00 0. -1.
          1    1    1    2  502    0 -0.76080546852E+02  0.48806715927E+02  0.89059199540E+02  0.12689320767E+03  0.00000000000E+00 0. -1.
         22    1    3    3    0    0 -0.22465595745E+02 -0.10880622446E+03 -0.49838769695E+02  0.12176781364E+03  0.00000000000E+00 0.  1.
         22    1    3    3    0    0  0.57046348119E+02  0.16203302799E+01 -0.21419995109E+02  0.60956767420E+02  0.00000000000E+00 0.  1.
</event>
<event>
 7    1  0.6330892E-006  0.1021901E+03  0.7818608E-02  0.1375226E+00
          2   -1    0    0  502    0  0.00000000000E+00  0.00000000000E+00  0.51628869884E+02  0.51628869884E+02  0.00000000000E+00 0. -1.
          1   -1    0    0  501    0 -0.00000000000E+00 -0.00000000000E+00 -0.13014927215E+04  0.13014927215E+04  0.00000000000E+00 0. -1.
         25    2    1    2    0    0 -0.12586188519E+03 -0.10233801830E+02 -0.55935103284E+03  0.58689362566E+03  0.12499842023E+03 0.  0.
          2    1    1    2  501    0  0.91067141732E+02  0.34262760222E+02 -0.71212371897E+03  0.71874011448E+03  0.00000000000E+00 0. -1.
          1    1    1    2  502    0  0.34794743457E+02 -0.24028958392E+02  0.21610900157E+02  0.47487851281E+02  0.00000000000E+00 0. -1.
         22    1    3    3    0    0 -0.48634752171E+02 -0.47962305500E+01 -0.45147569912E+03  0.45411303641E+03  0.00000000000E+00 0.  1.
         22    1    3    3    0    0 -0.77227133018E+02 -0.54375712804E+01 -0.10787533372E+03  0.13278058925E+03  0.00000000000E+00 0.  1.
</event>
<event>
 7    1  0.6330892E-006  0.8163288E+02  0.7818608E-02  0.1357535E+00
          2   -1    0    0  502    0  0.00000000000E+00  0.00000000000E+00  0.64312701136E+02  0.64312701136E+02  0.00000000000E+00 0. -1.
          1   -1    0    0  501    0 -0.00000000000E+00 -0.00000000000E+00 -0.12983399250E+04  0.12983399250E+04  0.00000000000E+00 0. -1.
         25    2    1    2    0    0 -0.31871484734E+02  0.90878004740E+02 -0.12986174172E+03  0.20439550145E+03  0.12505537080E+03 0.  0.
          2    1    1    2  501    0 -0.37985795559E+02 -0.48152418655E+02 -0.10662595666E+04  0.10680220220E+04  0.00000000000E+00 0. -1.
          1    1    1    2  502    0  0.69857280292E+02 -0.42725586085E+02 -0.37905915450E+02  0.90235102606E+02  0.00000000000E+00 0. -1.
         22    1    3    3    0    0 -0.32088497523E+02  0.11717964221E+03 -0.13021339424E+03  0.17809061811E+03  0.00000000000E+00 0.  1.
         22    1    3    3    0    0  0.21701278926E+00 -0.26301637466E+02  0.35165251574E+00  0.26304883338E+02  0.00000000000E+00 0.  1.
</event>
<event>
 7    1  0.6330892E-006  0.1045744E+03  0.7818608E-02  0.1290391E+00
          2   -1    0    0  502    0  0.00000000000E+00  0.00000000000E+00  0.29971898222E+03  0.29971898222E+03  0.00000000000E+00 0. -1.
          1   -1    0    0  501    0 -0.00000000000E+00 -0.00000000000E+00 -0.17322596598E+03  0.17322596598E+03  0.00000000000E+00 0. -1.
         25    2    1    2    0    0  0.59126386660E+02  0.66075465634E+02  0.17682633019E+03  0.23399661964E+03  0.12499988079E+03 0.  0.
          2    1    1    2  501    0 -0.92783207451E+02  0.48239725604E+02 -0.57914940713E+02  0.11954051643E+03  0.00000000000E+00 0. -1.
          1    1    1    2  502    0  0.33656820791E+02 -0.11431519124E+03  0.75816267656E+01  0.11940781213E+03  0.00000000000E+00 0. -1.
         22    1    3    3    0    0 -0.13849747504E+02 -0.14871649940E+02 -0.59662151629E+01  0.21179641197E+02  0.00000000000E+00 0.  1.
         22    1    3    3    0    0  0.72976134164E+02  0.80947115575E+02  0.18279254535E+03  0.21281697844E+03  0.00000000000E+00 0.  1.
</event>
<event>
 7    1  0.6330892E-006  0.7082001E+02  0.7818608E-02  0.1439929E+00
          2   -1    0    0  502    0  0.00000000000E+00  0.00000000000E+00  0.15084397401E+04  0.15084397401E+04  0.00000000000E+00 0. -1.
          1   -1    0    0  501    0 -0.00000000000E+00 -0.00000000000E+00 -0.62683944835E+03  0.62683944835E+03  0.00000000000E+00 0. -1.
         25    2    1    2    0    0 -0.38765397324E+02 -0.19471386883E+02  0.24986650870E+03  0.28273602011E+03  0.12499797583E+03 0.  0.
          2    1    1    2  501    0 -0.33860597024E+02  0.14289582318E+02 -0.60878304775E+03  0.60989140953E+03  0.00000000000E+00 0. -1.
          1    1    1    2  502    0  0.72625994348E+02  0.51818045659E+01  0.12405168308E+04  0.12426517588E+04  0.00000000000E+00 0. -1.
         22    1    3    3    0    0  0.22218265810E+02 -0.57566576995E+01 -0.21792373410E+01  0.23055140833E+02  0.00000000000E+00 0. -1.
         22    1    3    3    0    0 -0.60983663134E+02 -0.13714729184E+02  0.25204574604E+03  0.25968087927E+03  0.00000000000E+00 0. -1.
</event>
<event>
 7    1  0.6330892E-006  0.6319690E+02  0.7818608E-02  0.1475971E+00
          2   -1    0    0  502    0  0.00000000000E+00  0.00000000000E+00  0.61685794381E+03  0.61685794381E+03  0.00000000000E+00 0. -1.
          1   -1    0    0  501    0 -0.00000000000E+00 -0.00000000000E+00 -0.20123785286E+04  0.20123785286E+04  0.00000000000E+00 0. -1.
         25    2    1    2    0    0 -0.34249114695E+02  0.83239164071E+02  0.84310319370E+02  0.17560902033E+03  0.12501415030E+03 0.  0.
          2    1    1    2  501    0  0.36277163958E+02 -0.51630467907E+02 -0.19657072633E+04  0.19667198028E+04  0.00000000000E+00 0. -1.
          1    1    1    2  502    0 -0.20280492636E+01 -0.31608696164E+02  0.48587635908E+03  0.48690764932E+03  0.00000000000E+00 0. -1.
         22    1    3    3    0    0  0.63990764835E+01  0.22858250225E+02  0.98612327848E+02  0.10142898494E+03  0.00000000000E+00 0.  1.
         22    1    3    3    0    0 -0.40648191178E+02  0.60380913846E+02 -0.14302008478E+02  0.74180035383E+02  0.00000000000E+00 0.  1.
</event>
<event>
 7    1  0.6330892E-006  0.7717611E+02  0.7818608E-02  0.1501852E+00
          2   -1    0    0  502    0  0.00000000000E+00  0.00000000000E+00  0.84532628728E+03  0.84532628728E+03  0.00000000000E+00 0. -1.
          1   -1    0    0  501    0 -0.00000000000E+00 -0.00000000000E+00 -0.71944879488E+03  0.71944879488E+03  0.00000000000E+00 0. -1.
         25    2    1    2    0    0  0.74958639932E+02 -0.48619015085E+02  0.24388485075E+03  0.28824666903E+03  0.12499486170E+03 0.  0.
          2    1    1    2  501    0 -0.54212644325E+02  0.54814521977E+02 -0.69493315206E+03  0.69919648773E+03  0.00000000000E+00 0. -1.
          1    1    1    2  502    0 -0.20745995607E+02 -0.61955068917E+01  0.57692579371E+03  0.57733192541E+03  0.00000000000E+00 0. -1.
         22    1    3    3    0    0  0.78828968376E+02  0.22539527756E+02  0.12017210929E+03  0.14547636378E+03  0.00000000000E+00 0.  1.
         22    1    3    3    0    0 -0.38703284435E+01 -0.71158542842E+02  0.12371274146E+03  0.14277030525E+03  0.00000000000E+00 0.  1.
</event>
<event>
 7    1  0.6330892E-006  0.1400643E+03  0.7818608E-02  0.1307775E+00
          2   -1    0    0  502    0  0.00000000000E+00  0.00000000000E+00  0.30672603939E+04  0.30672603939E+04  0.00000000000E+00 0. -1.
          1   -1    0    0  501    0 -0.00000000000E+00 -0.00000000000E+00 -0.51060346107E+03  0.51060346107E+03  0.00000000000E+00 0. -1.
         25    2    1    2    0    0  0.11608842673E+03 -0.40039108516E+02  0.57840927227E+03  0.60437008613E+03  0.12500504686E+03 0.  0.
          2    1    1    2  501    0 -0.75147849115E+01 -0.54772678508E+02 -0.49398168175E+03  0.49706581074E+03  0.00000000000E+00 0. -1.
          1    1    1    2  502    0 -0.10857364181E+03  0.94811787023E+02  0.24722293423E+04  0.24764279581E+04  0.00000000000E+00 0. -1.
         22    1    3    3    0    0  0.10079636710E+03  0.20223708053E+02  0.45141553208E+03  0.46297396103E+03  0.00000000000E+00 0.  1.
         22    1    3    3    0    0  0.15292059628E+02 -0.60262816569E+02  0.12699374018E+03  0.14139612510E+03  0.00000000000E+00 0.  1.
</event>
<event>
 7    1  0.6330892E-006  0.1100271E+03  0.7818608E-02  0.1341234E+00
          2   -1    0    0  502    0  0.00000000000E+00  0.00000000000E+00  0.57524218004E+03  0.57524218004E+03  0.00000000000E+00 0. -1.
          1   -1    0    0  501    0 -0.00000000000E+00 -0.00000000000E+00 -0.32612584033E+04  0.32612584033E+04  0.00000000000E+00 0. -1.
         25    2    1    2    0    0  0.41998164896E+02  0.12958486913E+03 -0.50767381461E+03  0.54029006320E+03  0.12499826473E+03 0.  0.
          2    1    1    2  501    0  0.59451944649E+01 -0.10868633724E+03 -0.27349680506E+04  0.27371332271E+04  0.00000000000E+00 0. -1.
          1    1    1    2  502    0 -0.47943359361E+02 -0.20898531891E+02  0.55662564193E+03  0.55907729304E+03  0.00000000000E+00 0. -1.
         22    1    3    3    0    0  0.48246565994E+02  0.15218816178E+03 -0.41377971734E+03  0.44351169342E+03  0.00000000000E+00 0.  1.
         22    1    3    3    0    0 -0.62484010981E+01 -0.22603292648E+02 -0.93894097264E+02  0.96778369773E+02  0.00000000000E+00 0.  1.
</event>
<event>
 7    1  0.6330892E-006  0.8487455E+02  0.7818608E-02  0.1369076E+00
          2   -1    0    0  502    0  0.00000000000E+00  0.00000000000E+00  0.61066521122E+03  0.61066521122E+03  0.00000000000E+00 0. -1.
          1   -1    0    0  501    0 -0.00000000000E+00 -0.00000000000E+00 -0.16295688306E+03  0.16295688306E+03  0.00000000000E+00 0. -1.
         25    2    1    2    0    0  0.29793648858E+02  0.12480457549E+03  0.26426076156E+03  0.31925101020E+03  0.12499445525E+03 0.  0.
          2    1    1    2  501    0 -0.24932675456E+02 -0.47405709622E+02 -0.12517538093E+03  0.13615364703E+03  0.00000000000E+00 0. -1.
          1    1    1    2  502    0 -0.48609734016E+01 -0.77398865864E+02  0.30862294753E+03  0.31821743705E+03  0.00000000000E+00 0. -1.
         22    1    3    3    0    0  0.44036700927E+02 -0.50596620397E+01  0.99909966832E+02  0.10930156760E+03  0.00000000000E+00 0.  1.
         22    1    3    3    0    0 -0.14243052069E+02  0.12986423753E+03  0.16435079472E+03  0.20994944260E+03  0.00000000000E+00 0.  1.
</event>
<event>
 7    1  0.6330892E-006  0.1269774E+03  0.7818608E-02  0.1303534E+00
          2   -1    0    0  502    0  0.00000000000E+00  0.00000000000E+00  0.12290833511E+04  0.12290833511E+04  0.00000000000E+00 0. -1.
          1   -1    0    0  501    0 -0.00000000000E+00 -0.00000000000E+00 -0.80274061489E+03  0.80274061489E+03  0.00000000000E+00 0. -1.
         25    2    1    2    0    0  0.89953619083E+02  0.16529940469E+03  0.89805568488E+02  0.24311640610E+03  0.12500000003E+03 0.  0.
          2    1    1    2  501    0 -0.63336968423E+02 -0.10776514647E+03 -0.71974803254E+03  0.73052181946E+03  0.00000000000E+00 0. -1.
          1    1    1    2  502    0 -0.26616650660E+02 -0.57534258212E+02  0.10562852002E+04  0.10581857404E+04  0.00000000000E+00 0. -1.
         22    1    3    3    0    0 -0.29645140440E+02  0.15864966715E+02  0.59241922351E+01  0.34141288409E+02  0.00000000000E+00 0. -1.
         22    1    3    3    0    0  0.11959875952E+03  0.14943443797E+03  0.83881376253E+02  0.20897511769E+03  0.00000000000E+00 0. -1.
</event>
<event>
 7    1  0.6330892E-006  0.5153102E+02  0.7818608E-02  0.1440600E+00
          2   -1    0    0  502    0  0.00000000000E+00  0.00000000000E+00  0.19124912013E+04  0.19124912013E+04  0.00000000000E+00 0. -1.
          1   -1    0    0  501    0 -0.00000000000E+00 -0.00000000000E+00 -0.20019021167E+02  0.20019021167E+02  0.00000000000E+00 0. -1.
         25    2    1    2    0    0  0.39989121889E+02 -0.45302686293E+02  0.45069030867E+03  0.47158958624E+03  0.12499408093E+03 0.  0.
          2    1    1    2  501    0  0.12069040846E+02  0.48786115907E+02  0.60488598645E+02  0.78642338586E+02  0.00000000000E+00 0. -1.
          1    1    1    2  502    0 -0.52058162735E+02 -0.34834296139E+01  0.13812932728E+04  0.13822782976E+04  0.00000000000E+00 0. -1.
         22    1    3    3    0    0  0.12494047503E+02 -0.55836576541E+02  0.72990879845E+02  0.92744234556E+02  0.00000000000E+00 0.  1.
         22    1    3    3    0    0  0.27495074386E+02  0.10533890248E+02  0.37769942882E+03  0.37884535169E+03  0.00000000000E+00 0.  1.
</event>
<event>
 7    1  0.6330892E-006  0.6948473E+02  0.7818608E-02  0.1378346E+00
          2   -1    0    0  502    0  0.00000000000E+00  0.00000000000E+00  0.51436148623E+03  0.51436148623E+03  0.00000000000E+00 0. -1.
          1   -1    0    0  501    0 -0.00000000000E+00 -0.00000000000E+00 -0.42365021437E+02  0.42365021437E+02  0.00000000000E+00 0. -1.
         25    2    1    2    0    0 -0.11086520721E+02 -0.37683955257E+02  0.21810951618E+03  0.25444018918E+03  0.12500022959E+03 0.  0.
          2    1    1    2  501    0 -0.58988827084E+02 -0.13962079108E+02  0.43530270942E+02  0.74629122078E+02  0.00000000000E+00 0. -1.
          1    1    1    2  502    0  0.70075347805E+02  0.51646034365E+02  0.21035667768E+03  0.22765719641E+03  0.00000000000E+00 0. -1.
         22    1    3    3    0    0 -0.35312917569E+02 -0.19066918942E+02  0.65220948547E+01  0.40658175887E+02  0.00000000000E+00 0. -1.
         22    1    3    3    0    0  0.24226396847E+02 -0.18617036315E+02  0.21158742132E+03  0.21378201329E+03  0.00000000000E+00 0. -1.
</event>
<event>
 7    1  0.6330892E-006  0.1525053E+03  0.7818608E-02  0.1369963E+00
          2   -1    0    0  502    0  0.00000000000E+00  0.00000000000E+00  0.73810306392E+03  0.73810306392E+03  0.00000000000E+00 0. -1.
          1   -1    0    0  501    0 -0.00000000000E+00 -0.00000000000E+00 -0.10845473636E+04  0.10845473636E+04  0.00000000000E+00 0. -1.
         25    2    1    2    0    0  0.16986197036E+01 -0.14474912926E+03  0.39981111152E+03  0.44319865040E+03  0.12498369131E+03 0.  0.
          2    1    1    2  501    0  0.27393361258E+02  0.15016218852E+03 -0.10566660154E+04  0.10676339013E+04  0.00000000000E+00 0. -1.
          1    1    1    2  502    0 -0.29091980961E+02 -0.54130592654E+01  0.31041060414E+03  0.31181787590E+03  0.00000000000E+00 0. -1.
         22    1    3    3    0    0 -0.21570400541E+02 -0.24287338269E+02  0.91825224943E+01  0.33756120912E+02  0.00000000000E+00 0. -1.
         22    1    3    3    0    0  0.23269020244E+02 -0.12046179099E+03  0.39062858902E+03  0.40944252949E+03  0.00000000000E+00 0. -1.
</event>
<event>
 7    1  0.6330892E-006  0.1175587E+03  0.7818608E-02  0.1293991E+00
          2   -1    0    0  502    0  0.00000000000E+00  0.00000000000E+00  0.14404900865E+04  0.14404900865E+04  0.00000000000E+00 0. -1.
          1   -1    0    0  501    0 -0.00000000000E+00 -0.00000000000E+00 -0.24876485456E+03  0.24876485456E+03  0.00000000000E+00 0. -1.
         25    2    1    2    0    0  0.27584726391E+02  0.58611212348E+02  0.85131755439E+02  0.16452565523E+03  0.12500033640E+03 0.  0.
          2    1    1    2  501    0  0.34018399810E+01 -0.12667001715E+03 -0.18868937451E+03  0.22728956380E+03  0.00000000000E+00 0. -1.
          1    1    1    2  502    0 -0.30986566372E+02  0.68058804801E+02  0.12952828510E+04  0.12974397221E+04  0.00000000000E+00 0. -1.
         22    1    3    3    0    0  0.21870839823E+02 -0.37524529198E+02  0.35992258159E+02  0.56408036426E+02  0.00000000000E+00 0. -1.
         22    1    3    3    0    0  0.57138865679E+01  0.96135741545E+02  0.49139497280E+02  0.10811761880E+03  0.00000000000E+00 0. -1.
</event>
<event>
 7    1  0.6330892E-006  0.1808416E+03  0.7818608E-02  0.1239080E+00
          2   -1    0    0  502    0  0.00000000000E+00  0.00000000000E+00  0.32464378681E+04  0.32464378681E+04  0.00000000000E+00 0. -1.
          1   -1    0    0  501    0 -0.00000000000E+00 -0.00000000000E+00 -0.46254815933E+02  0.46254815933E+02  0.00000000000E+00 0. -1.
         25    2    1    2    0    0 -0.12662946468E+03 -0.16380610154E+02  0.99360847455E+03  0.10095473548E+04  0.12499886044E+03 0.  0.
          2    1    1    2  501    0  0.17785493646E+03  0.81607083381E+02  0.21839996714E+03  0.29324160709E+03  0.00000000000E+00 0. -1.
          1    1    1    2  502    0 -0.51225471786E+02 -0.65226473227E+02  0.19881746105E+04  0.19899037222E+04  0.00000000000E+00 0. -1.
         22    1    3    3    0    0 -0.41387887175E+02 -0.12620415144E+02  0.75328157930E+03  0.75452327320E+03  0.00000000000E+00 0.  1.
         22    1    3    3    0    0 -0.85241577503E+02 -0.37601950105E+01  0.24032689525E+03  0.25502408157E+03  0.00000000000E+00 0.  1.
</event>
<event>
 7    1  0.6330892E-006  0.1711013E+03  0.7818608E-02  0.1286566E+00
          2   -1    0    0  502    0  0.00000000000E+00  0.00000000000E+00  0.17133752739E+04  0.17133752739E+04  0.00000000000E+00 0. -1.
          1   -1    0    0  501    0 -0.00000000000E+00 -0.00000000000E+00 -0.10545276293E+03  0.10545276293E+03  0.00000000000E+00 0. -1.
         25    2    1    2    0    0 -0.15404405250E+03  0.80396842219E+01  0.10099560920E+04  0.10292866017E+04  0.12500157652E+03 0.  0.
          2    1    1    2  501    0  0.16122878162E+03 -0.62646795999E+02 -0.15446859184E+02  0.17366043456E+03  0.00000000000E+00 0. -1.
          1    1    1    2  502    0 -0.71847291254E+01  0.54607111777E+02  0.61341327818E+03  0.61588100055E+03  0.00000000000E+00 0. -1.
         22    1    3    3    0    0 -0.44369973074E+02  0.39674012833E+02  0.14364965716E+03  0.15549259084E+03  0.00000000000E+00 0.  1.
         22    1    3    3    0    0 -0.10967407942E+03 -0.31634328611E+02  0.86630643484E+03  0.87379401090E+03  0.00000000000E+00 0.  1.
</event>
<event>
 7    1  0.6330892E-006  0.9454197E+02  0.7818608E-02  0.1429500E+00
          2   -1    0    0  502    0  0.00000000000E+00  0.00000000000E+00  0.28251862232E+04  0.28251862232E+04  0.00000000000E+00 0. -1.
          1   -1    0    0  501    0 -0.00000000000E+00 -0.00000000000E+00 -0.38693363749E+03  0.38693363749E+03  0.00000000000E+00 0. -1.
         25    2    1    2    0    0 -0.57854650825E+02 -0.50925311334E+02  0.39865072225E+01  0.14690797284E+03  0.12500204913E+03 0.  0.
          2    1    1    2  501    0  0.68787759453E+01 -0.28974208828E+02 -0.31395143274E+03  0.31536062604E+03  0.00000000000E+00 0. -1.
          1    1    1    2  502    0  0.50975874880E+02  0.79899520162E+02  0.27482175113E+04  0.27498512619E+04  0.00000000000E+00 0. -1.
         22    1    3    3    0    0 -0.61136959106E+01 -0.81893919497E+02 -0.15428930298E+02  0.83558621449E+02  0.00000000000E+00 0.  1.
         22    1    3    3    0    0 -0.51740954915E+02  0.30968608163E+02  0.19415437520E+02  0.63349351387E+02  0.00000000000E+00 0.  1.
</event>
<event>
 7    1  0.6330892E-006  0.8695959E+02  0.7818608E-02  0.1322050E+00
          2   -1    0    0  502    0  0.00000000000E+00  0.00000000000E+00  0.87814679960E+03  0.87814679960E+03  0.00000000000E+00 0. -1.
          1   -1    0    0  501    0 -0.00000000000E+00 -0.00000000000E+00 -0.47030662779E+03  0.47030662779E+03  0.00000000000E+00 0. -1.
         25    2    1    2    0    0  0.76185207845E+02  0.97101124348E+02  0.50892078400E+03  0.53838646229E+03  0.12500721638E+03 0.  0.
          2    1    1    2  501    0 -0.84724574143E+02 -0.19262265479E+02 -0.44701488937E+03  0.45538071945E+03  0.00000000000E+00 0. -1.
          1    1    1    2  502    0  0.85393662972E+01 -0.77838858869E+02  0.34593427717E+03  0.35468624565E+03  0.00000000000E+00 0. -1.
         22    1    3    3    0    0  0.96076464451E+01  0.90406406563E+02  0.40278829246E+03  0.41292134088E+03  0.00000000000E+00 0. -1.
         22    1    3    3    0    0  0.66577561400E+02  0.66947177845E+01  0.10613249155E+03  0.12546512141E+03  0.00000000000E+00 0. -1.
</event>
<event>
 7    1  0.6330892E-006  0.6476385E+02  0.7818608E-02  0.1426169E+00
          2   -1    0    0  502    0  0.00000000000E+00  0.00000000000E+00  0.30753772179E+03  0.30753772179E+03  0.00000000000E+00 0. -1.
          1   -1    0    0  501    0 -0.00000000000E+00 -0.00000000000E+00 -0.79392732701E+03  0.79392732701E+03  0.00000000000E+00 0. -1.
         25    2    1    2    0    0 -0.46030591900E+02 -0.82177432205E+01  0.30822204193E+02  0.13697270550E+03  0.12500066835E+03 0.  0.
          2    1    1    2  501    0  0.39123817092E+02  0.52266843934E+02 -0.73717256559E+03  0.74005802982E+03  0.00000000000E+00 0. -1.
          1    1    1    2  502    0  0.69067748076E+01 -0.44049100713E+02  0.21996075617E+03  0.22443431348E+03  0.00000000000E+00 0. -1.
         22    1    3    3    0    0 -0.68508526809E+02 -0.30863921782E+01 -0.27785378776E+02  0.73993049241E+02  0.00000000000E+00 0.  1.
         22    1    3    3    0    0  0.22477934909E+02 -0.51313510423E+01  0.58607582969E+02  0.62979656262E+02  0.00000000000E+00 0.  1.
</event>
<event>
 7    1  0.6330892E-006  0.3905915E+02  0.7818608E-02  0.1545807E+00
          2   -1    0    0  502    0  0.00000000000E+00  0.00000000000E+00  0.11959144203E+03  0.11959144203E+03  0.00000000000E+00 0. -1.
          1   -1    0    0  501    0 -0.00000000000E+00 -0.00000000000E+00 -0.13908632210E+03  0.13908632210E+03  0.00000000000E+00 0. -1.
         25    2    1    2    0    0 -0.44698510301E+02 -0.49609618994E+02 -0.49116617126E+02  0.14998943530E+03  0.12500127001E+03 0.  0.
          2    1    1    2  501    0  0.13233809395E+02  0.29061201134E+02 -0.26261567441E+02  0.41344371406E+02  0.00000000000E+00 0. -1.
          1    1    1    2  502    0  0.31464700906E+02  0.20548417859E+02  0.55883304499E+02  0.67343957423E+02  0.00000000000E+00 0. -1.
         22    1    3    3    0    0 -0.83581378987E+02 -0.13987743369E+02 -0.47680824651E+02  0.97236643902E+02  0.00000000000E+00 0. -1.
         22    1    3    3    0    0  0.38882868685E+02 -0.35621875625E+02 -0.14357924745E+01  0.52752791398E+02  0.00000000000E+00 0. -1.
</event>
<event>
 7    1  0.6330892E-006  0.9752488E+02  0.7818608E-02  0.1387153E+00
          2   -1    0    0  502    0  0.00000000000E+00  0.00000000000E+00  0.10091367680E+04  0.10091367680E+04  0.00000000000E+00 0. -1.
          1   -1    0    0  501    0 -0.00000000000E+00 -0.00000000000E+00 -0.84333920711E+03  0.84333920711E+03  0.00000000000E+00 0. -1.
         25    2    1    2    0    0  0.59691399913E+02  0.66860152314E+01 -0.44827781471E+02  0.14575179308E+03  0.12500515658E+03 0.  0.
          2    1    1    2  501    0  0.38767072841E+02 -0.10668637812E+02 -0.74497372011E+03  0.74605800674E+03  0.00000000000E+00 0. -1.
          1    1    1    2  502    0 -0.98458472754E+02  0.39826225810E+01  0.95559906252E+03  0.96066617533E+03  0.00000000000E+00 0. -1.
         22    1    3    3    0    0 -0.15740818509E+02 -0.43538692726E+02 -0.43533513922E+01  0.46500997839E+02  0.00000000000E+00 0. -1.
         22    1    3    3    0    0  0.75432218421E+02  0.50224707958E+02 -0.40474430079E+02  0.99250795239E+02  0.00000000000E+00 0. -1.
</event>
<event>
 7    1  0.6330892E-006  0.1219614E+03  0.7818608E-02  0.1288400E+00
          2   -1    0    0  502    0  0.00000000000E+00  0.00000000000E+00  0.91560967125E+03  0.91560967125E+03  0.00000000000E+00 0. -1.
          1   -1    0    0  501    0 -0.00000000000E+00 -0.00000000000E+00 -0.12571330759E+03  0.12571330759E+03  0.00000000000E+00 0. -1.
         25    2    1    2    0    0  0.71031405245E+02  0.66140396018E+02  0.22287669770E+03  0.27334766831E+03  0.12499965150E+03 0.  0.
          2    1    1    2  501    0 -0.25035235839E+02 -0.12657676536E+03 -0.55774342615E+02  0.14056748506E+03  0.00000000000E+00 0. -1.
          1    1    1    2  502    0 -0.45996169405E+02  0.60436369343E+02  0.62279400858E+03  0.62740782547E+03  0.00000000000E+00 0. -1.
         22    1    3    3    0    0 -0.29061380312E+02  0.42104438557E+02  0.10534492625E+03  0.11711063598E+03  0.00000000000E+00 0.  1.
         22    1    3    3    0    0  0.10009278556E+03  0.24035957461E+02  0.11753177145E+03  0.15623703233E+03  0.00000000000E+00 0.  1.
</event>
<event>
 7    1  0.6330892E-006  0.6620711E+02  0.7818608E-02  0.1476610E+00
          2   -1    0    0  502    0  0.00000000000E+00  0.00000000000E+00  0.73434645666E+03  0.73434645666E+03  0.00000000000E+00 0. -1.
          1   -1    0    0  501    0 -0.00000000000E+00 -0.00000000000E+00 -0.33548941586E+02  0.33548941586E+02  0.00000000000E+00 0. -1.
         25    2    1    2    0    0 -0.38766621758E+02 -0.45326897004E+02  0.33600947598E+03  0.36343447479E+03  0.12499948385E+03 0.  0.
          2    1    1    2  501    0  0.17010065983E+02  0.66122676144E+02  0.41760410618E+02  0.80034258540E+02  0.00000000000E+00 0. -1.
          1    1    1    2  502    0  0.21756555775E+02 -0.20795779140E+02  0.32302762847E+03  0.32442666491E+03  0.00000000000E+00 0. -1.
         22    1    3    3    0    0 -0.50816274232E+01 -0.75436339277E+02  0.28693647618E+03  0.29673052688E+03  0.00000000000E+00 0. -1.
         22    1    3    3    0    0 -0.33684994335E+02  0.30109442273E+02  0.49072999808E+02  0.66703947915E+02  0.00000000000E+00 0. -1.
</event>
<event>
 7    1  0.6330892E-006  0.7667719E+02  0.7818608E-02  0.1405211E+00
          2   -1    0    0  502    0  0.00000000000E+00  0.00000000000E+00  0.20250836158E+04  0.20250836158E+04  0.00000000000E+00 0. -1.
          1   -1    0    0  501    0 -0.00000000000E+00 -0.00000000000E+00 -0.20731770951E+03  0.20731770951E+03  0.00000000000E+00 0. -1.
         25    2    1    2    0    0  0.62574570165E+02  0.41633197039E+02  0.77544783772E+03  0.78904592932E+03  0.12500091854E+03 0.  0.
          2    1    1    2  501    0 -0.76810017363E+02  0.30820583681E+00 -0.19275134518E+03  0.20749205967E+03  0.00000000000E+00 0. -1.
          1    1    1    2  502    0  0.14235447198E+02 -0.41941402876E+02  0.12350694138E+04  0.12358633363E+04  0.00000000000E+00 0. -1.
         22    1    3    3    0    0 -0.18391467438E+01 -0.76820439020E+01 -0.13584750623E+01  0.80150928723E+01  0.00000000000E+00 0.  1.
         22    1    3    3    0    0  0.64413716908E+02  0.49315240941E+02  0.77680631278E+03  0.78103083645E+03  0.00000000000E+00 0.  1.
</event>
<event>
 7    1  0.6330892E-006  0.1962123E+03  0.7818608E-02  0.1229233E+00
          2   -1    0    0  502    0  0.00000000000E+00  0.00000000000E+00  0.30454620776E+03  0.30454620776E+03  0.00000000000E+00 0. -1.
          1   -1    0    0  501    0 -0.00000000000E+00 -0.00000000000E+00 -0.69357254578E+03  0.69357254578E+03  0.00000000000E+00 0. -1.
         25    2    1    2    0    0 -0.23226362981E+02  0.12815777011E+03 -0.16554095353E+02  0.18128228360E+03  0.12500140117E+03 0.  0.
          2    1    1    2  501    0  0.65478697479E+02 -0.20140629003E+03 -0.56671034126E+03  0.60498972254E+03  0.00000000000E+00 0. -1.
          1    1    1    2  502    0 -0.42252334498E+02  0.73248519916E+02  0.19423809859E+03  0.21184674740E+03  0.00000000000E+00 0. -1.
         22    1    3    3    0    0 -0.23931407310E+02  0.11130665927E+03 -0.64224673434E+02  0.13071607909E+03  0.00000000000E+00 0. -1.
         22    1    3    3    0    0  0.70504432879E+00  0.16851110843E+02  0.47670578081E+02  0.50566204512E+02  0.00000000000E+00 0. -1.
</event>
<event>
 7    1  0.6330892E-006  0.9122861E+02  0.7818608E-02  0.1408954E+00
          2   -1    0    0  502    0  0.00000000000E+00  0.00000000000E+00  0.17947419812E+04  0.17947419812E+04  0.00000000000E+00 0. -1.
          1   -1    0    0  501    0 -0.00000000000E+00 -0.00000000000E+00 -0.50097146536E+03  0.50097146536E+03  0.00000000000E+00 0. -1.
         25    2    1    2    0    0 -0.45779788630E+02 -0.71307913214E+02  0.13295594128E+04  0.13381084215E+04  0.12500123197E+03 0.  0.
          2    1    1    2  501    0  0.75689811299E+02  0.51004006086E+02 -0.49178267023E+03  0.50018051832E+03  0.00000000000E+00 0. -1.
          1    1    1    2  502    0 -0.29910022669E+02  0.20303907128E+02  0.45599377330E+03  0.45742450676E+03  0.00000000000E+00 0. -1.
         22    1    3    3    0    0 -0.34377473057E+02  0.31661257759E+02  0.35676798254E+03  0.35981611868E+03  0.00000000000E+00 0.  1.
         22    1    3    3    0    0 -0.11402315573E+02 -0.10296917097E+03  0.97279143025E+03  0.97829230281E+03  0.00000000000E+00 0.  1.
</event>
<event>
 7    1  0.6330892E-006  0.1913085E+03  0.7818608E-02  0.1246710E+00
          2   -1    0    0  502    0  0.00000000000E+00  0.00000000000E+00  0.22052485267E+04  0.22052485267E+04  0.00000000000E+00 0. -1.
          1   -1    0    0  501    0 -0.00000000000E+00 -0.00000000000E+00 -0.23442387308E+04  0.23442387308E+04  0.00000000000E+00 0. -1.
         25    2    1    2    0    0  0.52768366295E+02  0.11725020602E+03 -0.22432810759E+03  0.28718398001E+03  0.12497770691E+03 0.  0.
          2    1    1    2  501    0 -0.76504027598E+02 -0.18584007722E+03 -0.20830393119E+04  0.20927116800E+04  0.00000000000E+00 0. -1.
          1    1    1    2  502    0  0.23735661304E+02  0.68589871199E+02  0.21683772154E+04  0.21695915976E+04  0.00000000000E+00 0. -1.
         22    1    3    3    0    0 -0.24119012142E+02  0.22933974761E+02 -0.12721865258E+03  0.13150011220E+03  0.00000000000E+00 0. -1.
         22    1    3    3    0    0  0.76887378436E+02  0.94316231263E+02 -0.97109455009E+02  0.15568386780E+03  0.00000000000E+00 0. -1.
</event>
<event>
 7    1  0.6330892E-006  0.1175465E+03  0.7818608E-02  0.1301295E+00
          2   -1    0    0  502    0  0.00000000000E+00  0.00000000000E+00  0.14712490840E+04  0.14712490840E+04  0.00000000000E+00 0. -1.
          1   -1    0    0  501    0 -0.00000000000E+00 -0.00000000000E+00 -0.16329532028E+03  0.16329532028E+03  0.00000000000E+00 0. -1.
         25    2    1    2    0    0  0.71097514162E+02  0.14684903547E+03  0.68440526542E+02  0.21662831431E+03  0.12499690056E+03 0.  0.
          2    1    1    2  501    0 -0.13259351202E+02 -0.10759405235E+03 -0.54969033821E+02  0.12154787195E+03  0.00000000000E+00 0. -1.
          1    1    1    2  502    0 -0.57838162961E+02 -0.39254983117E+02  0.12944822710E+04  0.12963682181E+04  0.00000000000E+00 0. -1.
         22    1    3    3    0    0  0.77966085174E+02  0.81869592778E+02  0.93436770831E+02  0.14666891560E+03  0.00000000000E+00 0. -1.
         22    1    3    3    0    0 -0.68685710118E+01  0.64979442689E+02 -0.24996244288E+02  0.69959398714E+02  0.00000000000E+00 0. -1.
</event>
<event>
 7    1  0.6330892E-006  0.1431858E+03  0.7818608E-02  0.1265930E+00
          2   -1    0    0  502    0  0.00000000000E+00  0.00000000000E+00  0.91817086064E+02  0.91817086064E+02  0.00000000000E+00 0. -1.
          1   -1    0    0  501    0 -0.00000000000E+00 -0.00000000000E+00 -0.11182309084E+04  0.11182309084E+04  0.00000000000E+00 0. -1.
         25    2    1    2    0    0 -0.16622931601E+03 -0.64042204022E+02 -0.57403960496E+03  0.61390523827E+03  0.12499833642E+03 0.  0.
          2    1    1    2  501    0  0.92230447122E+02  0.94943340124E+02 -0.48999949095E+03  0.50756299545E+03  0.00000000000E+00 0. -1.
          1    1    1    2  502    0  0.73998868893E+02 -0.30901136102E+02  0.37625273553E+02  0.88579760779E+02  0.00000000000E+00 0. -1.
         22    1    3    3    0    0 -0.16491987850E+03 -0.82866591205E+02 -0.42066251049E+03  0.45937172964E+03  0.00000000000E+00 0. -1.
         22    1    3    3    0    0 -0.13094375165E+01  0.18824387183E+02 -0.15337709448E+03  0.15453350863E+03  0.00000000000E+00 0. -1.
</event>
<event>
 7    1  0.6330892E-006  0.1685619E+03  0.7818608E-02  0.1357060E+00
          2   -1    0    0  502    0  0.00000000000E+00  0.00000000000E+00  0.65426398143E+03  0.65426398143E+03  0.00000000000E+00 0. -1.
          1   -1    0    0  501    0 -0.00000000000E+00 -0.00000000000E+00 -0.59833583257E+03  0.59833583257E+03  0.00000000000E+00 0. -1.
         25    2    1    2    0    0 -0.18236041528E+03  0.31981686219E+02 -0.61218113583E+02  0.23162778120E+03  0.12500248908E+03 0.  0.
          2    1    1    2  501    0  0.15825745809E+03 -0.49541931893E+02 -0.43628490992E+03  0.46673798718E+03  0.00000000000E+00 0. -1.
          1    1    1    2  502    0  0.24102957190E+02  0.17560245673E+02  0.55343117236E+03  0.55423404561E+03  0.00000000000E+00 0. -1.
         22    1    3    3    0    0 -0.42488175410E+02  0.19135994696E+02 -0.77289778633E+02  0.90250436142E+02  0.00000000000E+00 0. -1.
         22    1    3    3    0    0 -0.13987223987E+03  0.12845691523E+02  0.16071665049E+02  0.14137734506E+03  0.00000000000E+00 0. -1.
</event>
<event>
 7    1  0.6330892E-006  0.1354309E+03  0.7818608E-02  0.1266848E+00
          2   -1    0    0  502    0  0.00000000000E+00  0.00000000000E+00  0.49724759629E+03  0.49724759629E+03  0.00000000000E+00 0. -1.
          1   -1    0    0  501    0 -0.00000000000E+00 -0.00000000000E+00 -0.12047556570E+04  0.12047556570E+04  0.00000000000E+00 0. -1.
         25    2    1    2    0    0  0.12479743788E+03  0.43449501707E+02 -0.49216575175E+03  0.52470539678E+03  0.12500546596E+03 0.  0.
          2    1    1    2  501    0 -0.84911178372E+02 -0.11740941309E+03 -0.68501283077E+03  0.70016959147E+03  0.00000000000E+00 0. -1.
          1    1    1    2  502    0 -0.39886259510E+02  0.73959911385E+02  0.46967052183E+03  0.47712826501E+03  0.00000000000E+00 0. -1.
         22    1    3    3    0    0  0.89875071392E+01 -0.37864424342E+02 -0.80841841628E+02  0.89721197457E+02  0.00000000000E+00 0. -1.
         22    1    3    3    0    0  0.11580993074E+03  0.81313926048E+02 -0.41132391012E+03  0.43498419933E+03  0.00000000000E+00 0. -1.
</event>
<event>
 7    1  0.6330892E-006  0.1177685E+03  0.7818608E-02  0.1423671E+00
          2   -1    0    0  502    0  0.00000000000E+00  0.00000000000E+00  0.91233367467E+03  0.91233367467E+03  0.00000000000E+00 0. -1.
          1   -1    0    0  501    0 -0.00000000000E+00 -0.00000000000E+00 -0.90639945002E+02  0.90639945002E+02  0.00000000000E+00 0. -1.
         25    2    1    2    0    0 -0.53170390658E+02  0.82412166787E+02  0.20229551095E+03  0.25723026110E+03  0.12500031120E+03 0.  0.
          2    1    1    2  501    0  0.69168123455E+02 -0.10161290343E+03 -0.28891914644E+01  0.12295429587E+03  0.00000000000E+00 0. -1.
          1    1    1    2  502    0 -0.15997732797E+02  0.19200736646E+02  0.62228741018E+03  0.62278906270E+03  0.00000000000E+00 0. -1.
         22    1    3    3    0    0 -0.11756916729E+02  0.65196410270E+02  0.20178114498E+03  0.21237802963E+03  0.00000000000E+00 0. -1.
         22    1    3    3    0    0 -0.41413473929E+02  0.17215756518E+02  0.51436597318E+00  0.44852231469E+02  0.00000000000E+00 0. -1.
</event>
<event>
 7    1  0.6330892E-006  0.8656538E+02  0.7818608E-02  0.1384816E+00
          2   -1    0    0  502    0  0.00000000000E+00  0.00000000000E+00  0.14376216098E+04  0.14376216098E+04  0.00000000000E+00 0. -1.
          1   -1    0    0  501    0 -0.00000000000E+00 -0.00000000000E+00 -0.47386252061E+03  0.47386252061E+03  0.00000000000E+00 0. -1.
         25    2    1    2    0    0  0.11860398367E+03  0.38858563314E+02  0.55751970878E+03  0.58483369807E+03  0.12500134331E+03 0.  0.
          2    1    1    2  501    0 -0.73006031558E+02 -0.46057992178E+02 -0.45553455776E+03  0.46364097381E+03  0.00000000000E+00 0. -1.
          1    1    1    2  502    0 -0.45597952108E+02  0.71994288640E+01  0.86177393813E+03  0.86300945850E+03  0.00000000000E+00 0. -1.
         22    1    3    3    0    0  0.12103393632E+03  0.71628616924E+02  0.40233382453E+03  0.42620696717E+03  0.00000000000E+00 0. -1.
         22    1    3    3    0    0 -0.24299526533E+01 -0.32770053609E+02  0.15518588425E+03  0.15862673090E+03  0.00000000000E+00 0. -1.
</event>
<event>
 7    1  0.6330892E-006  0.1092642E+03  0.7818608E-02  0.1341625E+00
          2   -1    0    0  502    0  0.00000000000E+00  0.00000000000E+00  0.19749258896E+03  0.19749258896E+03  0.00000000000E+00 0. -1.
          1   -1    0    0  501    0 -0.00000000000E+00 -0.00000000000E+00 -0.87759442177E+03  0.87759442177E+03  0.00000000000E+00 0. -1.
         25    2    1    2    0    0  0.29979607608E+02 -0.11015601800E+03 -0.21696363528E+03  0.27519058527E+03  0.12499405591E+03 0.  0.
          2    1    1    2  501    0  0.43810477591E+02  0.28906683940E+02 -0.61238877021E+03  0.61463400508E+03  0.00000000000E+00 0. -1.
          1    1    1    2  502    0 -0.73790085200E+02  0.81249334061E+02  0.14925057269E+03  0.18526242038E+03  0.00000000000E+00 0. -1.
         22    1    3    3    0    0  0.43941155409E+02 -0.83135765908E+02 -0.22489230613E+03  0.24375998455E+03  0.00000000000E+00 0. -1.
         22    1    3    3    0    0 -0.13961547801E+02 -0.27020252093E+02  0.79286708489E+01  0.31430600720E+02  0.00000000000E+00 0. -1.
</event>
<event>
 7    1  0.6330892E-006  0.8826361E+02  0.7818608E-02  0.1380945E+00
          2   -1    0    0  502    0  0.00000000000E+00  0.00000000000E+00  0.15791592317E+04  0.15791592317E+04  0.00000000000E+00 0. -1.
          1   -1    0    0  501    0 -0.00000000000E+00 -0.00000000000E+00 -0.19230194195E+03  0.19230194195E+03  0.00000000000E+00 0. -1.
         25    2    1    2    0    0 -0.56044294494E+02  0.66356113592E+01  0.20314843643E+03  0.24510958552E+03  0.12499770960E+03 0.  0.
          2    1    1    2  501    0  0.85152425495E+02  0.29908685357E+02 -0.15900058759E+03  0.18282957059E+03  0.00000000000E+00 0. -1.
          1    1    1    2  502    0 -0.29108131000E+02 -0.36544296716E+02  0.13427094409E+04  0.13435220176E+04  0.00000000000E+00 0. -1.
         22    1    3    3    0    0  0.39084773164E+02 -0.88955665794E+01  0.71149361075E+02  0.81663836423E+02  0.00000000000E+00 0.  1.
         22    1    3    3    0    0 -0.95129067659E+02  0.15531177939E+02  0.13199907536E+03  0.16344574910E+03  0.00000000000E+00 0.  1.
</event>
<event>
 7    1  0.6330892E-006  0.3252393E+03  0.7818608E-02  0.1150011E+00
          2   -1    0    0  502    0  0.00000000000E+00  0.00000000000E+00  0.95942648165E+03  0.95942648165E+03  0.00000000000E+00 0. -1.
          1   -1    0    0  501    0 -0.00000000000E+00 -0.00000000000E+00 -0.48794757340E+03  0.48794757340E+03  0.00000000000E+00 0. -1.
         25    2    1    2    0    0 -0.26572019373E+03  0.10918433518E+03  0.16365561880E+03  0.35346343145E+03  0.12499918161E+03 0.  0.
          2    1    1    2  501    0  0.25024038232E+03 -0.23079408413E+03 -0.31218823385E+03  0.46189571504E+03  0.00000000000E+00 0. -1.
          1    1    1    2  502    0  0.15479811409E+02  0.12160974895E+03  0.62001152331E+03  0.63201490856E+03  0.00000000000E+00 0. -1.
         22    1    3    3    0    0 -0.82065860832E+02  0.30397481524E+02  0.12065000407E+03  0.14904776375E+03  0.00000000000E+00 0. -1.
         22    1    3    3    0    0 -0.18365433290E+03  0.78786853659E+02  0.43005614726E+02  0.20441566770E+03  0.00000000000E+00 0. -1.
</event>
<event>
 7    1  0.6330892E-006  0.4990784E+02  0.7818608E-02  0.1468856E+00
          2   -1    0    0  502    0  0.00000000000E+00  0.00000000000E+00  0.18219150231E+03  0.18219150231E+03  0.00000000000E+00 0. -1.
          1   -1    0    0  501    0 -0.00000000000E+00 -0.00000000000E+00 -0.11433440808E+03  0.11433440808E+03  0.00000000000E+00 0. -1.
         25    2    1    2    0    0  0.89039094938E+01  0.90093701334E+01  0.78292347605E+02  0.14803915533E+03  0.12500180584E+03 0.  0.
          2    1    1    2  501    0 -0.23093699834E+02  0.44243348218E+02 -0.57411496096E+02  0.76071497406E+02  0.00000000000E+00 0. -1.
          1    1    1    2  502    0  0.14189790341E+02 -0.53252718351E+02  0.46976242719E+02  0.72415257658E+02  0.00000000000E+00 0. -1.
         22    1    3    3    0    0  0.35534442339E+02 -0.43279845737E+02  0.81507313233E+01  0.56588656642E+02  0.00000000000E+00 0.  1.
         22    1    3    3    0    0 -0.26630532846E+02  0.52289215871E+02  0.70141616281E+02  0.91450498690E+02  0.00000000000E+00 0.  1.
</event>
<event>
 7    1  0.6838655E-006  0.7254392E+02  0.7818608E-02  0.1490599E+00
          2   -1    0    0  502    0  0.00000000000E+00  0.00000000000E+00  0.85743642150E+03  0.85743642150E+03  0.00000000000E+00 0. -1.
          1   -1    0    0  501    0 -0.00000000000E+00 -0.00000000000E+00 -0.12243976183E+04  0.12243976183E+04  0.00000000000E+00 0. -1.
         25    2    1    2    0    0  0.48347114729E+02  0.23089966173E+02 -0.57758067014E+03  0.59337558149E+03  0.12499824058E+03 0.  0.
          2    1    1    2  501    0  0.70007386584E+01  0.23891012093E+02 -0.63712492609E+03  0.63761113717E+03  0.00000000000E+00 0. -1.
          1    1    1    2  502    0 -0.55347853388E+02 -0.46980978266E+02  0.84774439941E+03  0.85084732116E+03  0.00000000000E+00 0. -1.
         22    1    3    3    0    0 -0.26979513246E+02  0.30220033893E+02 -0.76025677691E+02  0.86145506277E+02  0.00000000000E+00 0.  1.
         22    1    3    3    0    0  0.75326627975E+02 -0.71300677198E+01 -0.50155499245E+03  0.50723007522E+03  0.00000000000E+00 0.  1.
</event>
<event>
 7    1  0.6330892E-006  0.6442458E+02  0.7818608E-02  0.1509789E+00
          2   -1    0    0  502    0  0.00000000000E+00  0.00000000000E+00  0.52826681106E+03  0.52826681106E+03  0.00000000000E+00 0. -1.
          1   -1    0    0  501    0 -0.00000000000E+00 -0.00000000000E+00 -0.33690736176E+03  0.33690736176E+03  0.00000000000E+00 0. -1.
         25    2    1    2    0    0  0.28940830211E+02  0.70722798707E+02  0.33142318739E+03  0.36236538158E+03  0.12501221826E+03 0.  0.
          2    1    1    2  501    0 -0.52711462121E+01 -0.64129479306E+02 -0.31736029466E+03  0.32381774461E+03  0.00000000000E+00 0. -1.
          1    1    1    2  502    0 -0.23669683999E+02 -0.65933194005E+01  0.17729655657E+03  0.17899104663E+03  0.00000000000E+00 0. -1.
         22    1    3    3    0    0 -0.27650141632E+02  0.39014904240E+02  0.26589138284E+03  0.27015721451E+03  0.00000000000E+00 0. -1.
         22    1    3    3    0    0  0.56590971843E+02  0.31707894466E+02  0.65531804552E+02  0.92208167065E+02  0.00000000000E+00 0. -1.
</event>
<event>
 7    1  0.6330892E-006  0.1739102E+03  0.7818608E-02  0.1242589E+00
          2   -1    0    0  502    0  0.00000000000E+00  0.00000000000E+00  0.29413687662E+03  0.29413687662E+03  0.00000000000E+00 0. -1.
          1   -1    0    0  501    0 -0.00000000000E+00 -0.00000000000E+00 -0.10041644976E+04  0.10041644976E+04  0.00000000000E+00 0. -1.
         25    2    1    2    0    0  0.74057609112E+02 -0.19980693291E+03 -0.28271756295E+03  0.37544811497E+03  0.12499890689E+03 0.  0.
          2    1    1    2  501    0 -0.11124111195E+03  0.12534770929E+03 -0.65726794239E+03  0.67829770846E+03  0.00000000000E+00 0. -1.
          1    1    1    2  502    0  0.37183502836E+02  0.74459223625E+02  0.22995788434E+03  0.24455555082E+03  0.00000000000E+00 0. -1.
         22    1    3    3    0    0  0.43850830209E+02 -0.11960698982E+01 -0.32675156681E+02  0.54699101979E+02  0.00000000000E+00 0.  1.
         22    1    3    3    0    0  0.30206778903E+02 -0.19861086301E+03 -0.25004240627E+03  0.32074901299E+03  0.00000000000E+00 0.  1.
</event>
<event>
 7    1  0.6330892E-006  0.2297071E+03  0.7818608E-02  0.1290664E+00
          2   -1    0    0  502    0  0.00000000000E+00  0.00000000000E+00  0.37609831365E+04  0.37609831365E+04  0.00000000000E+00 0. -1.
          1   -1    0    0  501    0 -0.00000000000E+00 -0.00000000000E+00 -0.39324278530E+03  0.39324278530E+03  0.00000000000E+00 0. -1.
         25    2    1    2    0    0 -0.20371427718E+02  0.19958306068E+03  0.14577996472E+03  0.27771564917E+03  0.12500316198E+03 0.  0.
          2    1    1    2  501    0 -0.29289343762E+02  0.26469265784E+02 -0.32229621370E+03  0.32470500004E+03  0.00000000000E+00 0. -1.
          1    1    1    2  502    0  0.49660771480E+02 -0.22605232646E+03  0.35442566002E+04  0.35518052726E+04  0.00000000000E+00 0. -1.
         22    1    3    3    0    0 -0.20079319543E+02  0.19393734643E+03  0.78475853534E+02  0.21017452986E+03  0.00000000000E+00 0. -1.
         22    1    3    3    0    0 -0.29210817521E+00  0.56457142524E+01  0.67304111181E+02  0.67541119317E+02  0.00000000000E+00 0. -1.
</event>
<event>
 7    1  0.6330892E-006  0.1036746E+03  0.7818608E-02  0.1377354E+00
          2   -1    0    0  502    0  0.00000000000E+00  0.00000000000E+00  0.20929448931E+04  0.20929448931E+04  0.00000000000E+00 0. -1.
          1   -1    0    0  501    0 -0.00000000000E+00 -0.00000000000E+00 -0.80494663958E+03  0.80494663958E+03  0.00000000000E+00 0. -1.
         25    2    1    2    0    0  0.68866634449E+02  0.12559396438E+03  0.56852359987E+02  0.19843037666E+03  0.12500386520E+03 0.  0.
          2    1    1    2  501    0 -0.24865825690E+02 -0.32547229774E+02 -0.73223731094E+03  0.73338196800E+03  0.00000000000E+00 0. -1.
          1    1    1    2  502    0 -0.44000808760E+02 -0.93046734606E+02  0.19633832045E+04  0.19660791880E+04  0.00000000000E+00 0. -1.
         22    1    3    3    0    0 -0.33237772326E+02  0.60480632452E+02  0.20485481305E+02  0.71988272345E+02  0.00000000000E+00 0.  1.
         22    1    3    3    0    0  0.10210440677E+03  0.65113331928E+02  0.36366878682E+02  0.12644210431E+03  0.00000000000E+00 0.  1.
</event>
<event>
 7    1  0.6330892E-006  0.1902570E+03  0.7818608E-02  0.1319957E+00
          2   -1    0    0  502    0  0.00000000000E+00  0.00000000000E+00  0.23105883486E+04  0.23105883486E+04  0.00000000000E+00 0. -1.
          1   -1    0    0  501    0 -0.00000000000E+00 -0.00000000000E+00 -0.44512049278E+03  0.44512049278E+03  0.00000000000E+00 0. -1.
         25    2    1    2    0    0  0.14520750194E+03 -0.12767927912E+03 -0.11844755344E+03  0.25892490259E+03  0.12500026131E+03 0.  0.
          2    1    1    2  501    0 -0.28579990633E+02 -0.22647569825E+02 -0.25107520078E+03  0.25370944943E+03  0.00000000000E+00 0. -1.
          1    1    1    2  502    0 -0.11662751131E+03  0.15032684894E+03  0.22349906100E+04  0.22430744894E+04  0.00000000000E+00 0. -1.
         22    1    3    3    0    0  0.98540307239E+02 -0.26919695724E+02 -0.82499789944E+01  0.10248377590E+03  0.00000000000E+00 0.  1.
         22    1    3    3    0    0  0.46667194704E+02 -0.10075958339E+03 -0.11019757444E+03  0.15644112669E+03  0.00000000000E+00 0.  1.
</event>
<event>
 7    1  0.6330892E-006  0.1752796E+03  0.7818608E-02  0.1285818E+00
          2   -1    0    0  502    0  0.00000000000E+00  0.00000000000E+00  0.28123615937E+04  0.28123615937E+04  0.00000000000E+00 0. -1.
          1   -1    0    0  501    0 -0.00000000000E+00 -0.00000000000E+00 -0.50455574977E+03  0.50455574977E+03  0.00000000000E+00 0. -1.
         25    2    1    2    0    0  0.10916244331E+02  0.14140003239E+03 -0.61266431855E+02  0.19873427366E+03  0.12501440839E+03 0.  0.
          2    1    1    2  501    0  0.48306122812E+02  0.24458034795E+02 -0.36975550317E+03  0.37369882136E+03  0.00000000000E+00 0. -1.
          1    1    1    2  502    0 -0.59222367142E+02 -0.16585806718E+03  0.27388277790E+04  0.27444842484E+04  0.00000000000E+00 0. -1.
         22    1    3    3    0    0  0.57340390615E+02  0.42388886011E+02  0.39374109282E+01  0.71415973409E+02  0.00000000000E+00 0. -1.
         22    1    3    3    0    0 -0.46424146285E+02  0.99011146376E+02 -0.65203842783E+02  0.12731830025E+03  0.00000000000E+00 0. -1.
</event>
<event>
 7    1  0.6330892E-006  0.1296964E+03  0.7818608E-02  0.1416998E+00
          2   -1    0    0  502    0  0.00000000000E+00  0.00000000000E+00  0.98030147635E+03  0.98030147635E+03  0.00000000000E+00 0. -1.
          1   -1    0    0  501    0 -0.00000000000E+00 -0.00000000000E+00 -0.88056502837E+02  0.88056502837E+02  0.00000000000E+00 0. -1.
         25    2    1    2    0    0 -0.12965249812E+03  0.56995628615E+02  0.44400182496E+03  0.48251382642E+03  0.12499480060E+03 0.  0.
          2    1    1    2  501    0  0.22513959987E+02  0.79839933253E+01 -0.58842429068E+02  0.63506330412E+02  0.00000000000E+00 0. -1.
          1    1    1    2  502    0  0.10713853814E+03 -0.64979621940E+02  0.50708557762E+03  0.52233782235E+03  0.00000000000E+00 0. -1.
         22    1    3    3    0    0  0.83972197044E+01  0.29153921471E+02  0.21569198635E+02  0.37224921298E+02  0.00000000000E+00 0. -1.
         22    1    3    3    0    0 -0.13804971783E+03  0.27841707144E+02  0.42243262632E+03  0.44528890513E+03  0.00000000000E+00 0. -1.
</event>
<event>
 7    1  0.6330892E-006  0.1429373E+03  0.7818608E-02  0.1306507E+00
          2   -1    0    0  502    0  0.00000000000E+00  0.00000000000E+00  0.32390528580E+03  0.32390528580E+03  0.00000000000E+00 0. -1.
          1   -1    0    0  501    0 -0.00000000000E+00 -0.00000000000E+00 -0.34718619217E+04  0.34718619217E+04  0.00000000000E+00 0. -1.
         25    2    1    2    0    0 -0.36251248995E+02 -0.10584528569E+03 -0.14585143179E+04  0.14681312154E+04  0.12501148974E+03 0.  0.
          2    1    1    2  501    0  0.40001713262E+02 -0.37461798313E+02 -0.19920423467E+04  0.19927960845E+04  0.00000000000E+00 0. -1.
          1    1    1    2  502    0 -0.37504642669E+01  0.14330708400E+03  0.30260002873E+03  0.33483990756E+03  0.00000000000E+00 0. -1.
         22    1    3    3    0    0 -0.18330916723E+02  0.16224510472E+02 -0.70207065362E+02  0.74352466501E+02  0.00000000000E+00 0. -1.
         22    1    3    3    0    0 -0.17920332272E+02 -0.12206979616E+03 -0.13883072525E+04  0.13937787489E+04  0.00000000000E+00 0. -1.
</event>
<event>
 7    1  0.6330892E-006  0.1184621E+03  0.7818608E-02  0.1366976E+00
          2   -1    0    0  502    0  0.00000000000E+00  0.00000000000E+00  0.19521743400E+04  0.19521743400E+04  0.00000000000E+00 0. -1.
          1   -1    0    0  501    0 -0.00000000000E+00 -0.00000000000E+00 -0.45313212211E+02  0.45313212211E+02  0.00000000000E+00 0. -1.
         25    2    1    2    0    0 -0.14662273495E+03  0.66566401684E+01  0.94418695777E+03  0.96366818471E+03  0.12499928694E+03 0.  0.
          2    1    1    2  501    0  0.37027705767E+02 -0.12406253534E+02 -0.20797296888E+02  0.44243572177E+02  0.00000000000E+00 0. -1.
          1    1    1    2  502    0  0.10959502918E+03  0.57496133657E+01  0.98347146689E+03  0.98957579531E+03  0.00000000000E+00 0. -1.
         22    1    3    3    0    0 -0.97663766563E+02 -0.27873070160E+02  0.81454612905E+03  0.82085352877E+03  0.00000000000E+00 0.  1.
         22    1    3    3    0    0 -0.48958968383E+02  0.34529710329E+02  0.12964082872E+03  0.14281465594E+03  0.00000000000E+00 0.  1.
</event>
<event>
 7    1  0.6330892E-006  0.6377036E+02  0.7818608E-02  0.1534586E+00
          2   -1    0    0  502    0  0.00000000000E+00  0.00000000000E+00  0.25042509993E+04  0.25042509993E+04  0.00000000000E+00 0. -1.
          1   -1    0    0  501    0 -0.00000000000E+00 -0.00000000000E+00 -0.20007289234E+02  0.20007289234E+02  0.00000000000E+00 0. -1.
         25    2    1    2    0    0 -0.37788008186E+02  0.44172506804E+02  0.18090925948E+04  0.18143365816E+04  0.12498828293E+03 0.  0.
          2    1    1    2  501    0  0.55244129575E+02 -0.32426301163E+02  0.42395520800E+02  0.76816398272E+02  0.00000000000E+00 0. -1.
          1    1    1    2  502    0 -0.17456121388E+02 -0.11746205642E+02  0.63275559444E+03  0.63310530863E+03  0.00000000000E+00 0. -1.
         22    1    3    3    0    0 -0.17864616923E+02  0.31305909807E+02  0.12541273054E+03  0.13048968353E+03  0.00000000000E+00 0.  1.
         22    1    3    3    0    0 -0.19923391264E+02  0.12866596998E+02  0.16836798643E+04  0.16838468981E+04  0.00000000000E+00 0.  1.
</event>
<event>
 7    1  0.6330892E-006  0.9363290E+02  0.7818608E-02  0.1372209E+00
          2   -1    0    0  502    0  0.00000000000E+00  0.00000000000E+00  0.10611893724E+04  0.10611893724E+04  0.00000000000E+00 0. -1.
          1   -1    0    0  501    0 -0.00000000000E+00 -0.00000000000E+00 -0.38903735924E+03  0.38903735924E+03  0.00000000000E+00 0. -1.
         25    2    1    2    0    0  0.54740502707E+02 -0.96363916172E+02  0.19819996806E+03  0.25919963776E+03  0.12497478907E+03 0.  0.
          2    1    1    2  501    0 -0.75399576970E+01  0.93137832431E+02 -0.35176059297E+03  0.36396019227E+03  0.00000000000E+00 0. -1.
          1    1    1    2  502    0 -0.47200545010E+02  0.32260837411E+01  0.82571263810E+03  0.82706690163E+03  0.00000000000E+00 0. -1.
         22    1    3    3    0    0  0.56976605490E+02 -0.38274870791E+02  0.19607886547E+02  0.71384651867E+02  0.00000000000E+00 0.  1.
         22    1    3    3    0    0 -0.22361027831E+01 -0.58089045381E+02  0.17859208151E+03  0.18781498590E+03  0.00000000000E+00 0.  1.
</event>
<event>
 7    1  0.6330892E-006  0.6487537E+02  0.7818608E-02  0.1483764E+00
          2   -1    0    0  502    0  0.00000000000E+00  0.00000000000E+00  0.81874394613E+03  0.81874394613E+03  0.00000000000E+00 0. -1.
          1   -1    0    0  501    0 -0.00000000000E+00 -0.00000000000E+00 -0.77671929867E+02  0.77671929867E+02  0.00000000000E+00 0. -1.
         25    2    1    2    0    0  0.30312537182E+01 -0.52482750315E+02  0.45974162624E+03  0.47932176573E+03  0.12499345835E+03 0.  0.
          2    1    1    2  501    0 -0.31849599273E+02  0.57196589606E+02 -0.51307855194E+02  0.83176576277E+02  0.00000000000E+00 0. -1.
          1    1    1    2  502    0  0.28818345555E+02 -0.47138392912E+01  0.33263824522E+03  0.33391753399E+03  0.00000000000E+00 0. -1.
         22    1    3    3    0    0 -0.40271109365E+02  0.21511071369E+02  0.10743682214E+03  0.11673542390E+03  0.00000000000E+00 0.  1.
         22    1    3    3    0    0  0.43302363083E+02 -0.73993821684E+02  0.35230480410E+03  0.36258634184E+03  0.00000000000E+00 0.  1.
</event>
<event>
 7    1  0.6330892E-006  0.1281596E+03  0.7818608E-02  0.1244904E+00
          2   -1    0    0  502    0  0.00000000000E+00  0.00000000000E+00  0.23646884081E+03  0.23646884081E+03  0.00000000000E+00 0. -1.
          1   -1    0    0  501    0 -0.00000000000E+00 -0.00000000000E+00 -0.96673716744E+03  0.96673716744E+03  0.00000000000E+00 0. -1.
         25    2    1    2    0    0  0.41719743852E+02 -0.15259841932E+03 -0.32883296481E+03  0.38572864715E+03  0.12501462269E+03 0.  0.
          2    1    1    2  501    0  0.68723477306E+02  0.86312444943E+02 -0.58384214032E+03  0.59417539439E+03  0.00000000000E+00 0. -1.
          1    1    1    2  502    0 -0.11044322116E+03  0.66285974374E+02  0.18240677849E+03  0.22330196671E+03  0.00000000000E+00 0. -1.
         22    1    3    3    0    0 -0.70149832075E+01 -0.93903751714E+00  0.94552850960E+01  0.11810766152E+02  0.00000000000E+00 0. -1.
         22    1    3    3    0    0  0.48734727059E+02 -0.15165938180E+03 -0.33828824990E+03  0.37391788100E+03  0.00000000000E+00 0. -1.
</event>
<event>
 7    1  0.6330892E-006  0.7366411E+02  0.7818608E-02  0.1434505E+00
          2   -1    0    0  502    0  0.00000000000E+00  0.00000000000E+00  0.74262296080E+03  0.74262296080E+03  0.00000000000E+00 0. -1.
          1   -1    0    0  501    0 -0.00000000000E+00 -0.00000000000E+00 -0.10132610340E+03  0.10132610340E+03  0.00000000000E+00 0. -1.
         25    2    1    2    0    0 -0.99671602473E+02 -0.43198049587E+02  0.99327992577E+01  0.16591006083E+03  0.12500795157E+03 0.  0.
          2    1    1    2  501    0  0.35860404970E+02  0.82654333788E+01 -0.53456980760E+01  0.37186859527E+02  0.00000000000E+00 0. -1.
          1    1    1    2  502    0  0.63811197502E+02  0.34932616208E+02  0.63670975622E+03  0.64085214384E+03  0.00000000000E+00 0. -1.
         22    1    3    3    0    0 -0.59654648869E+02 -0.73852437979E+02 -0.32162500005E+02  0.10023615183E+03  0.00000000000E+00 0.  1.
         22    1    3    3    0    0 -0.40016953603E+02  0.30654388392E+02  0.42095299262E+02  0.65673909000E+02  0.00000000000E+00 0.  1.
</event>
<event>
 7    1  0.6330892E-006  0.1932045E+03  0.7818608E-02  0.1273218E+00
          2   -1    0    0  502    0  0.00000000000E+00  0.00000000000E+00  0.58151393459E+03  0.58151393459E+03  0.00000000000E+00 0. -1.
          1   -1    0    0  501    0 -0.00000000000E+00 -0.00000000000E+00 -0.15095293846E+04  0.15095293846E+04  0.00000000000E+00 0. -1.
         25    2    1    2    0    0  0.18485993998E+03 -0.10829260319E+03  0.34557202174E+03  0.42537739382E+03  0.12500167858E+03 0.  0.
          2    1    1    2  501    0 -0.18557120684E+03  0.52913020757E+02 -0.14592321768E+04  0.14719358024E+04  0.00000000000E+00 0. -1.
          1    1    1    2  502    0  0.71126685839E+00  0.55379582434E+02  0.18564470503E+03  0.19373012300E+03  0.00000000000E+00 0. -1.
         22    1    3    3    0    0  0.10823137809E+03  0.80266919715E+01  0.16034481926E+03  0.19362055689E+03  0.00000000000E+00 0. -1.
         22    1    3    3    0    0  0.76628561894E+02 -0.11631929516E+03  0.18522720247E+03  0.23175683692E+03  0.00000000000E+00 0. -1.
</event>
<event>
 7    1  0.6330892E-006  0.3246715E+02  0.7818608E-02  0.1593893E+00
          2   -1    0    0  502    0  0.00000000000E+00  0.00000000000E+00  0.65636220138E+02  0.65636220138E+02  0.00000000000E+00 0. -1.
          1   -1    0    0  501    0 -0.00000000000E+00 -0.00000000000E+00 -0.43330708356E+03  0.43330708356E+03  0.00000000000E+00 0. -1.
         25    2    1    2    0    0 -0.50957491376E+01  0.18203378817E+01 -0.19343896739E+03  0.23036785901E+03  0.12498574348E+03 0.  0.
          2    1    1    2  501    0 -0.18548273747E+02  0.21549566091E+02 -0.21448938072E+03  0.21636570131E+03  0.00000000000E+00 0. -1.
          1    1    1    2  502    0  0.23644022885E+02 -0.23369903973E+02  0.40257484692E+02  0.52209743378E+02  0.00000000000E+00 0. -1.
         22    1    3    3    0    0 -0.64159132242E+02  0.79338470683E+01 -0.85696290167E+02  0.10734614258E+03  0.00000000000E+00 0. -1.
         22    1    3    3    0    0  0.59063383105E+02 -0.61135091866E+01 -0.10774267722E+03  0.12302171643E+03  0.00000000000E+00 0. -1.
</event>
<event>
 7    1  0.6330892E-006  0.1691280E+03  0.7818608E-02  0.1180503E+00
          2   -1    0    0  502    0  0.00000000000E+00  0.00000000000E+00  0.77862183129E+03  0.77862183129E+03  0.00000000000E+00 0. -1.
          1   -1    0    0  501    0 -0.00000000000E+00 -0.00000000000E+00 -0.30152519604E+03  0.30152519604E+03  0.00000000000E+00 0. -1.
         25    2    1    2    0    0 -0.44035090252E+02 -0.77447535929E+02  0.13666500921E+03  0.20551859726E+03  0.12499343616E+03 0.  0.
          2    1    1    2  501    0 -0.16420690759E+03 -0.23259331590E+02 -0.21582915186E+03  0.27218950715E+03  0.00000000000E+00 0. -1.
          1    1    1    2  502    0  0.20824199784E+03  0.10070686752E+03  0.55626077790E+03  0.60243892293E+03  0.00000000000E+00 0. -1.
         22    1    3    3    0    0 -0.43050708854E+02 -0.42269177253E+02 -0.40510212528E+01  0.60468650156E+02  0.00000000000E+00 0.  1.
         22    1    3    3    0    0 -0.98438139801E+00 -0.35178358676E+02  0.14071603046E+03  0.14504994710E+03  0.00000000000E+00 0.  1.
</event>
<event>
 7    1  0.6330892E-006  0.1141402E+03  0.7818608E-02  0.1266671E+00
          2   -1    0    0  502    0  0.00000000000E+00  0.00000000000E+00  0.19751360936E+04  0.19751360936E+04  0.00000000000E+00 0. -1.
          1   -1    0    0  501    0 -0.00000000000E+00 -0.00000000000E+00 -0.18277630114E+04  0.18277630114E+04  0.00000000000E+00 0. -1.
         25    2    1    2    0    0 -0.13383383639E+03 -0.11516884152E+03  0.15052312117E+03  0.26354966883E+03  0.12500344041E+03 0.  0.
          2    1    1    2  501    0  0.99591173599E+02  0.75375006050E+01 -0.17680351455E+04  0.17708538877E+04  0.00000000000E+00 0. -1.
          1    1    1    2  502    0  0.34242662793E+02  0.10763134091E+03  0.17648851065E+04  0.17684955484E+04  0.00000000000E+00 0. -1.
         22    1    3    3    0    0  0.11078958752E+02  0.73111146975E+01 -0.86859421071E+01  0.15863206342E+02  0.00000000000E+00 0.  1.
         22    1    3    3    0    0 -0.14491279514E+03 -0.12247995621E+03  0.15920906328E+03  0.24768646249E+03  0.00000000000E+00 0.  1.
</event>
<event>
 7    1  0.6330892E-006  0.1959378E+03  0.7818608E-02  0.1263018E+00
          2   -1    0    0  502    0  0.00000000000E+00  0.00000000000E+00  0.36859645877E+04  0.36859645877E+04  0.00000000000E+00 0. -1.
          1   -1    0    0  501    0 -0.00000000000E+00 -0.00000000000E+00 -0.33418456101E+03  0.33418456101E+03  0.00000000000E+00 0. -1.
         25    2    1    2    0    0  0.18713088388E+03 -0.49207425609E+01  0.49653805567E+02  0.23050660291E+03  0.12500244865E+03 0.  0.
          2    1    1    2  501    0  0.13757552883E+01  0.60274942161E+02 -0.23726370581E+03  0.24480405930E+03  0.00000000000E+00 0. -1.
          1    1    1    2  502    0 -0.18850663917E+03 -0.55354199600E+02  0.35393899270E+04  0.35448384865E+04  0.00000000000E+00 0. -1.
         22    1    3    3    0    0  0.13171468169E+03 -0.53544092303E+02  0.63120143293E+02  0.15556310515E+03  0.00000000000E+00 0. -1.
         22    1    3    3    0    0  0.55416202184E+02  0.48623349742E+02 -0.13466337726E+02  0.74943497759E+02  0.00000000000E+00 0. -1.
</event>
<event>
 7    1  0.6330892E-006  0.7393548E+02  0.7818608E-02  0.1385210E+00
          2   -1    0    0  502    0  0.00000000000E+00  0.00000000000E+00  0.13275923950E+04  0.13275923950E+04  0.00000000000E+00 0. -1.
          1   -1    0    0  501    0 -0.00000000000E+00 -0.00000000000E+00 -0.49970719056E+03  0.49970719056E+03  0.00000000000E+00 0. -1.
         25    2    1    2    0    0 -0.30517288937E+02 -0.51003872458E+00  0.53859069064E+03  0.55374888956E+03  0.12500534222E+03 0.  0.
          2    1    1    2  501    0  0.58651588702E+02 -0.45437000109E+02 -0.48839450587E+03  0.49399769554E+03  0.00000000000E+00 0. -1.
          1    1    1    2  502    0 -0.28134299765E+02  0.45947038833E+02  0.77768901966E+03  0.77955300044E+03  0.00000000000E+00 0. -1.
         22    1    3    3    0    0 -0.70863378591E+02  0.18076070294E+02  0.21441662909E+03  0.22654547793E+03  0.00000000000E+00 0. -1.
         22    1    3    3    0    0  0.40346089654E+02 -0.18586109019E+02  0.32417406155E+03  0.32720341163E+03  0.00000000000E+00 0. -1.
</event>
<event>
 7    1  0.6330892E-006  0.8471779E+02  0.7818608E-02  0.1436746E+00
          2   -1    0    0  502    0  0.00000000000E+00  0.00000000000E+00  0.11779834235E+04  0.11779834235E+04  0.00000000000E+00 0. -1.
          1   -1    0    0  501    0 -0.00000000000E+00 -0.00000000000E+00 -0.18321409536E+04  0.18321409536E+04  0.00000000000E+00 0. -1.
         25    2    1    2    0    0 -0.28041276652E+02  0.10969586961E+03  0.22463089240E+02  0.17014747434E+03  0.12500430249E+03 0.  0.
          2    1    1    2  501    0 -0.25692235225E+01 -0.31359360493E+02 -0.17565227848E+04  0.17568045720E+04  0.00000000000E+00 0. -1.
          1    1    1    2  502    0  0.30610500174E+02 -0.78336509112E+02  0.10799021654E+04  0.10831723308E+04  0.00000000000E+00 0. -1.
         22    1    3    3    0    0 -0.68508915808E+01  0.10306202519E+03  0.65087371678E+02  0.12208636986E+03  0.00000000000E+00 0.  1.
         22    1    3    3    0    0 -0.21190385071E+02  0.66338444120E+01 -0.42624282438E+02  0.48061104487E+02  0.00000000000E+00 0.  1.
</event>
<event>
 7    1  0.6330892E-006  0.6060644E+02  0.7818608E-02  0.1423444E+00
          2   -1    0    0  502    0  0.00000000000E+00  0.00000000000E+00  0.61268431428E+03  0.61268431428E+03  0.00000000000E+00 0. -1.
          1   -1    0    0  501    0 -0.00000000000E+00 -0.00000000000E+00 -0.73738781813E+02  0.73738781813E+02  0.00000000000E+00 0. -1.
         25    2    1    2    0    0 -0.80346972456E+02  0.21127168494E+02  0.30795451680E+02  0.15322049307E+03  0.12500466560E+03 0.  0.
          2    1    1    2  501    0  0.41627027171E+02  0.25175603970E+02  0.45428752384E+02  0.66561189664E+02  0.00000000000E+00 0. -1.
          1    1    1    2  502    0  0.38719945284E+02 -0.46302772464E+02  0.46272132840E+03  0.46664141335E+03  0.00000000000E+00 0. -1.
         22    1    3    3    0    0 -0.41908697480E+02 -0.32703975002E+02  0.60649937121E+02  0.80649263965E+02  0.00000000000E+00 0. -1.
         22    1    3    3    0    0 -0.38438274975E+02  0.53831143495E+02 -0.29854485441E+02  0.72571229106E+02  0.00000000000E+00 0. -1.
</event>
<event>
 7    1  0.6330892E-006  0.1071686E+03  0.7818608E-02  0.1289716E+00
          2   -1    0    0  502    0  0.00000000000E+00  0.00000000000E+00  0.24981838392E+03  0.24981838392E+03  0.00000000000E+00 0. -1.
          1   -1    0    0  501    0 -0.00000000000E+00 -0.00000000000E+00 -0.97938905033E+03  0.97938905033E+03  0.00000000000E+00 0. -1.
         25    2    1    2    0    0 -0.26508788300E+02 -0.11250509668E+03  0.52843679659E+02  0.17826252505E+03  0.12499984289E+03 0.  0.
          2    1    1    2  501    0 -0.68429243452E+02  0.51045967319E+02 -0.89045473819E+03  0.89453780966E+03  0.00000000000E+00 0. -1.
          1    1    1    2  502    0  0.94938031752E+02  0.61459129358E+02  0.10804039212E+03  0.15640709953E+03  0.00000000000E+00 0. -1.
         22    1    3    3    0    0 -0.69377575835E+02 -0.65434453313E+02  0.62278064205E+02  0.11390115447E+03  0.00000000000E+00 0. -1.
         22    1    3    3    0    0  0.42868787535E+02 -0.47070643364E+02 -0.94343845460E+01  0.64361370582E+02  0.00000000000E+00 0. -1.
</event>
<event>
 7    1  0.6330892E-006  0.7899864E+02  0.7818608E-02  0.1375256E+00
          2   -1    0    0  502    0  0.00000000000E+00  0.00000000000E+00  0.56393885535E+03  0.56393885535E+03  0.00000000000E+00 0. -1.
          1   -1    0    0  501    0 -0.00000000000E+00 -0.00000000000E+00 -0.57781641648E+03  0.57781641648E+03  0.00000000000E+00 0. -1.
         25    2    1    2    0    0 -0.10057180050E+03  0.45822793506E+02 -0.13318422928E+03  0.21348757095E+03  0.12499795423E+03 0.  0.
          2    1    1    2  501    0  0.77015080742E+02  0.35287767497E+01 -0.39935624371E+03  0.40672986652E+03  0.00000000000E+00 0. -1.
          1    1    1    2  502    0  0.23556719757E+02 -0.49351570256E+02  0.51866291185E+03  0.52153783436E+03  0.00000000000E+00 0. -1.
         22    1    3    3    0    0 -0.29574876751E+01 -0.97585136435E+01 -0.93952964687E+02  0.94504681870E+02  0.00000000000E+00 0.  1.
         22    1    3    3    0    0 -0.97614312824E+02  0.55581307150E+02 -0.39231264593E+02  0.11898288908E+03  0.00000000000E+00 0.  1.
</event>
<event>
 7    1  0.6330892E-006  0.1006725E+03  0.7818608E-02  0.1366084E+00
          2   -1    0    0  502    0  0.00000000000E+00  0.00000000000E+00  0.65045098694E+03  0.65045098694E+03  0.00000000000E+00 0. -1.
          1   -1    0    0  501    0 -0.00000000000E+00 -0.00000000000E+00 -0.90924664851E+03  0.90924664851E+03  0.00000000000E+00 0. -1.
         25    2    1    2    0    0  0.69878151048E+02  0.99722439814E+02 -0.85453307298E+02  0.19430692339E+03  0.12500156700E+03 0.  0.
          2    1    1    2  501    0 -0.46238094440E+02 -0.22686655023E+01 -0.76444335355E+03  0.76584381502E+03  0.00000000000E+00 0. -1.
          1    1    1    2  502    0 -0.23640056607E+02 -0.97453774312E+02  0.59110099928E+03  0.59954689704E+03  0.00000000000E+00 0. -1.
         22    1    3    3    0    0  0.19564792367E+01 -0.26696511976E+02 -0.30638523127E+02  0.40684771870E+02  0.00000000000E+00 0.  1.
         22    1    3    3    0    0  0.67921671811E+02  0.12641895179E+03 -0.54814784170E+02  0.15362215152E+03  0.00000000000E+00 0.  1.
</event>
<event>
 7    1  0.6330892E-006  0.1756402E+03  0.7818608E-02  0.1277369E+00
          2   -1    0    0  502    0  0.00000000000E+00  0.00000000000E+00  0.11423662751E+04  0.11423662751E+04  0.00000000000E+00 0. -1.
          1   -1    0    0  501    0 -0.00000000000E+00 -0.00000000000E+00 -0.61605603892E+03  0.61605603892E+03  0.00000000000E+00 0. -1.
         25    2    1    2    0    0 -0.33979183222E+02  0.13864691496E+03 -0.21370739261E+03  0.28578364573E+03  0.12499556229E+03 0.  0.
          2    1    1    2  501    0  0.39854122958E+02 -0.19689728125E+03 -0.33791347925E+03  0.39311882420E+03  0.00000000000E+00 0. -1.
          1    1    1    2  502    0 -0.58749397363E+01  0.58250366286E+02  0.10779311080E+04  0.10795198441E+04  0.00000000000E+00 0. -1.
         22    1    3    3    0    0  0.17224516656E+02  0.12866741062E+02  0.10289462439E+02  0.23835058987E+02  0.00000000000E+00 0. -1.
         22    1    3    3    0    0 -0.51203699879E+02  0.12578017390E+03 -0.22399685505E+03  0.26194858675E+03  0.00000000000E+00 0. -1.
</event>
<event>
 7    1  0.6330892E-006  0.3204888E+02  0.7818608E-02  0.1578376E+00
          2   -1    0    0  502    0  0.00000000000E+00  0.00000000000E+00  0.22459609104E+04  0.22459609104E+04  0.00000000000E+00 0. -1.
          1   -1    0    0  501    0 -0.00000000000E+00 -0.00000000000E+00 -0.56789702721E+01  0.56789702721E+01  0.00000000000E+00 0. -1.
         25    2    1    2    0    0  0.97007152820E+01  0.19289072760E+02  0.19162797962E+04  0.19204735537E+04  0.12499696442E+03 0.  0.
          2    1    1    2  501    0 -0.32957692192E+02  0.27618561468E+01  0.11287654460E+03  0.11762207125E+03  0.00000000000E+00 0. -1.
          1    1    1    2  502    0  0.23256976910E+02 -0.22050928907E+02  0.21112559931E+03  0.21354425566E+03  0.00000000000E+00 0. -1.
         22    1    3    3    0    0 -0.14539952378E+02 -0.40268911816E+02  0.31416030627E+03  0.31706417885E+03  0.00000000000E+00 0.  1.
         22    1    3    3    0    0  0.24240667660E+02  0.59557984576E+02  0.16021194899E+04  0.16034093749E+04  0.00000000000E+00 0.  1.
</event>
<event>
 7    1  0.6330892E-006  0.7747928E+02  0.7818608E-02  0.1424127E+00
          2   -1    0    0  502    0  0.00000000000E+00  0.00000000000E+00  0.10798595569E+04  0.10798595569E+04  0.00000000000E+00 0. -1.
          1   -1    0    0  501    0 -0.00000000000E+00 -0.00000000000E+00 -0.14720254622E+03  0.14720254622E+03  0.00000000000E+00 0. -1.
         25    2    1    2    0    0 -0.95185244934E+02 -0.18969717570E+01 -0.45855063079E+02  0.16367996540E+03  0.12499845962E+03 0.  0.
          2    1    1    2  501    0  0.65586641606E+02  0.25496887094E+02 -0.12650951357E+02  0.71496471094E+02  0.00000000000E+00 0. -1.
          1    1    1    2  502    0  0.29598603328E+02 -0.23599915337E+02  0.99116302507E+03  0.99188566659E+03  0.00000000000E+00 0. -1.
         22    1    3    3    0    0 -0.61289632929E+02 -0.12119109774E+02  0.37675050219E+02  0.72956845706E+02  0.00000000000E+00 0.  1.
         22    1    3    3    0    0 -0.33895612005E+02  0.10222138017E+02 -0.83530113298E+02  0.90723119690E+02  0.00000000000E+00 0.  1.
</event>
<event>
 7    1  0.6330892E-006  0.1427313E+03  0.7818608E-02  0.1311331E+00
          2   -1    0    0  502    0  0.00000000000E+00  0.00000000000E+00  0.87836319300E+03  0.87836319300E+03  0.00000000000E+00 0. -1.
          1   -1    0    0  501    0 -0.00000000000E+00 -0.00000000000E+00 -0.51220092996E+03  0.51220092996E+03  0.00000000000E+00 0. -1.
         25    2    1    2    0    0 -0.89172113162E+02  0.49131983672E+02  0.28250873693E+02  0.16367600376E+03  0.12500441895E+03 0.  0.
          2    1    1    2  501    0  0.14147887750E+03 -0.44306644010E+02 -0.43120537947E+03  0.45597963854E+03  0.00000000000E+00 0. -1.
          1    1    1    2  502    0 -0.52306764338E+02 -0.48253396617E+01  0.76911676881E+03  0.77090848066E+03  0.00000000000E+00 0. -1.
         22    1    3    3    0    0 -0.52521123703E+02 -0.17569989190E+02  0.59604509193E+02  0.81362586435E+02  0.00000000000E+00 0.  1.
         22    1    3    3    0    0 -0.36650989459E+02  0.66701972862E+02 -0.31353635500E+02  0.82313417321E+02  0.00000000000E+00 0.  1.
</event>
<event>
 7    1  0.6330892E-006  0.2117075E+03  0.7818608E-02  0.1176362E+00
          2   -1    0    0  502    0  0.00000000000E+00  0.00000000000E+00  0.15263997178E+04  0.15263997178E+04  0.00000000000E+00 0. -1.
          1   -1    0    0  501    0 -0.00000000000E+00 -0.00000000000E+00 -0.94930718165E+03  0.94930718165E+03  0.00000000000E+00 0. -1.
         25    2    1    2    0    0 -0.29287181485E+02  0.79537208413E+02  0.45581797763E+03  0.48018658104E+03  0.12500086943E+03 0.  0.
          2    1    1    2  501    0 -0.90328940398E-01 -0.21521314828E+03 -0.92009979143E+03  0.94493403661E+03  0.00000000000E+00 0. -1.
          1    1    1    2  502    0  0.29377510425E+02  0.13567593987E+03  0.10413743499E+04  0.10505862818E+04  0.00000000000E+00 0. -1.
         22    1    3    3    0    0 -0.68044616958E+02  0.49100129748E+02  0.38416923744E+03  0.39322626519E+03  0.00000000000E+00 0. -1.
         22    1    3    3    0    0  0.38757435473E+02  0.30437078666E+02  0.71648740186E+02  0.86960315848E+02  0.00000000000E+00 0. -1.
</event>
<event>
 7    1  0.6330892E-006  0.6038251E+02  0.7818608E-02  0.1434248E+00
          2   -1    0    0  502    0  0.00000000000E+00  0.00000000000E+00  0.28168304532E+04  0.28168304532E+04  0.00000000000E+00 0. -1.
          1   -1    0    0  501    0 -0.00000000000E+00 -0.00000000000E+00 -0.12898070369E+02  0.12898070369E+02  0.00000000000E+00 0. -1.
         25    2    1    2    0    0  0.17047595387E+02 -0.34340968439E+02  0.19801409168E+04  0.19844529387E+04  0.12500197202E+03 0.  0.
          2    1    1    2  501    0  0.17053346331E+02 -0.41624661282E+02  0.50968071825E+02  0.67979212951E+02  0.00000000000E+00 0. -1.
          1    1    1    2  502    0 -0.34100941718E+02  0.75965629721E+02  0.77282339420E+03  0.77729637188E+03  0.00000000000E+00 0. -1.
         22    1    3    3    0    0  0.39333980676E+02  0.36696499660E+02  0.64581124520E+03  0.64804780653E+03  0.00000000000E+00 0. -1.
         22    1    3    3    0    0 -0.22286385289E+02 -0.71037468099E+02  0.13343296716E+04  0.13364051322E+04  0.00000000000E+00 0. -1.
</event>
<event>
 7    1  0.6330892E-006  0.4015890E+02  0.7818608E-02  0.1558141E+00
          2   -1    0    0  502    0  0.00000000000E+00  0.00000000000E+00  0.62642969712E+03  0.62642969712E+03  0.00000000000E+00 0. -1.
          1   -1    0    0  501    0 -0.00000000000E+00 -0.00000000000E+00 -0.71700738771E+03  0.71700738771E+03  0.00000000000E+00 0. -1.
         25    2    1    2    0    0  0.25328823970E+02 -0.59175712656E+02  0.36321393311E+03  0.38947677628E+03  0.12499793506E+03 0.  0.
          2    1    1    2  501    0 -0.34746273489E+01  0.28487396322E+02 -0.70216228475E+03  0.70274851754E+03  0.00000000000E+00 0. -1.
          1    1    1    2  502    0 -0.21854196621E+02  0.30688316335E+02  0.24837066105E+03  0.25121179100E+03  0.00000000000E+00 0. -1.
         22    1    3    3    0    0  0.62106512522E+02 -0.28564049657E+02  0.95064153158E+02  0.11709106305E+03  0.00000000000E+00 0.  1.
         22    1    3    3    0    0 -0.36777688552E+02 -0.30611662999E+02  0.26814977995E+03  0.27238571323E+03  0.00000000000E+00 0.  1.
</event>
<event>
 7    1  0.6330892E-006  0.1659312E+03  0.7818608E-02  0.1354312E+00
          2   -1    0    0  502    0  0.00000000000E+00  0.00000000000E+00  0.68785240678E+03  0.68785240678E+03  0.00000000000E+00 0. -1.
          1   -1    0    0  501    0 -0.00000000000E+00 -0.00000000000E+00 -0.15215451400E+04  0.15215451400E+04  0.00000000000E+00 0. -1.
         25    2    1    2    0    0 -0.14196357743E+03 -0.95190151519E+02 -0.65560450110E+03  0.68895350505E+03  0.12499939195E+03 0.  0.
          2    1    1    2  501    0  0.15084077564E+03  0.65481442294E+02 -0.84094029575E+03  0.85686716585E+03  0.00000000000E+00 0. -1.
          1    1    1    2  502    0 -0.88771982096E+01  0.29708709225E+02  0.66285206359E+03  0.66357687592E+03  0.00000000000E+00 0. -1.
         22    1    3    3    0    0 -0.14012178782E+03 -0.29819939257E+02 -0.50116980723E+03  0.52124324444E+03  0.00000000000E+00 0.  1.
         22    1    3    3    0    0 -0.18417896096E+01 -0.65370212262E+02 -0.15443469387E+03  0.16771026060E+03  0.00000000000E+00 0.  1.
</event>
<event>
 7    1  0.6330892E-006  0.1152167E+03  0.7818608E-02  0.1251603E+00
          2   -1    0    0  502    0  0.00000000000E+00  0.00000000000E+00  0.80151032763E+03  0.80151032763E+03  0.00000000000E+00 0. -1.
          1   -1    0    0  501    0 -0.00000000000E+00 -0.00000000000E+00 -0.23042306910E+03  0.23042306910E+03  0.00000000000E+00 0. -1.
         25    2    1    2    0    0  0.59295066263E+02  0.25916254410E+02  0.77764738945E+02  0.16080705536E+03  0.12499598916E+03 0.  0.
          2    1    1    2  501    0 -0.55007229200E+02  0.10123783552E+03 -0.16465409648E+03  0.20096234994E+03  0.00000000000E+00 0. -1.
          1    1    1    2  502    0 -0.42878370634E+01 -0.12715408993E+03  0.65797661605E+03  0.67016399143E+03  0.00000000000E+00 0. -1.
         22    1    3    3    0    0  0.86993736620E+02  0.66553436283E+01  0.13583631142E+02  0.88299030826E+02  0.00000000000E+00 0.  1.
         22    1    3    3    0    0 -0.27698670356E+02  0.19260910782E+02  0.64181107802E+02  0.72508024538E+02  0.00000000000E+00 0.  1.
</event>
<event>
 7    1  0.6330892E-006  0.7480211E+02  0.7818608E-02  0.1345761E+00
          2   -1    0    0  502    0  0.00000000000E+00  0.00000000000E+00  0.48911123358E+04  0.48911123358E+04  0.00000000000E+00 0. -1.
          1   -1    0    0  501    0 -0.00000000000E+00 -0.00000000000E+00 -0.13578608846E+04  0.13578608846E+04  0.00000000000E+00 0. -1.
         25    2    1    2    0    0  0.34721786832E+02  0.57019767096E+02 -0.53524776430E+03  0.55368947541E+03  0.12500003868E+03 0.  0.
          2    1    1    2  501    0  0.37269334248E+02 -0.74084994554E+02 -0.81099723539E+03  0.81522641364E+03  0.00000000000E+00 0. -1.
          1    1    1    2  502    0 -0.71991121080E+02  0.17065227459E+02  0.48794964509E+04  0.48800573314E+04  0.00000000000E+00 0. -1.
         22    1    3    3    0    0 -0.32998901273E+02  0.65545811666E+01 -0.33048655136E+03  0.33219459756E+03  0.00000000000E+00 0. -1.
         22    1    3    3    0    0  0.67720688105E+02  0.50465185929E+02 -0.20476121295E+03  0.22149487785E+03  0.00000000000E+00 0. -1.
</event>
<event>
 7    1  0.6330892E-006  0.1299192E+03  0.7818608E-02  0.1306714E+00
          2   -1    0    0  502    0  0.00000000000E+00  0.00000000000E+00  0.72331357381E+03  0.72331357381E+03  0.00000000000E+00 0. -1.
          1   -1    0    0  501    0 -0.00000000000E+00 -0.00000000000E+00 -0.54900117912E+03  0.54900117912E+03  0.00000000000E+00 0. -1.
         25    2    1    2    0    0 -0.88171768188E+02 -0.62077375812E+01  0.11062282109E+03  0.18887510119E+03  0.12499439424E+03 0.  0.
          2    1    1    2  501    0 -0.48283723407E+02  0.35924087660E+02 -0.49954126756E+03  0.50315339214E+03  0.00000000000E+00 0. -1.
          1    1    1    2  502    0  0.13645549160E+03 -0.29716350078E+02  0.56323084116E+03  0.58028625960E+03  0.00000000000E+00 0. -1.
         22    1    3    3    0    0 -0.55277075035E+02  0.55280660386E+02  0.33939334662E+02  0.85225494275E+02  0.00000000000E+00 0.  1.
         22    1    3    3    0    0 -0.32894693153E+02 -0.61488397967E+02  0.76683486427E+02  0.10364960691E+03  0.00000000000E+00 0.  1.
</event>
<event>
 7    1  0.6330892E-006  0.8899331E+02  0.7818608E-02  0.1376216E+00
          2   -1    0    0  502    0  0.00000000000E+00  0.00000000000E+00  0.16021902919E+04  0.16021902919E+04  0.00000000000E+00 0. -1.
          1   -1    0    0  501    0 -0.00000000000E+00 -0.00000000000E+00 -0.52322700313E+03  0.52322700313E+03  0.00000000000E+00 0. -1.
         25    2    1    2    0    0 -0.66788751262E+02 -0.47319795168E+02 -0.22409264511E+03  0.26933633244E+03  0.12499858427E+03 0.  0.
          2    1    1    2  501    0  0.38701503663E+02  0.86444941434E+02 -0.26802221816E+03  0.28426474229E+03  0.00000000000E+00 0. -1.
          1    1    1    2  502    0  0.28087247599E+02 -0.39125146266E+02  0.15710781521E+04  0.15718162203E+04  0.00000000000E+00 0. -1.
         22    1    3    3    0    0 -0.64571276443E+02 -0.84067693471E+02 -0.19671238300E+03  0.22345601010E+03  0.00000000000E+00 0. -1.
         22    1    3    3    0    0 -0.22174748190E+01  0.36747898303E+02 -0.27380262115E+02  0.45880322337E+02  0.00000000000E+00 0. -1.
</event>
<event>
 7    1  0.6330892E-006  0.5299940E+02  0.7818608E-02  0.1470186E+00
          2   -1    0    0  502    0  0.00000000000E+00  0.00000000000E+00  0.26344876813E+04  0.26344876813E+04  0.00000000000E+00 0. -1.
          1   -1    0    0  501    0 -0.00000000000E+00 -0.00000000000E+00 -0.25101841562E+03  0.25101841562E+03  0.00000000000E+00 0. -1.
         25    2    1    2    0    0 -0.91072598515E+01 -0.42978757022E+02  0.21610771506E+04  0.21651350908E+04  0.12500157803E+03 0.  0.
          2    1    1    2  501    0 -0.38768576872E+02 -0.67890698405E+01 -0.24488035760E+03  0.24802315126E+03  0.00000000000E+00 0. -1.
          1    1    1    2  502    0  0.47875836724E+02  0.49767826862E+02  0.46727247264E+03  0.47234785489E+03  0.00000000000E+00 0. -1.
         22    1    3    3    0    0 -0.21869163332E+02 -0.84207158936E+02  0.16228445890E+04  0.16251749647E+04  0.00000000000E+00 0. -1.
         22    1    3    3    0    0  0.12761903481E+02  0.41228401914E+02  0.53823256167E+03  0.53996012607E+03  0.00000000000E+00 0. -1.
</event>
<event>
 7    1  0.6330892E-006  0.2210288E+03  0.7818608E-02  0.1263243E+00
          2   -1    0    0  502    0  0.00000000000E+00  0.00000000000E+00  0.13027023206E+04  0.13027023206E+04  0.00000000000E+00 0. -1.
          1   -1    0    0  501    0 -0.00000000000E+00 -0.00000000000E+00 -0.62318649662E+03  0.62318649662E+03  0.00000000000E+00 0. -1.
         25    2    1    2    0    0  0.13434785525E+03  0.13511676641E+03 -0.12452341908E+03  0.25968622734E+03  0.12499987198E+03 0.  0.
          2    1    1    2  501    0 -0.14343011487E+03 -0.18766662970E+03 -0.39809087304E+03  0.46289016511E+03  0.00000000000E+00 0. -1.
          1    1    1    2  502    0  0.90822596153E+01  0.52549863292E+02  0.12021301161E+04  0.12033124248E+04  0.00000000000E+00 0. -1.
         22    1    3    3    0    0  0.15171985225E+03  0.13614502745E+03 -0.93839340223E+02  0.22441079261E+03  0.00000000000E+00 0.  1.
         22    1    3    3    0    0 -0.17371996996E+02 -0.10282610341E+01 -0.30684078860E+02  0.35275434737E+02  0.00000000000E+00 0.  1.
</event>
<event>
 7    1  0.6330892E-006  0.9711842E+02  0.7818608E-02  0.1450208E+00
          2   -1    0    0  502    0  0.00000000000E+00  0.00000000000E+00  0.59591383829E+03  0.59591383829E+03  0.00000000000E+00 0. -1.
          1   -1    0    0  501    0 -0.00000000000E+00 -0.00000000000E+00 -0.25407328129E+03  0.25407328129E+03  0.00000000000E+00 0. -1.
         25    2    1    2    0    0  0.78770857970E+02  0.74366493552E+01 -0.83577003447E+00  0.14794468419E+03  0.12500711680E+03 0.  0.
          2    1    1    2  501    0 -0.98006716627E+02 -0.23141203594E+02 -0.16524652745E+03  0.19351291079E+03  0.00000000000E+00 0. -1.
          1    1    1    2  502    0  0.19235858657E+02  0.15704554239E+02  0.50792285448E+03  0.50852952460E+03  0.00000000000E+00 0. -1.
         22    1    3    3    0    0  0.20377530071E+02  0.17733087122E+02 -0.58997057186E+02  0.64887278162E+02  0.00000000000E+00 0. -1.
         22    1    3    3    0    0  0.58393327899E+02 -0.10296437767E+02  0.58161287151E+02  0.83057406033E+02  0.00000000000E+00 0. -1.
</event>
<event>
 7    1  0.6330892E-006  0.1817330E+03  0.7818608E-02  0.1367604E+00
          2   -1    0    0  502    0  0.00000000000E+00  0.00000000000E+00  0.18752167135E+04  0.18752167135E+04  0.00000000000E+00 0. -1.
          1   -1    0    0  501    0 -0.00000000000E+00 -0.00000000000E+00 -0.10557524697E+04  0.10557524697E+04  0.00000000000E+00 0. -1.
         25    2    1    2    0    0 -0.18952728541E+03  0.59534208177E+02 -0.10056602841E+03  0.25535088121E+03  0.12500253039E+03 0.  0.
          2    1    1    2  501    0  0.22635862099E+02  0.11351448201E+02 -0.87303811529E+03  0.87340528301E+03  0.00000000000E+00 0. -1.
          1    1    1    2  502    0  0.16689142332E+03 -0.70885656377E+02  0.17930683875E+04  0.18022130190E+04  0.00000000000E+00 0. -1.
         22    1    3    3    0    0  0.11373539208E+02  0.10252359841E+02 -0.35241420661E+02  0.38424289279E+02  0.00000000000E+00 0. -1.
         22    1    3    3    0    0 -0.20090082462E+03  0.49281848336E+02 -0.65324607747E+02  0.21692659193E+03  0.00000000000E+00 0. -1.
</event>
<event>
 7    1  0.6330892E-006  0.3144057E+03  0.7818608E-02  0.1273441E+00
          2   -1    0    0  502    0  0.00000000000E+00  0.00000000000E+00  0.28463688621E+03  0.28463688621E+03  0.00000000000E+00 0. -1.
          1   -1    0    0  501    0 -0.00000000000E+00 -0.00000000000E+00 -0.19759301431E+04  0.19759301431E+04  0.00000000000E+00 0. -1.
         25    2    1    2    0    0 -0.19094281954E+03 -0.21601144207E+03 -0.10864019581E+04  0.11309358048E+04  0.12500590640E+03 0.  0.
          2    1    1    2  501    0 -0.33028896354E+02 -0.79020944792E+01 -0.77117950096E+03  0.77192692257E+03  0.00000000000E+00 0. -1.
          1    1    1    2  502    0  0.22397171590E+03  0.22391353655E+03  0.16628820222E+03  0.35770430186E+03  0.00000000000E+00 0. -1.
         22    1    3    3    0    0 -0.10457889285E+03 -0.65735996234E+02 -0.27871025294E+03  0.30485631226E+03  0.00000000000E+00 0. -1.
         22    1    3    3    0    0 -0.86363926693E+02 -0.15027544583E+03 -0.80769170518E+03  0.82607949259E+03  0.00000000000E+00 0. -1.
</event>
<event>
 7    1  0.6330892E-006  0.5931208E+02  0.7818608E-02  0.1485809E+00
          2   -1    0    0  502    0  0.00000000000E+00  0.00000000000E+00  0.21489187805E+03  0.21489187805E+03  0.00000000000E+00 0. -1.
          1   -1    0    0  501    0 -0.00000000000E+00 -0.00000000000E+00 -0.31366968009E+03  0.31366968009E+03  0.00000000000E+00 0. -1.
         25    2    1    2    0    0  0.38299735925E+02 -0.40768332830E+02  0.93852312214E+02  0.16601850815E+03  0.12499984723E+03 0.  0.
          2    1    1    2  501    0 -0.12173472525E+02  0.58339399158E+02 -0.27131994304E+03  0.27778803145E+03  0.00000000000E+00 0. -1.
          1    1    1    2  502    0 -0.26126263400E+02 -0.17571066328E+02  0.78689828784E+02  0.84755018525E+02  0.00000000000E+00 0. -1.
         22    1    3    3    0    0  0.50804074494E+02  0.24059242277E+02  0.65955562668E+01  0.56598608522E+02  0.00000000000E+00 0. -1.
         22    1    3    3    0    0 -0.12504338569E+02 -0.64827575107E+02  0.87256755947E+02  0.10941989963E+03  0.00000000000E+00 0. -1.
</event>
<event>
 7    1  0.6330892E-006  0.1003526E+03  0.7818608E-02  0.1446026E+00
          2   -1    0    0  502    0  0.00000000000E+00  0.00000000000E+00  0.12904321872E+04  0.12904321872E+04  0.00000000000E+00 0. -1.
          1   -1    0    0  501    0 -0.00000000000E+00 -0.00000000000E+00 -0.19680024711E+04  0.19680024711E+04  0.00000000000E+00 0. -1.
         25    2    1    2    0    0  0.75255870845E+02  0.20773787212E+02  0.43846195467E+02  0.15376100043E+03  0.12499984026E+03 0.  0.
          2    1    1    2  501    0 -0.99464527808E+02 -0.15454809067E+02 -0.19115918744E+04  0.19142401985E+04  0.00000000000E+00 0. -1.
          1    1    1    2  502    0  0.24208656963E+02 -0.53189781447E+01  0.11901753949E+04  0.11904334594E+04  0.00000000000E+00 0. -1.
         22    1    3    3    0    0  0.51423522241E+02 -0.71662726484E+01 -0.37808752553E+02  0.64227999136E+02  0.00000000000E+00 0. -1.
         22    1    3    3    0    0  0.23832348604E+02  0.27940059860E+02  0.81654948020E+02  0.89533001297E+02  0.00000000000E+00 0. -1.
</event>
<event>
 7    1  0.6330892E-006  0.1125210E+03  0.7818608E-02  0.1273036E+00
          2   -1    0    0  502    0  0.00000000000E+00  0.00000000000E+00  0.76860376368E+03  0.76860376368E+03  0.00000000000E+00 0. -1.
          1   -1    0    0  501    0 -0.00000000000E+00 -0.00000000000E+00 -0.24980334776E+03  0.24980334776E+03  0.00000000000E+00 0. -1.
         25    2    1    2    0    0 -0.37707552229E+00  0.50112304156E+02 -0.81583779696E+01  0.13491883697E+03  0.12500059290E+03 0.  0.
          2    1    1    2  501    0 -0.42344370958E+02 -0.13526019352E+03 -0.14619877007E+03  0.20362329452E+03  0.00000000000E+00 0. -1.
          1    1    1    2  502    0  0.42721446481E+02  0.85147889365E+02  0.67315756395E+03  0.67986497995E+03  0.00000000000E+00 0. -1.
         22    1    3    3    0    0 -0.52919044013E+02  0.57180903079E+02 -0.20339955696E+02  0.80522013722E+02  0.00000000000E+00 0.  1.
         22    1    3    3    0    0  0.52541968491E+02 -0.70685989228E+01  0.12181577726E+02  0.54396823248E+02  0.00000000000E+00 0.  1.
</event>
<event>
 7    1  0.6330892E-006  0.7130694E+02  0.7818608E-02  0.1474609E+00
          2   -1    0    0  502    0  0.00000000000E+00  0.00000000000E+00  0.85223483946E+02  0.85223483946E+02  0.00000000000E+00 0. -1.
          1   -1    0    0  501    0 -0.00000000000E+00 -0.00000000000E+00 -0.63694676734E+03  0.63694676734E+03  0.00000000000E+00 0. -1.
         25    2    1    2    0    0 -0.76952351017E+02  0.22493703006E+02 -0.18877573416E+03  0.24018008249E+03  0.12499025247E+03 0.  0.
          2    1    1    2  501    0  0.56729597990E+02 -0.42354395259E+02 -0.41592471990E+03  0.42190699771E+03  0.00000000000E+00 0. -1.
          1    1    1    2  502    0  0.20222753026E+02  0.19860692253E+02  0.52977170670E+02  0.60083171096E+02  0.00000000000E+00 0. -1.
         22    1    3    3    0    0 -0.66536406643E+01  0.46246914721E+02 -0.11670995859E+02  0.48158698068E+02  0.00000000000E+00 0. -1.
         22    1    3    3    0    0 -0.70298710352E+02 -0.23753211715E+02 -0.17710473830E+03  0.19202138442E+03  0.00000000000E+00 0. -1.
</event>
<event>
 7    1  0.6330892E-006  0.1052051E+03  0.7818608E-02  0.1300888E+00
          2   -1    0    0  502    0  0.00000000000E+00  0.00000000000E+00  0.62963108058E+03  0.62963108058E+03  0.00000000000E+00 0. -1.
          1   -1    0    0  501    0 -0.00000000000E+00 -0.00000000000E+00 -0.30888405017E+03  0.30888405017E+03  0.00000000000E+00 0. -1.
         25    2    1    2    0    0 -0.25399739620E+01 -0.56637124785E+02  0.62857624982E+02  0.15096587400E+03  0.12500159488E+03 0.  0.
          2    1    1    2  501    0  0.76838285760E+02  0.81645801373E+02 -0.24981896788E+03  0.27382416941E+03  0.00000000000E+00 0. -1.
          1    1    1    2  502    0 -0.74298311798E+02 -0.25008676588E+02  0.50770837331E+03  0.51372508735E+03  0.00000000000E+00 0. -1.
         22    1    3    3    0    0  0.19570219338E+02 -0.66562223754E+01  0.88295478568E+02  0.90682910831E+02  0.00000000000E+00 0. -1.
         22    1    3    3    0    0 -0.22110193300E+02 -0.49980902410E+02 -0.25437853586E+02  0.60282963170E+02  0.00000000000E+00 0. -1.
</event>
<event>
 7    1  0.6330892E-006  0.1278746E+03  0.7818608E-02  0.1331218E+00
          2   -1    0    0  502    0  0.00000000000E+00  0.00000000000E+00  0.10068223461E+04  0.10068223461E+04  0.00000000000E+00 0. -1.
          1   -1    0    0  501    0 -0.00000000000E+00 -0.00000000000E+00 -0.92960614184E+02  0.92960614184E+02  0.00000000000E+00 0. -1.
         25    2    1    2    0    0  0.15112711186E+03 -0.67760861383E+02  0.36427027439E+03  0.41922368079E+03  0.12499889383E+03 0.  0.
          2    1    1    2  501    0 -0.36331445952E+02  0.33034529008E+02 -0.49415066872E+02  0.69664215389E+02  0.00000000000E+00 0. -1.
          1    1    1    2  502    0 -0.11479566591E+03  0.34726332374E+02  0.59900652438E+03  0.61089506408E+03  0.00000000000E+00 0. -1.
         22    1    3    3    0    0  0.14069618475E+03 -0.18187496718E+02  0.18619496590E+03  0.23408282032E+03  0.00000000000E+00 0. -1.
         22    1    3    3    0    0  0.10430927104E+02 -0.49573364665E+02  0.17807530848E+03  0.18514086047E+03  0.00000000000E+00 0. -1.
</event>
<event>
 7    1  0.6330892E-006  0.1566915E+03  0.7818608E-02  0.1210975E+00
          2   -1    0    0  502    0  0.00000000000E+00  0.00000000000E+00  0.36574509150E+03  0.36574509150E+03  0.00000000000E+00 0. -1.
          1   -1    0    0  501    0 -0.00000000000E+00 -0.00000000000E+00 -0.45128466432E+03  0.45128466432E+03  0.00000000000E+00 0. -1.
         25    2    1    2    0    0 -0.17922574063E+03 -0.19015796884E+03  0.46908590086E+02  0.29344190914E+03  0.12500327595E+03 0.  0.
          2    1    1    2  501    0  0.10039345882E+03  0.79822011982E+02 -0.28917323490E+03  0.31634089200E+03  0.00000000000E+00 0. -1.
          1    1    1    2  502    0  0.78832281814E+02  0.11033595686E+03  0.15672507199E+03  0.20724695468E+03  0.00000000000E+00 0. -1.
         22    1    3    3    0    0 -0.14499566943E+03 -0.20547728526E+03  0.33959078518E+02  0.25376736970E+03  0.00000000000E+00 0.  1.
         22    1    3    3    0    0 -0.34230071199E+02  0.15319316419E+02  0.12949511569E+02  0.39674539439E+02  0.00000000000E+00 0.  1.
</event>
<event>
 7    1  0.6330892E-006  0.8363422E+02  0.7818608E-02  0.1385289E+00
          2   -1    0    0  502    0  0.00000000000E+00  0.00000000000E+00  0.25738582729E+03  0.25738582729E+03  0.00000000000E+00 0. -1.
          1   -1    0    0  501    0 -0.00000000000E+00 -0.00000000000E+00 -0.88544644105E+03  0.88544644105E+03  0.00000000000E+00 0. -1.
         25    2    1    2    0    0  0.11646685117E+03  0.21750739726E+02 -0.94180265373E+02  0.19629590885E+03  0.12499815737E+03 0.  0.
          2    1    1    2  501    0 -0.44365351104E+02  0.17242404758E+02 -0.73126270816E+03  0.73281016180E+03  0.00000000000E+00 0. -1.
          1    1    1    2  502    0 -0.72101500064E+02 -0.38993144484E+02  0.19738235977E+03  0.21372619768E+03  0.00000000000E+00 0. -1.
         22    1    3    3    0    0 -0.21311988846E+01  0.33450212598E+02  0.13062232512E+02  0.35973332481E+02  0.00000000000E+00 0. -1.
         22    1    3    3    0    0  0.11859805005E+03 -0.11699472872E+02 -0.10724249789E+03  0.16032257637E+03  0.00000000000E+00 0. -1.
</event>
<event>
 7    1  0.6330892E-006  0.1254995E+03  0.7818608E-02  0.1371225E+00
          2   -1    0    0  502    0  0.00000000000E+00  0.00000000000E+00  0.35399364554E+03  0.35399364554E+03  0.00000000000E+00 0. -1.
          1   -1    0    0  501    0 -0.00000000000E+00 -0.00000000000E+00 -0.10562156951E+04  0.10562156951E+04  0.00000000000E+00 0. -1.
         25    2    1    2    0    0  0.53026990809E+02 -0.14189767935E+03 -0.14164396263E+03  0.24214568974E+03  0.12499883899E+03 0.  0.
          2    1    1    2  501    0 -0.29232170958E+02  0.20292842851E+02 -0.85129638778E+03  0.85203982250E+03  0.00000000000E+00 0. -1.
          1    1    1    2  502    0 -0.23794819850E+02  0.12160483650E+03  0.29071830081E+03  0.31602382843E+03  0.00000000000E+00 0. -1.
         22    1    3    3    0    0 -0.20576324931E+02  0.13305387464E+02 -0.14932524407E+02  0.28694925830E+02  0.00000000000E+00 0. -1.
         22    1    3    3    0    0  0.73603315739E+02 -0.15520306682E+03 -0.12671143822E+03  0.21345076391E+03  0.00000000000E+00 0. -1.
</event>
<event>
 7    1  0.6330892E-006  0.5501857E+02  0.7818608E-02  0.1454601E+00
          2   -1    0    0  502    0  0.00000000000E+00  0.00000000000E+00  0.52545908998E+03  0.52545908998E+03  0.00000000000E+00 0. -1.
          1   -1    0    0  501    0 -0.00000000000E+00 -0.00000000000E+00 -0.14490145663E+03  0.14490145663E+03  0.00000000000E+00 0. -1.
         25    2    1    2    0    0 -0.27915720956E+02  0.45136666042E+02  0.11696628302E+03  0.17923089061E+03  0.12500397869E+03 0.  0.
          2    1    1    2  501    0  0.41388684019E+02  0.94006281709E+01 -0.10762246883E+03  0.11568919903E+03  0.00000000000E+00 0. -1.
          1    1    1    2  502    0 -0.13472963063E+02 -0.54537294213E+02  0.37121381916E+03  0.37544045697E+03  0.00000000000E+00 0. -1.
         22    1    3    3    0    0 -0.62500288466E+02  0.23356305366E+02  0.13622231759E+02  0.68098225063E+02  0.00000000000E+00 0.  1.
         22    1    3    3    0    0  0.34584567510E+02  0.21780360676E+02  0.10334405126E+03  0.11113266554E+03  0.00000000000E+00 0.  1.
</event>
<event>
 7    1  0.6330892E-006  0.5553093E+02  0.7818608E-02  0.1496220E+00
          2   -1    0    0  502    0  0.00000000000E+00  0.00000000000E+00  0.22508906766E+04  0.22508906766E+04  0.00000000000E+00 0. -1.
          1   -1    0    0  501    0 -0.00000000000E+00 -0.00000000000E+00 -0.62645359199E+03  0.62645359199E+03  0.00000000000E+00 0. -1.
         25    2    1    2    0    0 -0.19368847380E+02  0.40837048207E+02 -0.31469871967E+03  0.34162033202E+03  0.12500540119E+03 0.  0.
          2    1    1    2  501    0 -0.63180746613E+01 -0.58686425142E+02 -0.29526357779E+03  0.30110562089E+03  0.00000000000E+00 0. -1.
          1    1    1    2  502    0  0.25686922041E+02  0.17849376935E+02  0.22343993821E+04  0.22346183157E+04  0.00000000000E+00 0. -1.
         22    1    3    3    0    0 -0.25555714633E+01  0.84429830521E+02 -0.17507876646E+03  0.19439007612E+03  0.00000000000E+00 0.  1.
         22    1    3    3    0    0 -0.16813275917E+02 -0.43592782314E+02 -0.13961995321E+03  0.14723025590E+03  0.00000000000E+00 0.  1.
</event>
<event>
 7    1  0.6330892E-006  0.4095149E+02  0.7818608E-02  0.1522911E+00
          2   -1    0    0  502    0  0.00000000000E+00  0.00000000000E+00  0.18914111826E+04  0.18914111826E+04  0.00000000000E+00 0. -1.
          1   -1    0    0  501    0 -0.00000000000E+00 -0.00000000000E+00 -0.26952894592E+03  0.26952894592E+03  0.00000000000E+00 0. -1.
         25    2    1    2    0    0  0.79088369416E+01  0.32248935073E+02  0.12748171800E+03  0.18159507377E+03  0.12499055516E+03 0.  0.
          2    1    1    2  501    0  0.27450338940E+02 -0.30725445521E+02 -0.24054021154E+03  0.24404337212E+03  0.00000000000E+00 0. -1.
          1    1    1    2  502    0 -0.35359175881E+02 -0.15234895521E+01  0.17349407303E+04  0.17353016827E+04  0.00000000000E+00 0. -1.
         22    1    3    3    0    0  0.92382602667E+01  0.63748188896E+02  0.16882098998E+02  0.66589656155E+02  0.00000000000E+00 0.  1.
         22    1    3    3    0    0 -0.13294233251E+01 -0.31499253823E+02  0.11059961900E+03  0.11500541761E+03  0.00000000000E+00 0.  1.
</event>
<event>
 7    1  0.9675240E-006  0.7007051E+02  0.7818608E-02  0.1393159E+00
          2   -1    0    0  502    0  0.00000000000E+00  0.00000000000E+00  0.25196623041E+04  0.25196623041E+04  0.00000000000E+00 0. -1.
          1   -1    0    0  501    0 -0.00000000000E+00 -0.00000000000E+00 -0.90202544927E+03  0.90202544927E+03  0.00000000000E+00 0. -1.
         25    2    1    2    0    0  0.21201525787E+01  0.20047378420E+02 -0.70209276791E+02  0.14475866381E+03  0.12497734103E+03 0.  0.
          2    1    1    2  501    0 -0.28246087305E+02  0.45231233556E+02 -0.79314808107E+03  0.79493872999E+03  0.00000000000E+00 0. -1.
          1    1    1    2  502    0  0.26125934726E+02 -0.65278611976E+02  0.24809942127E+04  0.24819903596E+04  0.00000000000E+00 0. -1.
         22    1    3    3    0    0 -0.33597393245E+02  0.29629683970E+02 -0.91650154414E+02  0.10201202777E+03  0.00000000000E+00 0. -1.
         22    1    3    3    0    0  0.35717545824E+02 -0.95823055502E+01  0.21440877624E+02  0.42746636039E+02  0.00000000000E+00 0. -1.
</event>
<event>
 7    1  0.6330892E-006  0.1181929E+03  0.7818608E-02  0.1430413E+00
          2   -1    0    0  502    0  0.00000000000E+00  0.00000000000E+00  0.25793759477E+03  0.25793759477E+03  0.00000000000E+00 0. -1.
          1   -1    0    0  501    0 -0.00000000000E+00 -0.00000000000E+00 -0.12904543206E+04  0.12904543206E+04  0.00000000000E+00 0. -1.
         25    2    1    2    0    0  0.34432712356E+02 -0.93271531271E+02 -0.22075279462E+03  0.27247668802E+03  0.12500623568E+03 0.  0.
          2    1    1    2  501    0 -0.52154981582E+02  0.10894118057E+03 -0.10397315615E+04  0.10467234796E+04  0.00000000000E+00 0. -1.
          1    1    1    2  502    0  0.17722269227E+02 -0.15669649303E+02  0.22796763030E+03  0.22919174767E+03  0.00000000000E+00 0. -1.
         22    1    3    3    0    0  0.50581646837E+02  0.54628719658E+01 -0.35834390028E+02  0.62229008312E+02  0.00000000000E+00 0. -1.
         22    1    3    3    0    0 -0.16148934481E+02 -0.98734403237E+02 -0.18491840459E+03  0.21024767971E+03  0.00000000000E+00 0. -1.
</event>
<event>
 7    1  0.6330892E-006  0.6697995E+02  0.7818608E-02  0.1446796E+00
          2   -1    0    0  502    0  0.00000000000E+00  0.00000000000E+00  0.16823047555E+04  0.16823047555E+04  0.00000000000E+00 0. -1.
          1   -1    0    0  501    0 -0.00000000000E+00 -0.00000000000E+00 -0.10269175326E+03  0.10269175326E+03  0.00000000000E+00 0. -1.
         25    2    1    2    0    0 -0.47465149826E+02 -0.31339501717E+02  0.18175931146E+03  0.22780576620E+03  0.12499565991E+03 0.  0.
          2    1    1    2  501    0 -0.20157195726E+02  0.30937149502E+02 -0.74572006218E+02  0.83213003012E+02  0.00000000000E+00 0. -1.
          1    1    1    2  502    0  0.67622345552E+02  0.40235221517E+00  0.14724256970E+04  0.14739777396E+04  0.00000000000E+00 0. -1.
         22    1    3    3    0    0 -0.85427487100E+01 -0.92173905260E+00 -0.19109321610E+02  0.20952191551E+02  0.00000000000E+00 0. -1.
         22    1    3    3    0    0 -0.38922401116E+02 -0.30417762665E+02  0.20086863307E+03  0.20685357465E+03  0.00000000000E+00 0. -1.
</event>
<event>
 7    1  0.6330892E-006  0.8568982E+02  0.7818608E-02  0.1331688E+00
          2   -1    0    0  502    0  0.00000000000E+00  0.00000000000E+00  0.15302342747E+04  0.15302342747E+04  0.00000000000E+00 0. -1.
          1   -1    0    0  501    0 -0.00000000000E+00 -0.00000000000E+00 -0.10864796578E+04  0.10864796578E+04  0.00000000000E+00 0. -1.
         25    2    1    2    0    0  0.68844412175E+02 -0.62630574904E+02  0.17052677852E+03  0.23101154414E+03  0.12499923733E+03 0.  0.
          2    1    1    2  501    0  0.17477521469E+02  0.70853029439E+02 -0.10535597937E+04  0.10560842080E+04  0.00000000000E+00 0. -1.
          1    1    1    2  502    0 -0.86321933644E+02 -0.82224545348E+01  0.13267876321E+04  0.13296181804E+04  0.00000000000E+00 0. -1.
         22    1    3    3    0    0  0.10093851026E+03 -0.57801279661E+02  0.15805555307E+03  0.19624252505E+03  0.00000000000E+00 0. -1.
         22    1    3    3    0    0 -0.32094098080E+02 -0.48292952436E+01  0.12471225448E+02  0.34769019087E+02  0.00000000000E+00 0. -1.
</event>
<event>
 7    1  0.6330892E-006  0.3560958E+02  0.7818608E-02  0.1560558E+00
          2   -1    0    0  502    0  0.00000000000E+00  0.00000000000E+00  0.19254318321E+03  0.19254318321E+03  0.00000000000E+00 0. -1.
          1   -1    0    0  501    0 -0.00000000000E+00 -0.00000000000E+00 -0.14286791605E+04  0.14286791605E+04  0.00000000000E+00 0. -1.
         25    2    1    2    0    0  0.52580669750E+02 -0.63311929244E+01  0.22548283615E+02  0.13761459901E+03  0.12499816771E+03 0.  0.
          2    1    1    2  501    0 -0.31131543929E+02 -0.17244022693E+02 -0.13686518163E+04  0.13691144304E+04  0.00000000000E+00 0. -1.
          1    1    1    2  502    0 -0.21449125820E+02  0.23575215618E+02  0.10996755536E+03  0.11449331431E+03  0.00000000000E+00 0. -1.
         22    1    3    3    0    0  0.71235354901E+02  0.23408821526E+02 -0.24525009403E+02  0.78891855088E+02  0.00000000000E+00 0.  1.
         22    1    3    3    0    0 -0.18654685151E+02 -0.29740014451E+02  0.47073293018E+02  0.58722743917E+02  0.00000000000E+00 0.  1.
</event>
<event>
 7    1  0.6330892E-006  0.4736812E+02  0.7818608E-02  0.1460907E+00
          2   -1    0    0  502    0  0.00000000000E+00  0.00000000000E+00  0.13635264657E+04  0.13635264657E+04  0.00000000000E+00 0. -1.
          1   -1    0    0  501    0 -0.00000000000E+00 -0.00000000000E+00 -0.17061971799E+03  0.17061971799E+03  0.00000000000E+00 0. -1.
         25    2    1    2    0    0  0.23563388444E+02 -0.28907963881E+02  0.10059392561E+02  0.13083160740E+03  0.12499925786E+03 0.  0.
          2    1    1    2  501    0  0.20570400407E+02  0.45311453127E+02 -0.10416515736E+03  0.11544110691E+03  0.00000000000E+00 0. -1.
          1    1    1    2  502    0 -0.44133788851E+02 -0.16403489246E+02  0.12870125126E+04  0.12878734694E+04  0.00000000000E+00 0. -1.
         22    1    3    3    0    0  0.36509687247E+02 -0.41193626226E+02 -0.46166095834E+02  0.71841356537E+02  0.00000000000E+00 0.  1.
         22    1    3    3    0    0 -0.12946298803E+02  0.12285662346E+02  0.56225488395E+02  0.58990250866E+02  0.00000000000E+00 0.  1.
</event>
<event>
 7    1  0.6330892E-006  0.1538700E+03  0.7818608E-02  0.1350088E+00
          2   -1    0    0  502    0  0.00000000000E+00  0.00000000000E+00  0.10542971648E+04  0.10542971648E+04  0.00000000000E+00 0. -1.
          1   -1    0    0  501    0 -0.00000000000E+00 -0.00000000000E+00 -0.12135434664E+03  0.12135434664E+03  0.00000000000E+00 0. -1.
         25    2    1    2    0    0 -0.33412119632E+02  0.14482020734E+03  0.65389538951E+02  0.20491513684E+03  0.12500063723E+03 0.  0.
          2    1    1    2  501    0  0.33225735532E+02  0.98673823056E+01 -0.38366998779E+02  0.51704364714E+02  0.00000000000E+00 0. -1.
          1    1    1    2  502    0  0.18638410066E+00 -0.15468758964E+03  0.90592027799E+03  0.91903200988E+03  0.00000000000E+00 0. -1.
         22    1    3    3    0    0 -0.45937476921E+02  0.15386947963E+03  0.83594648509E+02  0.18103627760E+03  0.00000000000E+00 0. -1.
         22    1    3    3    0    0  0.12525357289E+02 -0.90492722968E+01 -0.18205109558E+02  0.23878859234E+02  0.00000000000E+00 0. -1.
</event>
<event>
 7    1  0.6330892E-006  0.8407725E+02  0.7818608E-02  0.1426752E+00
          2   -1    0    0  502    0  0.00000000000E+00  0.00000000000E+00  0.20991119117E+04  0.20991119117E+04  0.00000000000E+00 0. -1.
          1   -1    0    0  501    0 -0.00000000000E+00 -0.00000000000E+00 -0.20433312949E+02  0.20433312949E+02  0.00000000000E+00 0. -1.
         25    2    1    2    0    0 -0.36841560353E+02 -0.56566377501E+02  0.12639167488E+04  0.12718754241E+04  0.12499796405E+03 0.  0.
          2    1    1    2  501    0  0.70300833304E+02  0.49521918391E+02  0.99165824556E+02  0.13125733627E+03  0.00000000000E+00 0. -1.
          1    1    1    2  502    0 -0.33459272951E+02  0.70444591099E+01  0.71559602536E+03  0.71641246420E+03  0.00000000000E+00 0. -1.
         22    1    3    3    0    0  0.28832038258E+02 -0.84964794501E+01  0.85096700902E+02  0.90249238765E+02  0.00000000000E+00 0.  1.
         22    1    3    3    0    0 -0.65673598611E+02 -0.48069898051E+02  0.11788200479E+04  0.11816261854E+04  0.00000000000E+00 0.  1.
</event>
<event>
 7    1  0.6330892E-006  0.9811954E+02  0.7818608E-02  0.1299627E+00
          2   -1    0    0  502    0  0.00000000000E+00  0.00000000000E+00  0.10800617991E+03  0.10800617991E+03  0.00000000000E+00 0. -1.
          1   -1    0    0  501    0 -0.00000000000E+00 -0.00000000000E+00 -0.66142248651E+03  0.66142248651E+03  0.00000000000E+00 0. -1.
         25    2    1    2    0    0  0.16046285675E+01 -0.23575266667E+02 -0.22413706781E+03  0.25772341697E+03  0.12500226581E+03 0.  0.
          2    1    1    2  501    0  0.49219752769E+01 -0.84895867967E+02 -0.38169770530E+03  0.39105584316E+03  0.00000000000E+00 0. -1.
          1    1    1    2  502    0 -0.65266038444E+01  0.10847113463E+03  0.52418466505E+02  0.12064940629E+03  0.00000000000E+00 0. -1.
         22    1    3    3    0    0 -0.44154191268E+02 -0.28115891450E+02 -0.19805957257E+03  0.20486017242E+03  0.00000000000E+00 0.  1.
         22    1    3    3    0    0  0.45758819836E+02  0.45406247824E+01 -0.26077495244E+02  0.52863244550E+02  0.00000000000E+00 0.  1.
</event>
<event>
 7    1  0.6330892E-006  0.7676324E+02  0.7818608E-02  0.1395009E+00
          2   -1    0    0  502    0  0.00000000000E+00  0.00000000000E+00  0.18661484950E+04  0.18661484950E+04  0.00000000000E+00 0. -1.
          1   -1    0    0  501    0 -0.00000000000E+00 -0.00000000000E+00 -0.32462367251E+02  0.32462367251E+02  0.00000000000E+00 0. -1.
         25    2    1    2    0    0 -0.15569478301E+01 -0.30775481675E+02  0.15604335112E+04  0.15657361819E+04  0.12500997616E+03 0.  0.
          2    1    1    2  501    0  0.13293701785E+02  0.77280162437E+02  0.28448377980E+02  0.83416162841E+02  0.00000000000E+00 0. -1.
          1    1    1    2  502    0 -0.11736753955E+02 -0.46504680762E+02  0.24480423856E+03  0.24945851748E+03  0.00000000000E+00 0. -1.
         22    1    3    3    0    0 -0.28292379025E+02 -0.20089864459E+02  0.14782144222E+04  0.14786216350E+04  0.00000000000E+00 0. -1.
         22    1    3    3    0    0  0.26735431195E+02 -0.10685617216E+02  0.82219088996E+02  0.87114546959E+02  0.00000000000E+00 0. -1.
</event>
<event>
 7    1  0.6330892E-006  0.8287505E+02  0.7818608E-02  0.1437821E+00
          2   -1    0    0  502    0  0.00000000000E+00  0.00000000000E+00  0.34857718018E+04  0.34857718018E+04  0.00000000000E+00 0. -1.
          1   -1    0    0  501    0 -0.00000000000E+00 -0.00000000000E+00 -0.33555003936E+02  0.33555003936E+02  0.00000000000E+00 0. -1.
         25    2    1    2    0    0 -0.75793974204E+02 -0.39177202459E+02  0.27068661043E+04  0.27110935849E+04  0.12499895876E+03 0.  0.
          2    1    1    2  501    0  0.21190726566E+02 -0.23852229339E+02 -0.20455524959E+02  0.37899923986E+02  0.00000000000E+00 0. -1.
          1    1    1    2  502    0  0.54603247638E+02  0.63029431798E+02  0.76580621850E+03  0.77033329683E+03  0.00000000000E+00 0. -1.
         22    1    3    3    0    0 -0.22938817332E+02 -0.80530514089E+02  0.16108008164E+04  0.16129757045E+04  0.00000000000E+00 0.  1.
         22    1    3    3    0    0 -0.52855156872E+02  0.41353311630E+02  0.10960652879E+04  0.10981178804E+04  0.00000000000E+00 0.  1.
</event>
<event>
 7    1  0.1017718E-005  0.1509089E+03  0.7818608E-02  0.1278378E+00
          2   -1    0    0  502    0  0.00000000000E+00  0.00000000000E+00  0.12032605261E+04  0.12032605261E+04  0.00000000000E+00 0. -1.
          1   -1    0    0  501    0 -0.00000000000E+00 -0.00000000000E+00 -0.15254698733E+04  0.15254698733E+04  0.00000000000E+00 0. -1.
         25    2    1    2    0    0 -0.91629233003E+02  0.14926164909E+01 -0.18071390422E+03  0.23808882264E+03  0.12502251013E+03 0.  0.
          2    1    1    2  501    0 -0.56614591895E+02 -0.36732315303E+02 -0.13102546132E+04  0.13119914735E+04  0.00000000000E+00 0. -1.
          1    1    1    2  502    0  0.14824382490E+03  0.35239698812E+02  0.11687591703E+04  0.11786501033E+04  0.00000000000E+00 0. -1.
         22    1    3    3    0    0 -0.22141419580E+02 -0.30867165575E+02 -0.15128368624E+03  0.15598005672E+03  0.00000000000E+00 0.  1.
         22    1    3    3    0    0 -0.69487813423E+02  0.32359782066E+02 -0.29430217979E+02  0.82108765914E+02  0.00000000000E+00 0.  1.
</event>
<event>
 7    1  0.6330892E-006  0.7261020E+02  0.7818608E-02  0.1477969E+00
          2   -1    0    0  502    0  0.00000000000E+00  0.00000000000E+00  0.20826373959E+04  0.20826373959E+04  0.00000000000E+00 0. -1.
          1   -1    0    0  501    0 -0.00000000000E+00 -0.00000000000E+00 -0.75066031211E+02  0.75066031211E+02  0.00000000000E+00 0. -1.
         25    2    1    2    0    0  0.35317870639E+02 -0.79820835578E+02  0.30236650764E+03  0.33863039610E+03  0.12500528966E+03 0.  0.
          2    1    1    2  501    0 -0.95552508237E+01  0.71159830276E+02 -0.34149693586E+02  0.79506137092E+02  0.00000000000E+00 0. -1.
          1    1    1    2  502    0 -0.25762619815E+02  0.86610053019E+01  0.17393545506E+04  0.17395668939E+04  0.00000000000E+00 0. -1.
         22    1    3    3    0    0  0.17173349619E+02  0.19677541015E+02  0.17026988943E+03  0.17226132707E+03  0.00000000000E+00 0. -1.
         22    1    3    3    0    0  0.18144521020E+02 -0.99498376593E+02  0.13209661820E+03  0.16636906902E+03  0.00000000000E+00 0. -1.
</event>
<event>
 7    1  0.6330892E-006  0.7098124E+02  0.7818608E-02  0.1406689E+00
          2   -1    0    0  502    0  0.00000000000E+00  0.00000000000E+00  0.62795649545E+03  0.62795649545E+03  0.00000000000E+00 0. -1.
          1   -1    0    0  501    0 -0.00000000000E+00 -0.00000000000E+00 -0.18859342985E+03  0.18859342985E+03  0.00000000000E+00 0. -1.
         25    2    1    2    0    0  0.10834112546E+03  0.15235473760E+02  0.13427879514E+03  0.21359402460E+03  0.12498677288E+03 0.  0.
          2    1    1    2  501    0 -0.45566784400E+02  0.12663097240E+02 -0.14249364515E+03  0.15013702002E+03  0.00000000000E+00 0. -1.
          1    1    1    2  502    0 -0.62774341064E+02 -0.27898571000E+02  0.44757791561E+03  0.45281888068E+03  0.00000000000E+00 0. -1.
         22    1    3    3    0    0 -0.27185299963E+02  0.77220515364E+01  0.37195379442E+02  0.46713668940E+02  0.00000000000E+00 0. -1.
         22    1    3    3    0    0  0.13552642543E+03  0.75134222237E+01  0.97083415701E+02  0.16688035566E+03  0.00000000000E+00 0. -1.
</event>
<event>
 7    1  0.6330892E-006  0.1508316E+03  0.7818608E-02  0.1201859E+00
          2   -1    0    0  502    0  0.00000000000E+00  0.00000000000E+00  0.55964812273E+03  0.55964812273E+03  0.00000000000E+00 0. -1.
          1   -1    0    0  501    0 -0.00000000000E+00 -0.00000000000E+00 -0.93097040351E+03  0.93097040351E+03  0.00000000000E+00 0. -1.
         25    2    1    2    0    0  0.80543653577E+02  0.53649967685E+02 -0.80271569258E+02  0.17729593035E+03  0.12499889168E+03 0.  0.
          2    1    1    2  501    0 -0.15176399841E+03  0.74886566950E+02 -0.78238762603E+03  0.80048154663E+03  0.00000000000E+00 0. -1.
          1    1    1    2  502    0  0.71220344835E+02 -0.12853653464E+03  0.49133691451E+03  0.51284104927E+03  0.00000000000E+00 0. -1.
         22    1    3    3    0    0  0.73521049733E+02  0.32003718341E+02 -0.11231064780E+03  0.13799733458E+03  0.00000000000E+00 0.  1.
         22    1    3    3    0    0  0.70226038440E+01  0.21646249344E+02  0.32039078542E+02  0.39298595767E+02  0.00000000000E+00 0.  1.
</event>
<event>
 7    1  0.6330892E-006  0.8106450E+02  0.7818608E-02  0.1423801E+00
          2   -1    0    0  502    0  0.00000000000E+00  0.00000000000E+00  0.32500283447E+03  0.32500283447E+03  0.00000000000E+00 0. -1.
          1   -1    0    0  501    0 -0.00000000000E+00 -0.00000000000E+00 -0.15537609520E+03  0.15537609520E+03  0.00000000000E+00 0. -1.
         25    2    1    2    0    0 -0.51379042092E+02 -0.52159903605E+02  0.14270889509E+03  0.20334987176E+03  0.12499952037E+03 0.  0.
          2    1    1    2  501    0 -0.29293970643E+02  0.21388712101E+02 -0.10962926456E+03  0.11547376052E+03  0.00000000000E+00 0. -1.
          1    1    1    2  502    0  0.80673012735E+02  0.30771191505E+02  0.13654710874E+03  0.16155529739E+03  0.00000000000E+00 0. -1.
         22    1    3    3    0    0  0.38317750315E+02 -0.36289952261E+02  0.41120960888E+02  0.66903991276E+02  0.00000000000E+00 0. -1.
         22    1    3    3    0    0 -0.89696792406E+02 -0.15869951344E+02  0.10158793421E+03  0.13644588048E+03  0.00000000000E+00 0. -1.
</event>
<event>
 7    1  0.6330892E-006  0.7646383E+02  0.7818608E-02  0.1414160E+00
          2   -1    0    0  502    0  0.00000000000E+00  0.00000000000E+00  0.20932612878E+04  0.20932612878E+04  0.00000000000E+00 0. -1.
          1   -1    0    0  501    0 -0.00000000000E+00 -0.00000000000E+00 -0.90239661678E+03  0.90239661678E+03  0.00000000000E+00 0. -1.
         25    2    1    2    0    0 -0.36209793731E+02 -0.94326218278E+02  0.10236066373E+04  0.10361487089E+04  0.12500005784E+03 0.  0.
          2    1    1    2  501    0  0.35246100115E+02  0.21752216278E+02 -0.89440730750E+03  0.89536577900E+03  0.00000000000E+00 0. -1.
          1    1    1    2  502    0  0.96369361594E+00  0.72574002000E+02  0.10616653412E+04  0.10641434167E+04  0.00000000000E+00 0. -1.
         22    1    3    3    0    0  0.36700759225E+02 -0.59146271751E+02  0.65883525945E+03  0.66250217078E+03  0.00000000000E+00 0. -1.
         22    1    3    3    0    0 -0.72910552955E+02 -0.35179946527E+02  0.36477137787E+03  0.37364653816E+03  0.00000000000E+00 0. -1.
</event>
<event>
 7    1  0.6330892E-006  0.4209447E+02  0.7818608E-02  0.1527688E+00
          2   -1    0    0  502    0  0.00000000000E+00  0.00000000000E+00  0.78577833493E+03  0.78577833493E+03  0.00000000000E+00 0. -1.
          1   -1    0    0  501    0 -0.00000000000E+00 -0.00000000000E+00 -0.42150532055E+02  0.42150532055E+02  0.00000000000E+00 0. -1.
         25    2    1    2    0    0 -0.18925547917E+01  0.58517291139E+02  0.51564967120E+03  0.53380430397E+03  0.12499838559E+03 0.  0.
          2    1    1    2  501    0  0.23165790273E+02 -0.23999777573E+02 -0.22597233636E+02  0.40289925918E+02  0.00000000000E+00 0. -1.
          1    1    1    2  502    0 -0.21273235481E+02 -0.34517513566E+02  0.25057536531E+03  0.25383463710E+03  0.00000000000E+00 0. -1.
         22    1    3    3    0    0 -0.39500104847E+02  0.24011513287E+01  0.38208082357E+03  0.38412469271E+03  0.00000000000E+00 0.  1.
         22    1    3    3    0    0  0.37607550055E+02  0.56116139811E+02  0.13356884763E+03  0.14967961125E+03  0.00000000000E+00 0.  1.
</event>
<event>
 7    1  0.6330892E-006  0.6199919E+02  0.7818608E-02  0.1436950E+00
          2   -1    0    0  502    0  0.00000000000E+00  0.00000000000E+00  0.33267513189E+03  0.33267513189E+03  0.00000000000E+00 0. -1.
          1   -1    0    0  501    0 -0.00000000000E+00 -0.00000000000E+00 -0.22115872390E+04  0.22115872390E+04  0.00000000000E+00 0. -1.
         25    2    1    2    0    0  0.98802447280E+01  0.94924311031E+02 -0.30990563687E+03  0.34752760667E+03  0.12500275826E+03 0.  0.
          2    1    1    2  501    0 -0.24829486013E+02 -0.35019103650E+02 -0.18795867277E+04  0.18800768888E+04  0.00000000000E+00 0. -1.
          1    1    1    2  502    0  0.14949241285E+02 -0.59905207382E+02  0.31058025749E+03  0.31665787536E+03  0.00000000000E+00 0. -1.
         22    1    3    3    0    0 -0.39205223666E+02  0.50969297194E+02 -0.56185870612E+02  0.85391866566E+02  0.00000000000E+00 0. -1.
         22    1    3    3    0    0  0.49085468394E+02  0.43955013838E+02 -0.25371976626E+03  0.26213574010E+03  0.00000000000E+00 0. -1.
</event>
<event>
 7    1  0.6330892E-006  0.5662429E+02  0.7818608E-02  0.1511285E+00
          2   -1    0    0  502    0  0.00000000000E+00  0.00000000000E+00  0.41626674230E+03  0.41626674230E+03  0.00000000000E+00 0. -1.
          1   -1    0    0  501    0 -0.00000000000E+00 -0.00000000000E+00 -0.25327949148E+04  0.25327949148E+04  0.00000000000E+00 0. -1.
         25    2    1    2    0    0  0.12938875553E+02  0.29287272340E+02 -0.35465005337E+03  0.37739376980E+03  0.12499695320E+03 0.  0.
          2    1    1    2  501    0 -0.35660758478E+02 -0.45084450006E+02 -0.21659183675E+04  0.21666810269E+04  0.00000000000E+00 0. -1.
          1    1    1    2  502    0  0.22721882924E+02  0.15797177665E+02  0.40404024841E+03  0.40498686043E+03  0.00000000000E+00 0. -1.
         22    1    3    3    0    0  0.77970647863E+01  0.64191495485E+02 -0.92387415387E+02  0.11276868729E+03  0.00000000000E+00 0.  1.
         22    1    3    3    0    0  0.51418107670E+01 -0.34904223145E+02 -0.26226263798E+03  0.26462508251E+03  0.00000000000E+00 0.  1.
</event>
<event>
 7    1  0.6330892E-006  0.4153168E+02  0.7818608E-02  0.1520870E+00
          2   -1    0    0  502    0  0.00000000000E+00  0.00000000000E+00  0.77185903529E+03  0.77185903529E+03  0.00000000000E+00 0. -1.
          1   -1    0    0  501    0 -0.00000000000E+00 -0.00000000000E+00 -0.20638144352E+04  0.20638144352E+04  0.00000000000E+00 0. -1.
         25    2    1    2    0    0  0.18952857346E+02 -0.91169090302E+01  0.17105500152E+03  0.21289911585E+03  0.12499556453E+03 0.  0.
          2    1    1    2  501    0 -0.43480502733E+01  0.41337210603E+02 -0.20421411736E+04  0.20425641345E+04  0.00000000000E+00 0. -1.
          1    1    1    2  502    0 -0.14604807073E+02 -0.32220301572E+02  0.57913077221E+03  0.58021022013E+03  0.00000000000E+00 0. -1.
         22    1    3    3    0    0  0.46042838144E+02 -0.78335275333E+01  0.77325492194E+01  0.47340251535E+02  0.00000000000E+00 0. -1.
         22    1    3    3    0    0 -0.27089980798E+02 -0.12833814969E+01  0.16332245230E+03  0.16555886431E+03  0.00000000000E+00 0. -1.
</event>
<event>
 7    1  0.6330892E-006  0.1207274E+03  0.7818608E-02  0.1320256E+00
          2   -1    0    0  502    0  0.00000000000E+00  0.00000000000E+00  0.55778832887E+03  0.55778832887E+03  0.00000000000E+00 0. -1.
          1   -1    0    0  501    0 -0.00000000000E+00 -0.00000000000E+00 -0.64545117602E+03  0.64545117602E+03  0.00000000000E+00 0. -1.
         25    2    1    2    0    0  0.58978848145E+02  0.31246936560E+02  0.11212200348E+03  0.18067753024E+03  0.12497259978E+03 0.  0.
          2    1    1    2  501    0 -0.11478567351E+03 -0.44300923263E+02 -0.60293370991E+03  0.61535955440E+03  0.00000000000E+00 0. -1.
          1    1    1    2  502    0  0.55806825369E+02  0.13053986702E+02  0.40314885927E+03  0.40720242025E+03  0.00000000000E+00 0. -1.
         22    1    3    3    0    0  0.58346663843E+02  0.20290413165E+02  0.13874802310E+03  0.15187839861E+03  0.00000000000E+00 0. -1.
         22    1    3    3    0    0  0.63218430189E+00  0.10956523396E+02 -0.26626019622E+02  0.28799131633E+02  0.00000000000E+00 0. -1.
</event>
<event>
 7    1  0.6330892E-006  0.8757024E+02  0.7818608E-02  0.1423962E+00
          2   -1    0    0  502    0  0.00000000000E+00  0.00000000000E+00  0.98608223647E+03  0.98608223647E+03  0.00000000000E+00 0. -1.
          1   -1    0    0  501    0 -0.00000000000E+00 -0.00000000000E+00 -0.43641916578E+03  0.43641916578E+03  0.00000000000E+00 0. -1.
         25    2    1    2    0    0  0.10127520818E+03 -0.65647017327E+02  0.62149216312E+03  0.64533079512E+03  0.12503250630E+03 0.  0.
          2    1    1    2  501    0 -0.74850957644E+02  0.44997832638E+02 -0.41919172552E+03  0.42819291627E+03  0.00000000000E+00 0. -1.
          1    1    1    2  502    0 -0.26424250537E+02  0.20649184689E+02  0.34736263309E+03  0.34897769085E+03  0.00000000000E+00 0. -1.
         22    1    3    3    0    0  0.54985759629E+02 -0.78124593368E+02  0.20591569986E+03  0.22699815263E+03  0.00000000000E+00 0.  1.
         22    1    3    3    0    0  0.46289448551E+02  0.12477576041E+02  0.41557646326E+03  0.41833264249E+03  0.00000000000E+00 0.  1.
</event>
<event>
 7    1  0.6330892E-006  0.2486563E+02  0.7818608E-02  0.1668138E+00
          2   -1    0    0  502    0  0.00000000000E+00  0.00000000000E+00  0.32811996922E+02  0.32811996922E+02  0.00000000000E+00 0. -1.
          1   -1    0    0  501    0 -0.00000000000E+00 -0.00000000000E+00 -0.35237196861E+03  0.35237196861E+03  0.00000000000E+00 0. -1.
         25    2    1    2    0    0 -0.77711391301E+01 -0.89873428393E+01 -0.13016405606E+03  0.18085456662E+03  0.12499811936E+03 0.  0.
          2    1    1    2  501    0 -0.12246036455E+02  0.22515544767E+02 -0.17355963297E+03  0.17544190310E+03  0.00000000000E+00 0. -1.
          1    1    1    2  502    0  0.20017175586E+02 -0.13528201928E+02 -0.15836282660E+02  0.28887495812E+02  0.00000000000E+00 0. -1.
         22    1    3    3    0    0 -0.44178896750E+02 -0.41220613469E+02 -0.11501943850E+03  0.12992453628E+03  0.00000000000E+00 0.  1.
         22    1    3    3    0    0  0.36407757620E+02  0.32233270629E+02 -0.15144617553E+02  0.50930030348E+02  0.00000000000E+00 0.  1.
</event>
<event>
 7    1  0.6330892E-006  0.7582456E+02  0.7818608E-02  0.1373223E+00
          2   -1    0    0  502    0  0.00000000000E+00  0.00000000000E+00  0.13853182112E+04  0.13853182112E+04  0.00000000000E+00 0. -1.
          1   -1    0    0  501    0 -0.00000000000E+00 -0.00000000000E+00 -0.76450356372E+03  0.76450356372E+03  0.00000000000E+00 0. -1.
         25    2    1    2    0    0  0.93862584767E+02 -0.93706386435E+02  0.11575289628E+03  0.21590424718E+03  0.12499935711E+03 0.  0.
          2    1    1    2  501    0 -0.49192021793E+02  0.56813865519E+02 -0.71176047184E+03  0.71571687112E+03  0.00000000000E+00 0. -1.
          1    1    1    2  502    0 -0.44670562974E+02  0.36892520916E+02  0.12168222230E+04  0.12182006566E+04  0.00000000000E+00 0. -1.
         22    1    3    3    0    0  0.81012310755E+02 -0.99804374363E+02  0.34058406762E+02  0.13298076066E+03  0.00000000000E+00 0. -1.
         22    1    3    3    0    0  0.12850274012E+02  0.60979879275E+01  0.81694489517E+02  0.82923486519E+02  0.00000000000E+00 0. -1.
</event>
<event>
 7    1  0.6330892E-006  0.1809471E+03  0.7818608E-02  0.1197933E+00
          2   -1    0    0  502    0  0.00000000000E+00  0.00000000000E+00  0.79266141366E+03  0.79266141366E+03  0.00000000000E+00 0. -1.
          1   -1    0    0  501    0 -0.00000000000E+00 -0.00000000000E+00 -0.13192144704E+04  0.13192144704E+04  0.00000000000E+00 0. -1.
         25    2    1    2    0    0 -0.23918088975E+03 -0.91274522134E+02  0.20985408029E+03  0.35383943952E+03  0.12500031012E+03 0.  0.
          2    1    1    2  501    0  0.17860284908E+03 -0.21288283413E+02 -0.12325939692E+04  0.12456484503E+04  0.00000000000E+00 0. -1.
          1    1    1    2  502    0  0.60578040661E+02  0.11256280555E+03  0.49618683221E+03  0.51238799426E+03  0.00000000000E+00 0. -1.
         22    1    3    3    0    0 -0.16949465299E+03 -0.17211290009E+02  0.78127918968E+02  0.18742635252E+03  0.00000000000E+00 0.  1.
         22    1    3    3    0    0 -0.69686236751E+02 -0.74063232126E+02  0.13172616133E+03  0.16641308699E+03  0.00000000000E+00 0.  1.
</event>
<event>
 7    1  0.6330892E-006  0.1254416E+03  0.7818608E-02  0.1258198E+00
          2   -1    0    0  502    0  0.00000000000E+00  0.00000000000E+00  0.76986996544E+03  0.76986996544E+03  0.00000000000E+00 0. -1.
          1   -1    0    0  501    0 -0.00000000000E+00 -0.00000000000E+00 -0.21816444373E+04  0.21816444373E+04  0.00000000000E+00 0. -1.
         25    2    1    2    0    0  0.21780284051E+03 -0.47639093916E+02 -0.38247075299E+03  0.46001710137E+03  0.12499718418E+03 0.  0.
          2    1    1    2  501    0 -0.96561824914E+02  0.20607372749E+02 -0.17537254819E+04  0.17565027514E+04  0.00000000000E+00 0. -1.
          1    1    1    2  502    0 -0.12124101560E+03  0.27031721168E+02  0.72442176300E+03  0.73499454999E+03  0.00000000000E+00 0. -1.
         22    1    3    3    0    0  0.19283853406E+02 -0.12422010673E+02  0.47737647782E+01  0.23429941987E+02  0.00000000000E+00 0. -1.
         22    1    3    3    0    0  0.19851898711E+03 -0.35217083243E+02 -0.38724451777E+03  0.43658715938E+03  0.00000000000E+00 0. -1.
</event>
<event>
 7    1  0.6330892E-006  0.3339345E+03  0.7818608E-02  0.1157718E+00
          2   -1    0    0  502    0  0.00000000000E+00  0.00000000000E+00  0.16261090672E+03  0.16261090672E+03  0.00000000000E+00 0. -1.
          1   -1    0    0  501    0 -0.00000000000E+00 -0.00000000000E+00 -0.15709024336E+04  0.15709024336E+04  0.00000000000E+00 0. -1.
         25    2    1    2    0    0 -0.28228917983E+03  0.91550483757E+02 -0.10266335825E+04  0.10759507560E+04  0.12499937785E+03 0.  0.
          2    1    1    2  501    0 -0.62468965522E+02 -0.89381082909E+02 -0.27632829367E+03  0.29706678629E+03  0.00000000000E+00 0. -1.
          1    1    1    2  502    0  0.34475814535E+03 -0.21694008484E+01 -0.10532965071E+03  0.36049579804E+03  0.00000000000E+00 0. -1.
         22    1    3    3    0    0  0.97679675170E+01  0.59053461091E+01 -0.99180289150E+02  0.99834944073E+02  0.00000000000E+00 0. -1.
         22    1    3    3    0    0 -0.29205714734E+03  0.85645137648E+02 -0.92745329334E+03  0.97611581190E+03  0.00000000000E+00 0. -1.
</event>
<event>
 7    1  0.6330892E-006  0.4772582E+02  0.7818608E-02  0.1469509E+00
          2   -1    0    0  502    0  0.00000000000E+00  0.00000000000E+00  0.28834697097E+04  0.28834697097E+04  0.00000000000E+00 0. -1.
          1   -1    0    0  501    0 -0.00000000000E+00 -0.00000000000E+00 -0.22115100817E+03  0.22115100817E+03  0.00000000000E+00 0. -1.
         25    2    1    2    0    0  0.33816913050E+01  0.34881058676E+02  0.55416722154E+03  0.56916965674E+03  0.12499865852E+03 0.  0.
          2    1    1    2  501    0  0.39762703695E+02 -0.26662222800E+02 -0.21075733672E+03  0.21612635590E+03  0.00000000000E+00 0. -1.
          1    1    1    2  502    0 -0.43144395000E+02 -0.82188358762E+01  0.23189088168E+04  0.23193247053E+04  0.00000000000E+00 0. -1.
         22    1    3    3    0    0 -0.35507691059E+02  0.13567832616E+02  0.48822558989E+03  0.48970308232E+03  0.00000000000E+00 0. -1.
         22    1    3    3    0    0  0.38889382364E+02  0.21313226060E+02  0.65941631644E+02  0.79466574418E+02  0.00000000000E+00 0. -1.
</event>
<event>
 7    1  0.6330892E-006  0.7764401E+02  0.7818608E-02  0.1440778E+00
          2   -1    0    0  502    0  0.00000000000E+00  0.00000000000E+00  0.51211723668E+03  0.51211723668E+03  0.00000000000E+00 0. -1.
          1   -1    0    0  501    0 -0.00000000000E+00 -0.00000000000E+00 -0.48873479172E+03  0.48873479172E+03  0.00000000000E+00 0. -1.
         25    2    1    2    0    0  0.31718943120E+02  0.96788094303E+02 -0.25907138319E+03  0.30514670916E+03  0.12499002348E+03 0.  0.
          2    1    1    2  501    0  0.10207081843E+02 -0.31707890226E+02 -0.20219090872E+03  0.20491641807E+03  0.00000000000E+00 0. -1.
          1    1    1    2  502    0 -0.41926024963E+02 -0.65080204076E+02  0.48464473688E+03  0.49078890117E+03  0.00000000000E+00 0. -1.
         22    1    3    3    0    0  0.32721734713E+00  0.71825312209E+02 -0.25489639786E+03  0.26482287701E+03  0.00000000000E+00 0.  1.
         22    1    3    3    0    0  0.31391725773E+02  0.24962782094E+02 -0.41749853371E+01  0.40323832152E+02  0.00000000000E+00 0.  1.
</event>
<event>
 7    1  0.6330892E-006  0.1089206E+03  0.7818608E-02  0.1282745E+00
          2   -1    0    0  502    0  0.00000000000E+00  0.00000000000E+00  0.12552231313E+04  0.12552231313E+04  0.00000000000E+00 0. -1.
          1   -1    0    0  501    0 -0.00000000000E+00 -0.00000000000E+00 -0.21856163082E+03  0.21856163082E+03  0.00000000000E+00 0. -1.
         25    2    1    2    0    0 -0.11735909864E+03 -0.56077504322E+01 -0.80699205227E+02  0.18958429004E+03  0.12500094562E+03 0.  0.
          2    1    1    2  501    0  0.45757876968E+02 -0.77152034618E+02 -0.56001013681E+02  0.10574655211E+03  0.00000000000E+00 0. -1.
          1    1    1    2  502    0  0.71601221675E+02  0.82759785050E+02  0.11733617194E+04  0.11784539200E+04  0.00000000000E+00 0. -1.
         22    1    3    3    0    0  0.19952219958E+02 -0.58638189979E+01 -0.42091080347E+02  0.46948210821E+02  0.00000000000E+00 0. -1.
         22    1    3    3    0    0 -0.13731131860E+03  0.25606856575E+00 -0.38608124879E+02  0.14263607921E+03  0.00000000000E+00 0. -1.
</event>
<event>
 7    1  0.6330892E-006  0.4308353E+02  0.7818608E-02  0.1571991E+00
          2   -1    0    0  502    0  0.00000000000E+00  0.00000000000E+00  0.24450098135E+04  0.24450098135E+04  0.00000000000E+00 0. -1.
          1   -1    0    0  501    0 -0.00000000000E+00 -0.00000000000E+00 -0.46691947445E+01  0.46691947445E+01  0.00000000000E+00 0. -1.
         25    2    1    2    0    0 -0.17126894042E+02 -0.54777467495E+02  0.15624340834E+04  0.15684768530E+04  0.12500188795E+03 0.  0.
          2    1    1    2  501    0 -0.86905364889E+01  0.22924466264E+02  0.13802818266E+03  0.14018857224E+03  0.00000000000E+00 0. -1.
          1    1    1    2  502    0  0.25817430531E+02  0.31853001231E+02  0.73987835262E+03  0.74101358292E+03  0.00000000000E+00 0. -1.
         22    1    3    3    0    0  0.38200590060E+02 -0.31909497655E+02  0.12077905264E+04  0.12088157249E+04  0.00000000000E+00 0. -1.
         22    1    3    3    0    0 -0.55327484102E+02 -0.22867969840E+02  0.35464355702E+03  0.35966112811E+03  0.00000000000E+00 0. -1.
</event>
<event>
 7    1  0.6330892E-006  0.3114247E+02  0.7818608E-02  0.1645016E+00
          2   -1    0    0  502    0  0.00000000000E+00  0.00000000000E+00  0.11274832334E+03  0.11274832334E+03  0.00000000000E+00 0. -1.
          1   -1    0    0  501    0 -0.00000000000E+00 -0.00000000000E+00 -0.59972351623E+03  0.59972351623E+03  0.00000000000E+00 0. -1.
         25    2    1    2    0    0  0.31993481082E+02  0.21645749558E+02 -0.18072932035E+03  0.22311639098E+03  0.12500286150E+03 0.  0.
          2    1    1    2  501    0 -0.11301663189E+02 -0.28992764301E+02 -0.39586474260E+03  0.39708588794E+03  0.00000000000E+00 0. -1.
          1    1    1    2  502    0 -0.20691817893E+02  0.73470147424E+01  0.89618870052E+02  0.92269560651E+02  0.00000000000E+00 0. -1.
         22    1    3    3    0    0  0.11133802339E+02 -0.46757440860E+02 -0.12010121319E+03  0.12936197757E+03  0.00000000000E+00 0. -1.
         22    1    3    3    0    0  0.20859678743E+02  0.68403190418E+02 -0.60628107156E+02  0.93754413411E+02  0.00000000000E+00 0. -1.
</event>
<event>
 7    1  0.6330892E-006  0.4006365E+02  0.7818608E-02  0.1561734E+00
          2   -1    0    0  502    0  0.00000000000E+00  0.00000000000E+00  0.73087673393E+02  0.73087673393E+02  0.00000000000E+00 0. -1.
          1   -1    0    0  501    0 -0.00000000000E+00 -0.00000000000E+00 -0.12203999526E+04  0.12203999526E+04  0.00000000000E+00 0. -1.
         25    2    1    2    0    0  0.24262949235E+02  0.31230231665E+02 -0.81605622068E+03  0.82652275515E+03  0.12501236502E+03 0.  0.
          2    1    1    2  501    0  0.17879495890E+01 -0.41814666129E+02 -0.39504364064E+03  0.39725450416E+03  0.00000000000E+00 0. -1.
          1    1    1    2  502    0 -0.26050898824E+02  0.10584434464E+02  0.63787582141E+02  0.69710366646E+02  0.00000000000E+00 0. -1.
         22    1    3    3    0    0  0.60626072401E+02  0.54260194165E+02 -0.39631221883E+03  0.40457763670E+03  0.00000000000E+00 0. -1.
         22    1    3    3    0    0 -0.36363123165E+02 -0.23029962500E+02 -0.41974400185E+03  0.42194511845E+03  0.00000000000E+00 0. -1.
</event>
<event>
 7    1  0.6330892E-006  0.9763584E+02  0.7818608E-02  0.1334409E+00
          2   -1    0    0  502    0  0.00000000000E+00  0.00000000000E+00  0.22783074819E+03  0.22783074819E+03  0.00000000000E+00 0. -1.
          1   -1    0    0  501    0 -0.00000000000E+00 -0.00000000000E+00 -0.43665917005E+03  0.43665917005E+03  0.00000000000E+00 0. -1.
         25    2    1    2    0    0 -0.88274124219E+02  0.59050381680E+01  0.28248877915E+02  0.15572961830E+03  0.12500609758E+03 0.  0.
          2    1    1    2  501    0  0.82181416581E+02  0.56337473850E+02 -0.35854824613E+03  0.37213511121E+03  0.00000000000E+00 0. -1.
          1    1    1    2  502    0  0.60927076378E+01 -0.62242512018E+02  0.12147094635E+03  0.13662518873E+03  0.00000000000E+00 0. -1.
         22    1    3    3    0    0  0.16216962083E+01  0.37699918051E+02 -0.26188114112E+02  0.45931808591E+02  0.00000000000E+00 0.  1.
         22    1    3    3    0    0 -0.89895820427E+02 -0.31794879883E+02  0.54436992027E+02  0.10979780971E+03  0.00000000000E+00 0.  1.
</event>
<event>
 7    1  0.6330892E-006  0.6479355E+02  0.7818608E-02  0.1480019E+00
          2   -1    0    0  502    0  0.00000000000E+00  0.00000000000E+00  0.26691363259E+03  0.26691363259E+03  0.00000000000E+00 0. -1.
          1   -1    0    0  501    0 -0.00000000000E+00 -0.00000000000E+00 -0.23690248071E+03  0.23690248071E+03  0.00000000000E+00 0. -1.
         25    2    1    2    0    0  0.29500885962E+02 -0.69124716674E+02  0.33914830268E+01  0.14589264031E+03  0.12499852644E+03 0.  0.
          2    1    1    2  501    0  0.14308923400E+00  0.64388562306E+02 -0.15813735710E+03  0.17074346588E+03  0.00000000000E+00 0. -1.
          1    1    1    2  502    0 -0.29643975196E+02  0.47361543689E+01  0.18475702595E+03  0.18718000711E+03  0.00000000000E+00 0. -1.
         22    1    3    3    0    0  0.67419738319E+02 -0.77278312755E+02  0.18608512904E+02  0.10422876517E+03  0.00000000000E+00 0.  1.
         22    1    3    3    0    0 -0.37918852357E+02  0.81535960806E+01 -0.15217029877E+02  0.41663875137E+02  0.00000000000E+00 0.  1.
</event>
<event>
 7    1  0.6330892E-006  0.3261877E+02  0.7818608E-02  0.1577779E+00
          2   -1    0    0  502    0  0.00000000000E+00  0.00000000000E+00  0.68983979904E+03  0.68983979904E+03  0.00000000000E+00 0. -1.
          1   -1    0    0  501    0 -0.00000000000E+00 -0.00000000000E+00 -0.39409687560E+02  0.39409687560E+02  0.00000000000E+00 0. -1.
         25    2    1    2    0    0  0.43958621921E+00  0.20076404431E+00  0.21112924684E+03  0.24535816748E+03  0.12499935176E+03 0.  0.
          2    1    1    2  501    0 -0.89971710842E+01 -0.31676971998E+02 -0.92117903386E+01  0.34194103640E+02  0.00000000000E+00 0. -1.
          1    1    1    2  502    0  0.85575848650E+01  0.31476207954E+02  0.44851265499E+03  0.44969721548E+03  0.00000000000E+00 0. -1.
         22    1    3    3    0    0 -0.61638312506E+02  0.85702759043E+01  0.99638351021E+02  0.11747566638E+03  0.00000000000E+00 0.  1.
         22    1    3    3    0    0  0.62077898725E+02 -0.83695118599E+01  0.11149089581E+03  0.12788250110E+03  0.00000000000E+00 0.  1.
</event>
<event>
 7    1  0.6330892E-006  0.6074835E+02  0.7818608E-02  0.1530616E+00
          2   -1    0    0  502    0  0.00000000000E+00  0.00000000000E+00  0.13778114788E+03  0.13778114788E+03  0.00000000000E+00 0. -1.
          1   -1    0    0  501    0 -0.00000000000E+00 -0.00000000000E+00 -0.18749927683E+04  0.18749927683E+04  0.00000000000E+00 0. -1.
         25    2    1    2    0    0  0.65526653997E+02  0.94763018612E+00 -0.23594083445E+03  0.27493275116E+03  0.12500119964E+03 0.  0.
          2    1    1    2  501    0 -0.56668661579E+02 -0.21816512103E+02 -0.16178948491E+04  0.16190339836E+04  0.00000000000E+00 0. -1.
          1    1    1    2  502    0 -0.88579924179E+01  0.20868881917E+02  0.11662406310E+03  0.11880718142E+03  0.00000000000E+00 0. -1.
         22    1    3    3    0    0  0.61591876970E+02  0.37230962420E+02 -0.55625281792E+02  0.90960847873E+02  0.00000000000E+00 0. -1.
         22    1    3    3    0    0  0.39347770270E+01 -0.36283332233E+02 -0.18031555265E+03  0.18397190328E+03  0.00000000000E+00 0. -1.
</event>
<event>
 7    1  0.6330892E-006  0.1195359E+03  0.7818608E-02  0.1419165E+00
          2   -1    0    0  502    0  0.00000000000E+00  0.00000000000E+00  0.89268710441E+03  0.89268710441E+03  0.00000000000E+00 0. -1.
          1   -1    0    0  501    0 -0.00000000000E+00 -0.00000000000E+00 -0.44104212306E+02  0.44104212306E+02  0.00000000000E+00 0. -1.
         25    2    1    2    0    0  0.56308089630E+02  0.94076711823E+02  0.59556712182E+03  0.61833883035E+03  0.12498673474E+03 0.  0.
          2    1    1    2  501    0  0.19955923722E+02  0.15856617130E+02 -0.66511517311E+01  0.26342152869E+02  0.00000000000E+00 0. -1.
          1    1    1    2  502    0 -0.76264013352E+02 -0.10993332895E+03  0.25966692202E+03  0.29211033350E+03  0.00000000000E+00 0. -1.
         22    1    3    3    0    0 -0.40648873472E+01  0.10477110251E+03  0.36546163159E+03  0.38020482821E+03  0.00000000000E+00 0. -1.
         22    1    3    3    0    0  0.60372976978E+02 -0.10694390683E+02  0.23010549023E+03  0.23813400214E+03  0.00000000000E+00 0. -1.
</event>
<event>
 7    1  0.6330892E-006  0.4873787E+02  0.7818608E-02  0.1490820E+00
          2   -1    0    0  502    0  0.00000000000E+00  0.00000000000E+00  0.45808149017E+03  0.45808149017E+03  0.00000000000E+00 0. -1.
          1   -1    0    0  501    0 -0.00000000000E+00 -0.00000000000E+00 -0.40121838815E+03  0.40121838815E+03  0.00000000000E+00 0. -1.
         25    2    1    2    0    0  0.10691429284E+02  0.83428350908E+02 -0.37047766518E+02  0.15515341049E+03  0.12500178954E+03 0.  0.
          2    1    1    2  501    0 -0.14116325039E+01 -0.47612248209E+02 -0.30239180718E+03  0.30612044025E+03  0.00000000000E+00 0. -1.
          1    1    1    2  502    0 -0.92797967796E+01 -0.35816102699E+02  0.39630267573E+03  0.39802602758E+03  0.00000000000E+00 0. -1.
         22    1    3    3    0    0 -0.70768302693E+01  0.75637567036E+02  0.32737362854E+02  0.82721569136E+02  0.00000000000E+00 0. -1.
         22    1    3    3    0    0  0.17768259553E+02  0.77907838726E+01 -0.69785129372E+02  0.72431841357E+02  0.00000000000E+00 0. -1.
</event>
<event>
 7    1  0.6330892E-006  0.4172654E+02  0.7818608E-02  0.1507223E+00
          2   -1    0    0  502    0  0.00000000000E+00  0.00000000000E+00  0.14985131063E+04  0.14985131063E+04  0.00000000000E+00 0. -1.
          1   -1    0    0  501    0 -0.00000000000E+00 -0.00000000000E+00 -0.45508417017E+02  0.45508417017E+02  0.00000000000E+00 0. -1.
         25    2    1    2    0    0  0.58650821546E+02  0.14757207109E+02  0.30880952104E+03  0.33859412477E+03  0.12499986805E+03 0.  0.
          2    1    1    2  501    0 -0.33823320509E+02  0.18606598658E+02 -0.17925903142E+02  0.42562430938E+02  0.00000000000E+00 0. -1.
          1    1    1    2  502    0 -0.24827501037E+02 -0.33363805767E+02  0.11621210714E+04  0.11628649676E+04  0.00000000000E+00 0. -1.
         22    1    3    3    0    0 -0.49023213938E+01  0.22253778284E+02 -0.44121800886E+00  0.22791622941E+02  0.00000000000E+00 0. -1.
         22    1    3    3    0    0  0.63553142940E+02 -0.74965711748E+01  0.30925073905E+03  0.31580250183E+03  0.00000000000E+00 0. -1.
</event>
<event>
 7    1  0.6330892E-006  0.8124717E+02  0.7818608E-02  0.1433421E+00
          2   -1    0    0  502    0  0.00000000000E+00  0.00000000000E+00  0.20977238105E+04  0.20977238105E+04  0.00000000000E+00 0. -1.
          1   -1    0    0  501    0 -0.00000000000E+00 -0.00000000000E+00 -0.15132347252E+03  0.15132347252E+03  0.00000000000E+00 0. -1.
         25    2    1    2    0    0 -0.78226962974E+01  0.78304111738E+02  0.63028932444E+02  0.16059831183E+03  0.12500577165E+03 0.  0.
          2    1    1    2  501    0 -0.25816927832E+02 -0.78369363807E+02 -0.85772576299E+02  0.11901767008E+03  0.00000000000E+00 0. -1.
          1    1    1    2  502    0  0.33639624129E+02  0.65252068571E-01  0.19691439818E+04  0.19694313011E+04  0.00000000000E+00 0. -1.
         22    1    3    3    0    0 -0.41102344723E+02 -0.14858517637E+02  0.39500248790E+02  0.58910507913E+02  0.00000000000E+00 0.  1.
         22    1    3    3    0    0  0.33279648426E+02  0.93162629375E+02  0.23528683654E+02  0.10168780392E+03  0.00000000000E+00 0.  1.
</event>
<event>
 7    1  0.6330892E-006  0.1555505E+03  0.7818608E-02  0.1415430E+00
          2   -1    0    0  502    0  0.00000000000E+00  0.00000000000E+00  0.17349992060E+04  0.17349992060E+04  0.00000000000E+00 0. -1.
          1   -1    0    0  501    0 -0.00000000000E+00 -0.00000000000E+00 -0.29076213028E+03  0.29076213028E+03  0.00000000000E+00 0. -1.
         25    2    1    2    0    0 -0.15918899801E+03  0.89632595440E+01 -0.68430469401E+02  0.21384381945E+03  0.12499989146E+03 0.  0.
          2    1    1    2  501    0  0.40813573367E+01 -0.19742958588E+02 -0.14529171305E+03  0.14668375429E+03  0.00000000000E+00 0. -1.
          1    1    1    2  502    0  0.15510764068E+03  0.10779699044E+02  0.16579592581E+04  0.16652337625E+04  0.00000000000E+00 0. -1.
         22    1    3    3    0    0 -0.40862683777E+02 -0.47755538230E+02  0.57415364021E+01  0.63113513588E+02  0.00000000000E+00 0. -1.
         22    1    3    3    0    0 -0.11832631424E+03  0.56718797774E+02 -0.74172005803E+02  0.15073030587E+03  0.00000000000E+00 0. -1.
</event>
<event>
 7    1  0.6330892E-006  0.7458055E+02  0.7818608E-02  0.1380664E+00
          2   -1    0    0  502    0  0.00000000000E+00  0.00000000000E+00  0.18610529009E+03  0.18610529009E+03  0.00000000000E+00 0. -1.
          1   -1    0    0  501    0 -0.00000000000E+00 -0.00000000000E+00 -0.13524368216E+04  0.13524368216E+04  0.00000000000E+00 0. -1.
         25    2    1    2    0    0  0.54488411558E+02  0.11006148721E+03 -0.37167424767E+03  0.41091528295E+03  0.12500842140E+03 0.  0.
          2    1    1    2  501    0 -0.40599517085E+02 -0.37721323389E+02 -0.95214882935E+03  0.95376024884E+03  0.00000000000E+00 0. -1.
          1    1    1    2  502    0 -0.13888894473E+02 -0.72340163821E+02  0.15749154552E+03  0.17386657989E+03  0.00000000000E+00 0. -1.
         22    1    3    3    0    0  0.30566221499E+02  0.71463323561E+02 -0.35359747285E+03  0.36203932565E+03  0.00000000000E+00 0. -1.
         22    1    3    3    0    0  0.23922190059E+02  0.38598163650E+02 -0.18076774820E+02  0.48875957303E+02  0.00000000000E+00 0. -1.
</event>
<event>
 7    1  0.6330892E-006  0.1209857E+03  0.7818608E-02  0.1360814E+00
          2   -1    0    0  502    0  0.00000000000E+00  0.00000000000E+00  0.27402327296E+04  0.27402327296E+04  0.00000000000E+00 0. -1.
          1   -1    0    0  501    0 -0.00000000000E+00 -0.00000000000E+00 -0.33885392267E+03  0.33885392267E+03  0.00000000000E+00 0. -1.
         25    2    1    2    0    0 -0.50826329178E+02 -0.14914392184E+03  0.32610409505E+03  0.38313851622E+03  0.12499606653E+03 0.  0.
          2    1    1    2  501    0  0.27745624128E+01  0.40160469629E+02 -0.30753746097E+03  0.31016100886E+03  0.00000000000E+00 0. -1.
          1    1    1    2  502    0  0.48051766765E+02  0.10898345221E+03  0.23828121729E+04  0.23857871272E+04  0.00000000000E+00 0. -1.
         22    1    3    3    0    0 -0.61903035350E+02 -0.12085171091E+02  0.11599699282E+03  0.13203537211E+03  0.00000000000E+00 0.  1.
         22    1    3    3    0    0  0.11076706172E+02 -0.13705875075E+03  0.21010710223E+03  0.25110314411E+03  0.00000000000E+00 0.  1.
</event>
<event>
 7    1  0.6330892E-006  0.5481134E+02  0.7818608E-02  0.1564947E+00
          2   -1    0    0  502    0  0.00000000000E+00  0.00000000000E+00  0.75059037173E+02  0.75059037173E+02  0.00000000000E+00 0. -1.
          1   -1    0    0  501    0 -0.00000000000E+00 -0.00000000000E+00 -0.18349323355E+04  0.18349323355E+04  0.00000000000E+00 0. -1.
         25    2    1    2    0    0 -0.49626741912E+02 -0.53728545406E+01 -0.91385002966E+02  0.16268935061E+03  0.12499969982E+03 0.  0.
          2    1    1    2  501    0  0.48640491133E+02  0.25489431006E+02 -0.17048503957E+04  0.17057345867E+04  0.00000000000E+00 0. -1.
          1    1    1    2  502    0  0.98625077935E+00 -0.20116576465E+02  0.36362100367E+02  0.41567435360E+02  0.00000000000E+00 0. -1.
         22    1    3    3    0    0 -0.80341528267E+02 -0.33863216039E+02 -0.82145207404E+02  0.11978862076E+03  0.00000000000E+00 0.  1.
         22    1    3    3    0    0  0.30714786355E+02  0.28490361498E+02 -0.92397955619E+01  0.42900729844E+02  0.00000000000E+00 0.  1.
</event>
<event>
 7    1  0.6330892E-006  0.4007342E+02  0.7818608E-02  0.1584433E+00
          2   -1    0    0  502    0  0.00000000000E+00  0.00000000000E+00  0.65449187544E+03  0.65449187544E+03  0.00000000000E+00 0. -1.
          1   -1    0    0  501    0 -0.00000000000E+00 -0.00000000000E+00 -0.76233847705E+02  0.76233847705E+02  0.00000000000E+00 0. -1.
         25    2    1    2    0    0  0.18546937446E+02  0.37806002931E+01  0.34448947518E+03  0.36695463584E+03  0.12499769769E+03 0.  0.
          2    1    1    2  501    0  0.22107744118E+02  0.10336149252E+02 -0.61092154724E+02  0.65786318487E+02  0.00000000000E+00 0. -1.
          1    1    1    2  502    0 -0.40654681564E+02 -0.14116749545E+02  0.29486070728E+03  0.29798476882E+03  0.00000000000E+00 0. -1.
         22    1    3    3    0    0  0.14540952995E+02 -0.94732979096E+01  0.35115786760E+03  0.35158644836E+03  0.00000000000E+00 0.  1.
         22    1    3    3    0    0  0.40059844517E+01  0.13253898203E+02 -0.66683924242E+01  0.15368187483E+02  0.00000000000E+00 0.  1.
</event>
<event>
 7    1  0.6330892E-006  0.9221388E+02  0.7818608E-02  0.1304808E+00
          2   -1    0    0  502    0  0.00000000000E+00  0.00000000000E+00  0.71656111296E+03  0.71656111296E+03  0.00000000000E+00 0. -1.
          1   -1    0    0  501    0 -0.00000000000E+00 -0.00000000000E+00 -0.21632446837E+03  0.21632446837E+03  0.00000000000E+00 0. -1.
         25    2    1    2    0    0 -0.84240354017E+02 -0.78063872846E+02  0.76324269500E+02  0.18612108294E+03  0.12500103164E+03 0.  0.
          2    1    1    2  501    0  0.84965950119E+02 -0.14992637484E+02 -0.14584667414E+03  0.16945572937E+03  0.00000000000E+00 0. -1.
          1    1    1    2  502    0 -0.72559610187E+00  0.93056510330E+02  0.56975904923E+03  0.57730876902E+03  0.00000000000E+00 0. -1.
         22    1    3    3    0    0  0.16943938585E+02 -0.64692282347E+02  0.21387750504E+02  0.70211283435E+02  0.00000000000E+00 0.  1.
         22    1    3    3    0    0 -0.10118429260E+03 -0.13371590499E+02  0.54936518996E+02  0.11590979950E+03  0.00000000000E+00 0.  1.
</event>
<event>
 7    1  0.6330892E-006  0.6085509E+02  0.7818608E-02  0.1396161E+00
          2   -1    0    0  502    0  0.00000000000E+00  0.00000000000E+00  0.10690702582E+04  0.10690702582E+04  0.00000000000E+00 0. -1.
          1   -1    0    0  501    0 -0.00000000000E+00 -0.00000000000E+00 -0.86057850527E+03  0.86057850527E+03  0.00000000000E+00 0. -1.
         25    2    1    2    0    0 -0.24784320854E+02 -0.33975721305E+02 -0.31343369410E+02  0.13556228046E+03  0.12500445143E+03 0.  0.
          2    1    1    2  501    0  0.60211300168E+02 -0.14384696385E+02 -0.77500688519E+03  0.77747539656E+03  0.00000000000E+00 0. -1.
          1    1    1    2  502    0 -0.35426979314E+02  0.48360417690E+02  0.10148420075E+04  0.10166110864E+04  0.00000000000E+00 0. -1.
         22    1    3    3    0    0  0.26138049451E+02 -0.51238643569E+02  0.20311660327E+02  0.61001309569E+02  0.00000000000E+00 0. -1.
         22    1    3    3    0    0 -0.50922370305E+02  0.17262922264E+02 -0.51655029737E+02  0.74560970888E+02  0.00000000000E+00 0. -1.
</event>
<event>
 7    1  0.6330892E-006  0.2654497E+03  0.7818608E-02  0.1279426E+00
          2   -1    0    0  502    0  0.00000000000E+00  0.00000000000E+00  0.65199981060E+03  0.65199981060E+03  0.00000000000E+00 0. -1.
          1   -1    0    0  501    0 -0.00000000000E+00 -0.00000000000E+00 -0.36975608023E+03  0.36975608023E+03  0.00000000000E+00 0. -1.
         25    2    1    2    0    0 -0.72677697639E+02 -0.22443390225E+03 -0.20357414466E+03  0.33573830009E+03  0.12500059825E+03 0.  0.
          2    1    1    2  501    0  0.91132094854E+01 -0.36875650819E+02 -0.63732411184E+02  0.74193560676E+02  0.00000000000E+00 0. -1.
          1    1    1    2  502    0  0.63564488154E+02  0.26130955306E+03  0.54955028622E+03  0.61182403006E+03  0.00000000000E+00 0. -1.
         22    1    3    3    0    0 -0.35400906142E+02 -0.29594808032E+02 -0.10400110401E+03  0.11377744263E+03  0.00000000000E+00 0. -1.
         22    1    3    3    0    0 -0.37276791497E+02 -0.19483909421E+03 -0.99573040657E+02  0.22196085746E+03  0.00000000000E+00 0. -1.
</event>
<event>
 7    1  0.6330892E-006  0.1528837E+03  0.7818608E-02  0.1273891E+00
          2   -1    0    0  502    0  0.00000000000E+00  0.00000000000E+00  0.83555684061E+03  0.83555684061E+03  0.00000000000E+00 0. -1.
          1   -1    0    0  501    0 -0.00000000000E+00 -0.00000000000E+00 -0.13793234202E+04  0.13793234202E+04  0.00000000000E+00 0. -1.
         25    2    1    2    0    0 -0.30449502162E+02  0.85099569156E+02  0.34240269702E+03  0.37554369442E+03  0.12499740254E+03 0.  0.
          2    1    1    2  501    0  0.15113312373E+02 -0.15292689473E+03 -0.13558525497E+04  0.13645333209E+04  0.00000000000E+00 0. -1.
          1    1    1    2  502    0  0.15336189789E+02  0.67827325574E+02  0.46968327314E+03  0.47480324544E+03  0.00000000000E+00 0. -1.
         22    1    3    3    0    0 -0.10393057077E+02  0.84713130270E+02  0.96514504351E+02  0.12883857973E+03  0.00000000000E+00 0. -1.
         22    1    3    3    0    0 -0.20056445085E+02  0.38643888686E+00  0.24588819267E+03  0.24670511470E+03  0.00000000000E+00 0. -1.
</event>
<event>
 7    1  0.6330892E-006  0.8009644E+02  0.7818608E-02  0.1337159E+00
          2   -1    0    0  502    0  0.00000000000E+00  0.00000000000E+00  0.17984164561E+04  0.17984164561E+04  0.00000000000E+00 0. -1.
          1   -1    0    0  501    0 -0.00000000000E+00 -0.00000000000E+00 -0.12941772805E+04  0.12941772805E+04  0.00000000000E+00 0. -1.
         25    2    1    2    0    0 -0.69076692121E+02  0.90297403686E+02  0.87207544891E+03  0.88829380229E+03  0.12500032037E+03 0.  0.
          2    1    1    2  501    0  0.78379652489E+02 -0.16452436161E+02 -0.12833095195E+04  0.12858061190E+04  0.00000000000E+00 0. -1.
          1    1    1    2  502    0 -0.93029603672E+01 -0.73844967525E+02  0.91547324628E+03  0.91849381542E+03  0.00000000000E+00 0. -1.
         22    1    3    3    0    0 -0.20832253625E+02  0.11217213963E+03  0.52995831705E+03  0.54209998110E+03  0.00000000000E+00 0. -1.
         22    1    3    3    0    0 -0.48244438497E+02 -0.21874735944E+02  0.34211713186E+03  0.34619382119E+03  0.00000000000E+00 0. -1.
</event>
<event>
 7    1  0.6330892E-006  0.3019026E+03  0.7818608E-02  0.1295465E+00
          2   -1    0    0  502    0  0.00000000000E+00  0.00000000000E+00  0.75861522041E+03  0.75861522041E+03  0.00000000000E+00 0. -1.
          1   -1    0    0  501    0 -0.00000000000E+00 -0.00000000000E+00 -0.21434465439E+04  0.21434465439E+04  0.00000000000E+00 0. -1.
         25    2    1    2    0    0 -0.14649467417E+03 -0.26587994404E+03  0.13326078045E+03  0.35431224982E+03  0.12500360221E+03 0.  0.
          2    1    1    2  501    0 -0.23401534610E+02  0.16654696635E+02 -0.19886294515E+04  0.19888368727E+04  0.00000000000E+00 0. -1.
          1    1    1    2  502    0  0.16989620878E+03  0.24922524740E+03  0.47053734757E+03  0.55891264180E+03  0.00000000000E+00 0. -1.
         22    1    3    3    0    0 -0.86450464371E+02 -0.23029220922E+03  0.14190462218E+03  0.28398082015E+03  0.00000000000E+00 0.  1.
         22    1    3    3    0    0 -0.60044209795E+02 -0.35587734818E+02 -0.86438417287E+01  0.70331429669E+02  0.00000000000E+00 0.  1.
</event>
<event>
 7    1  0.6330892E-006  0.8517218E+02  0.7818608E-02  0.1381640E+00
          2   -1    0    0  502    0  0.00000000000E+00  0.00000000000E+00  0.60331503817E+03  0.60331503817E+03  0.00000000000E+00 0. -1.
          1   -1    0    0  501    0 -0.00000000000E+00 -0.00000000000E+00 -0.11579577815E+03  0.11579577815E+03  0.00000000000E+00 0. -1.
         25    2    1    2    0    0  0.39633695311E+02  0.35402757379E+02  0.41419342392E+02  0.14200209801E+03  0.12499939552E+03 0.  0.
          2    1    1    2  501    0 -0.85798414674E+02 -0.49060915624E+02 -0.26290176984E+02  0.10227176936E+03  0.00000000000E+00 0. -1.
          1    1    1    2  502    0  0.46164719363E+02  0.13658158245E+02  0.47239009461E+03  0.47483694894E+03  0.00000000000E+00 0. -1.
         22    1    3    3    0    0 -0.13740834407E+02  0.16903218819E+02  0.73760308290E+02  0.76909768012E+02  0.00000000000E+00 0. -1.
         22    1    3    3    0    0  0.53374529717E+02  0.18499538560E+02 -0.32340965898E+02  0.65092329999E+02  0.00000000000E+00 0. -1.
</event>
<event>
 7    1  0.6330892E-006  0.1550017E+03  0.7818608E-02  0.1268013E+00
          2   -1    0    0  502    0  0.00000000000E+00  0.00000000000E+00  0.93099822232E+03  0.93099822232E+03  0.00000000000E+00 0. -1.
          1   -1    0    0  501    0 -0.00000000000E+00 -0.00000000000E+00 -0.46177721079E+03  0.46177721079E+03  0.00000000000E+00 0. -1.
         25    2    1    2    0    0  0.19436045616E+03 -0.90600538664E+02  0.19326318794E+03  0.31455783137E+03  0.12494608812E+03 0.  0.
          2    1    1    2  501    0 -0.14778681443E+03  0.34915662168E+02 -0.38469815491E+03  0.41358519845E+03  0.00000000000E+00 0. -1.
          1    1    1    2  502    0 -0.46573641729E+02  0.55684876496E+02  0.66065597849E+03  0.66463240328E+03  0.00000000000E+00 0. -1.
         22    1    3    3    0    0  0.43179691872E+02  0.24655714327E+02  0.77190548551E+02  0.91819229058E+02  0.00000000000E+00 0.  1.
         22    1    3    3    0    0  0.15118076429E+03 -0.11525625299E+03  0.11607263939E+03  0.22273860231E+03  0.00000000000E+00 0.  1.
</event>
<event>
 7    1  0.6330892E-006  0.6611006E+02  0.7818608E-02  0.1447452E+00
          2   -1    0    0  502    0  0.00000000000E+00  0.00000000000E+00  0.89771370739E+03  0.89771370739E+03  0.00000000000E+00 0. -1.
          1   -1    0    0  501    0 -0.00000000000E+00 -0.00000000000E+00 -0.79512924530E+03  0.79512924530E+03  0.00000000000E+00 0. -1.
         25    2    1    2    0    0 -0.98000118469E+02 -0.28592827108E+02  0.11774334021E+03  0.19977472419E+03  0.12499949311E+03 0.  0.
          2    1    1    2  501    0  0.35610299428E+02  0.10859929088E+02 -0.75222903057E+03  0.75314975000E+03  0.00000000000E+00 0. -1.
          1    1    1    2  502    0  0.62389819041E+02  0.17732898020E+02  0.73707015245E+03  0.73991847850E+03  0.00000000000E+00 0. -1.
         22    1    3    3    0    0  0.56192957434E+01 -0.50098200178E+02  0.62810838824E+02  0.80539478639E+02  0.00000000000E+00 0.  1.
         22    1    3    3    0    0 -0.10361941421E+03  0.21505373070E+02  0.54932501386E+02  0.11923524555E+03  0.00000000000E+00 0.  1.
</event>
<event>
 7    1  0.6330892E-006  0.2457994E+03  0.7818608E-02  0.1179815E+00
          2   -1    0    0  502    0  0.00000000000E+00  0.00000000000E+00  0.65405486123E+03  0.65405486123E+03  0.00000000000E+00 0. -1.
          1   -1    0    0  501    0 -0.00000000000E+00 -0.00000000000E+00 -0.67853654355E+03  0.67853654355E+03  0.00000000000E+00 0. -1.
         25    2    1    2    0    0 -0.61631928463E+02  0.18758979902E+03 -0.22149326481E+03  0.32198677361E+03  0.12501115437E+03 0.  0.
          2    1    1    2  501    0  0.14603691750E+03 -0.26569715335E+03 -0.34340216874E+03  0.45809039290E+03  0.00000000000E+00 0. -1.
          1    1    1    2  502    0 -0.84404989033E+02  0.78107354323E+02  0.54041375124E+03  0.55251423828E+03  0.00000000000E+00 0. -1.
         22    1    3    3    0    0  0.24799973849E+02 -0.24494889563E+01 -0.24513380277E+02  0.34956322914E+02  0.00000000000E+00 0. -1.
         22    1    3    3    0    0 -0.86431902312E+02  0.19003928798E+03 -0.19697988454E+03  0.28703045069E+03  0.00000000000E+00 0. -1.
</event>
<event>
 7    1  0.6330892E-006  0.1819540E+03  0.7818608E-02  0.1327550E+00
          2   -1    0    0  502    0  0.00000000000E+00  0.00000000000E+00  0.68886386773E+03  0.68886386773E+03  0.00000000000E+00 0. -1.
          1   -1    0    0  501    0 -0.00000000000E+00 -0.00000000000E+00 -0.17005857201E+04  0.17005857201E+04  0.00000000000E+00 0. -1.
         25    2    1    2    0    0 -0.97920674735E+00 -0.20361150977E+03  0.27746644265E+02  0.24052710300E+03  0.12499922101E+03 0.  0.
          2    1    1    2  501    0 -0.25212608170E+02  0.17943765204E+03 -0.15884668088E+04  0.15987683851E+04  0.00000000000E+00 0. -1.
          1    1    1    2  502    0  0.26191814917E+02  0.24173857725E+02  0.54899831221E+03  0.55015409967E+03  0.00000000000E+00 0. -1.
         22    1    3    3    0    0  0.29311683533E+02 -0.88711285585E+02  0.67463069289E+02  0.11523945808E+03  0.00000000000E+00 0. -1.
         22    1    3    3    0    0 -0.30290890280E+02 -0.11490022418E+03 -0.39716425023E+02  0.12528764491E+03  0.00000000000E+00 0. -1.
</event>
<event>
 7    1  0.6330892E-006  0.8317167E+02  0.7818608E-02  0.1352059E+00
          2   -1    0    0  502    0  0.00000000000E+00  0.00000000000E+00  0.26279009579E+04  0.26279009579E+04  0.00000000000E+00 0. -1.
          1   -1    0    0  501    0 -0.00000000000E+00 -0.00000000000E+00 -0.31315456350E+03  0.31315456350E+03  0.00000000000E+00 0. -1.
         25    2    1    2    0    0  0.82121244177E+01 -0.44503502788E+02  0.86250369135E+03  0.87268893262E+03  0.12500141911E+03 0.  0.
          2    1    1    2  501    0 -0.71259239547E+02  0.43557956924E+02 -0.30182450923E+03  0.31316642413E+03  0.00000000000E+00 0. -1.
          1    1    1    2  502    0  0.63047115129E+02  0.94554586341E+00  0.17540672123E+04  0.17552001647E+04  0.00000000000E+00 0. -1.
         22    1    3    3    0    0 -0.41042391498E+02 -0.66416394946E+02  0.56048911310E+03  0.56590075219E+03  0.00000000000E+00 0.  1.
         22    1    3    3    0    0  0.49254515916E+02  0.21912892158E+02  0.30201457824E+03  0.30678818043E+03  0.00000000000E+00 0.  1.
</event>
<event>
 7    1  0.6330892E-006  0.2910983E+02  0.7818608E-02  0.1670632E+00
          2   -1    0    0  502    0  0.00000000000E+00  0.00000000000E+00  0.10638431062E+04  0.10638431062E+04  0.00000000000E+00 0. -1.
          1   -1    0    0  501    0 -0.00000000000E+00 -0.00000000000E+00 -0.90658099008E+02  0.90658099008E+02  0.00000000000E+00 0. -1.
         25    2    1    2    0    0 -0.94523431941E+01  0.23730824972E+01  0.24237614253E+03  0.27288539670E+03  0.12500106779E+03 0.  0.
          2    1    1    2  501    0 -0.15719077484E+02  0.12932920548E+02 -0.73755185241E+02  0.76512594916E+02  0.00000000000E+00 0. -1.
          1    1    1    2  502    0  0.25171420678E+02 -0.15306003045E+02  0.80456404995E+03  0.80510321364E+03  0.00000000000E+00 0. -1.
         22    1    3    3    0    0  0.17939440595E+02  0.56272709886E+02  0.16111222211E+03  0.17159717224E+03  0.00000000000E+00 0. -1.
         22    1    3    3    0    0 -0.27391783789E+02 -0.53899627389E+02  0.81263920424E+02  0.10128822446E+03  0.00000000000E+00 0. -1.
</event>
<event>
 7    1  0.6330892E-006  0.8350977E+02  0.7818608E-02  0.1366006E+00
          2   -1    0    0  502    0  0.00000000000E+00  0.00000000000E+00  0.60135566526E+03  0.60135566526E+03  0.00000000000E+00 0. -1.
          1   -1    0    0  501    0 -0.00000000000E+00 -0.00000000000E+00 -0.47659310356E+03  0.47659310356E+03  0.00000000000E+00 0. -1.
         25    2    1    2    0    0 -0.11173512948E+03 -0.31205238331E+02  0.55631802580E+02  0.17938373143E+03  0.12500047834E+03 0.  0.
          2    1    1    2  501    0  0.81287919656E+02 -0.15608692556E+02 -0.40894548146E+03  0.41723825804E+03  0.00000000000E+00 0. -1.
          1    1    1    2  502    0  0.30447209824E+02  0.46813930887E+02  0.47807624058E+03  0.48132677935E+03  0.00000000000E+00 0. -1.
         22    1    3    3    0    0  0.27587991733E+02  0.72927213104E+00  0.95315521227E+01  0.29197253493E+02  0.00000000000E+00 0.  1.
         22    1    3    3    0    0 -0.13932312121E+03 -0.31934510462E+02  0.46100250457E+02  0.15018647794E+03  0.00000000000E+00 0.  1.
</event>
<event>
 7    1  0.6330892E-006  0.8667518E+02  0.7818608E-02  0.1443210E+00
          2   -1    0    0  502    0  0.00000000000E+00  0.00000000000E+00  0.27319047852E+04  0.27319047852E+04  0.00000000000E+00 0. -1.
          1   -1    0    0  501    0 -0.00000000000E+00 -0.00000000000E+00 -0.87582203782E+02  0.87582203782E+02  0.00000000000E+00 0. -1.
         25    2    1    2    0    0  0.10523071195E+03  0.32517633899E+02  0.12114019529E+04  0.12228045282E+04  0.12500129445E+03 0.  0.
          2    1    1    2  501    0 -0.76745803879E+02 -0.39396233281E+02 -0.58975071570E+02  0.10449899845E+03  0.00000000000E+00 0. -1.
          1    1    1    2  502    0 -0.28484908071E+02  0.68785993816E+01  0.14918957001E+04  0.14921834623E+04  0.00000000000E+00 0. -1.
         22    1    3    3    0    0  0.95904927212E+02  0.74939072115E+02  0.81659073979E+03  0.82561132254E+03  0.00000000000E+00 0. -1.
         22    1    3    3    0    0  0.93257847384E+01 -0.42421438216E+02  0.39481121307E+03  0.39719320569E+03  0.00000000000E+00 0. -1.
</event>
<event>
 7    1  0.6330892E-006  0.7399268E+02  0.7818608E-02  0.1515130E+00
          2   -1    0    0  502    0  0.00000000000E+00  0.00000000000E+00  0.13608988780E+04  0.13608988780E+04  0.00000000000E+00 0. -1.
          1   -1    0    0  501    0 -0.00000000000E+00 -0.00000000000E+00 -0.56533509451E+03  0.56533509451E+03  0.00000000000E+00 0. -1.
         25    2    1    2    0    0 -0.26793836192E+02 -0.57065131487E+02 -0.83884175314E+02  0.16320896987E+03  0.12500509625E+03 0.  0.
          2    1    1    2  501    0  0.13280116808E+02 -0.15794113348E+02 -0.44050779670E+03  0.44099085532E+03  0.00000000000E+00 0. -1.
          1    1    1    2  502    0  0.13513719384E+02  0.72859244834E+02  0.13199557555E+04  0.13220341473E+04  0.00000000000E+00 0. -1.
         22    1    3    3    0    0 -0.16314243313E+02  0.82437274993E+01 -0.94470725348E+02  0.96222822271E+02  0.00000000000E+00 0.  1.
         22    1    3    3    0    0 -0.10479592879E+02 -0.65308858986E+02  0.10586550035E+02  0.66986147602E+02  0.00000000000E+00 0.  1.
</event>
<event>
 7    1  0.6330892E-006  0.2386086E+03  0.7818608E-02  0.1253110E+00
          2   -1    0    0  502    0  0.00000000000E+00  0.00000000000E+00  0.17846046418E+04  0.17846046418E+04  0.00000000000E+00 0. -1.
          1   -1    0    0  501    0 -0.00000000000E+00 -0.00000000000E+00 -0.22940419723E+03  0.22940419723E+03  0.00000000000E+00 0. -1.
         25    2    1    2    0    0 -0.28661659484E+03 -0.81472304751E+01  0.59392600043E+02  0.31838313378E+03  0.12499955653E+03 0.  0.
          2    1    1    2  501    0  0.51425036284E+02  0.18313841257E+02 -0.83011579481E+02  0.99352168906E+02  0.00000000000E+00 0. -1.
          1    1    1    2  502    0  0.23519155855E+03 -0.10166610782E+02  0.15788194240E+04  0.15962735363E+04  0.00000000000E+00 0. -1.
         22    1    3    3    0    0 -0.15930322074E+03  0.51047722054E+02  0.60757838616E+02  0.17797443923E+03  0.00000000000E+00 0. -1.
         22    1    3    3    0    0 -0.12731337409E+03 -0.59194952529E+02 -0.13652385723E+01  0.14040869455E+03  0.00000000000E+00 0. -1.
</event>
<event>
 7    1  0.6330892E-006  0.3916096E+02  0.7818608E-02  0.1585682E+00
          2   -1    0    0  502    0  0.00000000000E+00  0.00000000000E+00  0.24032843564E+04  0.24032843564E+04  0.00000000000E+00 0. -1.
          1   -1    0    0  501    0 -0.00000000000E+00 -0.00000000000E+00 -0.53569350743E+02  0.53569350743E+02  0.00000000000E+00 0. -1.
         25    2    1    2    0    0 -0.21735419590E+02 -0.89462883804E+01  0.24142739187E+03  0.27288001562E+03  0.12499541129E+03 0.  0.
          2    1    1    2  501    0  0.13242447427E+01 -0.24747285522E+02 -0.33584977603E+02  0.41738860615E+02  0.00000000000E+00 0. -1.
          1    1    1    2  502    0  0.20411174848E+02  0.33693573903E+02  0.21418725913E+04  0.21422348309E+04  0.00000000000E+00 0. -1.
         22    1    3    3    0    0  0.16584774975E+01  0.28309886185E+02  0.91052044321E+00  0.28373037393E+02  0.00000000000E+00 0.  1.
         22    1    3    3    0    0 -0.23393897088E+02 -0.37256174565E+02  0.24051687143E+03  0.24450697823E+03  0.00000000000E+00 0.  1.
</event>
<event>
 7    1  0.6330892E-006  0.6236893E+02  0.7818608E-02  0.1404422E+00
          2   -1    0    0  502    0  0.00000000000E+00  0.00000000000E+00  0.25154452101E+04  0.25154452101E+04  0.00000000000E+00 0. -1.
          1   -1    0    0  501    0 -0.00000000000E+00 -0.00000000000E+00 -0.90408583409E+02  0.90408583409E+02  0.00000000000E+00 0. -1.
         25    2    1    2    0    0  0.12765444732E+02  0.13849297616E+02  0.70425056555E+02  0.14471070263E+03  0.12500695677E+03 0.  0.
          2    1    1    2  501    0  0.49409268824E+02 -0.23680638021E+02 -0.38651645690E+02  0.67052204865E+02  0.00000000000E+00 0. -1.
          1    1    1    2  502    0 -0.62174713555E+02  0.98313404050E+01  0.23932632158E+04  0.23940908860E+04  0.00000000000E+00 0. -1.
         22    1    3    3    0    0  0.26495426480E+02 -0.52008351125E+02  0.40731403337E+02  0.71175300694E+02  0.00000000000E+00 0.  1.
         22    1    3    3    0    0 -0.13729981748E+02  0.65857648741E+02  0.29693653218E+02  0.73535401937E+02  0.00000000000E+00 0.  1.
</event>
<event>
 7    1  0.6330892E-006  0.2454584E+03  0.7818608E-02  0.1237901E+00
          2   -1    0    0  502    0  0.00000000000E+00  0.00000000000E+00  0.61149020461E+03  0.61149020461E+03  0.00000000000E+00 0. -1.
          1   -1    0    0  501    0 -0.00000000000E+00 -0.00000000000E+00 -0.89292435751E+03  0.89292435751E+03  0.00000000000E+00 0. -1.
         25    2    1    2    0    0  0.21256442897E+03  0.88334193351E+00  0.71225494926E+01  0.24669536200E+03  0.12499381650E+03 0.  0.
          2    1    1    2  501    0 -0.24576286229E+03 -0.53058802192E+02 -0.75058222346E+03  0.79157330370E+03  0.00000000000E+00 0. -1.
          1    1    1    2  502    0  0.33198433314E+02  0.52175460258E+02  0.46202552106E+03  0.46614589641E+03  0.00000000000E+00 0. -1.
         22    1    3    3    0    0  0.75186088343E+01 -0.15217853585E+02 -0.33029559293E+02  0.37135755461E+02  0.00000000000E+00 0. -1.
         22    1    3    3    0    0  0.20504582014E+03  0.16101195518E+02  0.40152108786E+02  0.20955960654E+03  0.00000000000E+00 0. -1.
</event>
<event>
 7    1  0.6330892E-006  0.8445294E+02  0.7818608E-02  0.1432826E+00
          2   -1    0    0  502    0  0.00000000000E+00  0.00000000000E+00  0.70237566391E+03  0.70237566391E+03  0.00000000000E+00 0. -1.
          1   -1    0    0  501    0 -0.00000000000E+00 -0.00000000000E+00 -0.73871195545E+03  0.73871195545E+03  0.00000000000E+00 0. -1.
         25    2    1    2    0    0 -0.31475965013E+02  0.79733612876E+02 -0.41039057872E+03  0.43748375194E+03  0.12499368269E+03 0.  0.
          2    1    1    2  501    0 -0.26730380912E+02 -0.18501055082E+02 -0.31133488620E+03  0.31302749667E+03  0.00000000000E+00 0. -1.
          1    1    1    2  502    0  0.58206345925E+02 -0.61232557793E+02  0.68538917339E+03  0.69057637075E+03  0.00000000000E+00 0. -1.
         22    1    3    3    0    0 -0.68218761558E+02  0.90440948185E+02 -0.30475909232E+03  0.32513300184E+03  0.00000000000E+00 0. -1.
         22    1    3    3    0    0  0.36742796545E+02 -0.10707335309E+02 -0.10563148640E+03  0.11235075010E+03  0.00000000000E+00 0. -1.
</event>
<event>
 7    1  0.6330892E-006  0.8668353E+02  0.7818608E-02  0.1411171E+00
          2   -1    0    0  502    0  0.00000000000E+00  0.00000000000E+00  0.68525984924E+03  0.68525984924E+03  0.00000000000E+00 0. -1.
          1   -1    0    0  501    0 -0.00000000000E+00 -0.00000000000E+00 -0.10064595282E+03  0.10064595282E+03  0.00000000000E+00 0. -1.
         25    2    1    2    0    0 -0.40504684072E+02 -0.10926188357E+03  0.20191468849E+03  0.26451720198E+03  0.12498407931E+03 0.  0.
          2    1    1    2  501    0  0.25361599680E+02  0.27478634667E+02 -0.60133954685E+02  0.70812277237E+02  0.00000000000E+00 0. -1.
          1    1    1    2  502    0  0.15143084392E+02  0.81783248905E+02  0.44283316260E+03  0.45057632284E+03  0.00000000000E+00 0. -1.
         22    1    3    3    0    0  0.30279982083E+02  0.47962641597E+01  0.14309724890E+02  0.33832671950E+02  0.00000000000E+00 0. -1.
         22    1    3    3    0    0 -0.70784666156E+02 -0.11405814773E+03  0.18760496360E+03  0.23068453003E+03  0.00000000000E+00 0. -1.
</event>
<event>
 7    1  0.6330892E-006  0.6031301E+02  0.7818608E-02  0.1431403E+00
          2   -1    0    0  502    0  0.00000000000E+00  0.00000000000E+00  0.32970846190E+03  0.32970846190E+03  0.00000000000E+00 0. -1.
          1   -1    0    0  501    0 -0.00000000000E+00 -0.00000000000E+00 -0.17372921220E+04  0.17372921220E+04  0.00000000000E+00 0. -1.
         25    2    1    2    0    0 -0.23031282158E+02  0.17301297128E+02 -0.60080464672E+02  0.14162825993E+03  0.12497650554E+03 0.  0.
          2    1    1    2  501    0  0.70836762237E+01 -0.60461015660E+02 -0.16340355935E+04  0.16351691147E+04  0.00000000000E+00 0. -1.
          1    1    1    2  502    0  0.15947605934E+02  0.43159718532E+02  0.28653239814E+03  0.29020320919E+03  0.00000000000E+00 0. -1.
         22    1    3    3    0    0 -0.28791885978E+02 -0.17945764739E+02  0.29646364098E+02  0.45054745305E+02  0.00000000000E+00 0.  1.
         22    1    3    3    0    0  0.57606038203E+01  0.35247061866E+02 -0.89726828771E+02  0.96573514629E+02  0.00000000000E+00 0.  1.
</event>
<event>
 7    1  0.6330892E-006  0.1735182E+03  0.7818608E-02  0.1289910E+00
          2   -1    0    0  502    0  0.00000000000E+00  0.00000000000E+00  0.43303875318E+03  0.43303875318E+03  0.00000000000E+00 0. -1.
          1   -1    0    0  501    0 -0.00000000000E+00 -0.00000000000E+00 -0.27101198714E+04  0.27101198714E+04  0.00000000000E+00 0. -1.
         25    2    1    2    0    0 -0.21271414433E+03 -0.24185367566E+02 -0.15715709175E+04  0.15910036295E+04  0.12500064448E+03 0.  0.
          2    1    1    2  501    0  0.46595480062E+02 -0.24473185006E+02 -0.11104880589E+04  0.11117345926E+04  0.00000000000E+00 0. -1.
          1    1    1    2  502    0  0.16611866427E+03  0.48658552571E+02  0.40497785812E+03  0.44042040249E+03  0.00000000000E+00 0. -1.
         22    1    3    3    0    0 -0.10335137131E+03  0.35092428913E+02 -0.47390433050E+03  0.48631090774E+03  0.00000000000E+00 0.  1.
         22    1    3    3    0    0 -0.10936277302E+03 -0.59277796478E+02 -0.10976665870E+04  0.11046927218E+04  0.00000000000E+00 0.  1.
</event>
<event>
 7    1  0.6330892E-006  0.1591162E+03  0.7818608E-02  0.1399698E+00
          2   -1    0    0  502    0  0.00000000000E+00  0.00000000000E+00  0.10981473417E+04  0.10981473417E+04  0.00000000000E+00 0. -1.
          1   -1    0    0  501    0 -0.00000000000E+00 -0.00000000000E+00 -0.10633252769E+04  0.10633252769E+04  0.00000000000E+00 0. -1.
         25    2    1    2    0    0  0.23354397494E+02 -0.17732624869E+03  0.27539898103E+03  0.35136793731E+03  0.12499920902E+03 0.  0.
          2    1    1    2  501    0 -0.11737045699E+02  0.15830021765E+03 -0.10190367823E+04  0.10313256909E+04  0.00000000000E+00 0. -1.
          1    1    1    2  502    0 -0.11617351795E+02  0.19026031041E+02  0.77845986604E+03  0.77877899032E+03  0.00000000000E+00 0. -1.
         22    1    3    3    0    0 -0.35830029756E+02 -0.10528059556E+02  0.25811324639E+02  0.45396646902E+02  0.00000000000E+00 0. -1.
         22    1    3    3    0    0  0.59184427250E+02 -0.16679818914E+03  0.24958765639E+03  0.30597129041E+03  0.00000000000E+00 0. -1.
</event>
<event>
 7    1  0.6330892E-006  0.6069078E+02  0.7818608E-02  0.1472622E+00
          2   -1    0    0  502    0  0.00000000000E+00  0.00000000000E+00  0.38640950771E+02  0.38640950771E+02  0.00000000000E+00 0. -1.
          1   -1    0    0  501    0 -0.00000000000E+00 -0.00000000000E+00 -0.19582429664E+04  0.19582429664E+04  0.00000000000E+00 0. -1.
         25    2    1    2    0    0 -0.40565410909E+02  0.45034204603E+02 -0.30181092036E+03  0.33224869492E+03  0.12500292591E+03 0.  0.
          2    1    1    2  501    0  0.58742263002E+02 -0.16564845311E+02 -0.16281590263E+04  0.16293025693E+04  0.00000000000E+00 0. -1.
          1    1    1    2  502    0 -0.18176852093E+02 -0.28469359292E+02  0.10367930990E+02  0.35332652936E+02  0.00000000000E+00 0. -1.
         22    1    3    3    0    0 -0.54824804528E+02 -0.63607961419E+01 -0.25617504202E+03  0.26205318368E+03  0.00000000000E+00 0.  1.
         22    1    3    3    0    0  0.14259393619E+02  0.51395000745E+02 -0.45635878332E+02  0.70195511245E+02  0.00000000000E+00 0.  1.
</event>
<event>
 7    1  0.6330892E-006  0.9525891E+02  0.7818608E-02  0.1428033E+00
          2   -1    0    0  502    0  0.00000000000E+00  0.00000000000E+00  0.24908905174E+03  0.24908905174E+03  0.00000000000E+00 0. -1.
          1   -1    0    0  501    0 -0.00000000000E+00 -0.00000000000E+00 -0.11517758192E+04  0.11517758192E+04  0.00000000000E+00 0. -1.
         25    2    1    2    0    0  0.72700467173E+02  0.81095322981E+02 -0.16767650748E+03  0.23580486739E+03  0.12500685975E+03 0.  0.
          2    1    1    2  501    0 -0.29702068574E+02  0.33146417105E+01 -0.93935236487E+03  0.93982767841E+03  0.00000000000E+00 0. -1.
          1    1    1    2  502    0 -0.42998398599E+02 -0.84409964692E+02  0.20434210493E+03  0.22523232510E+03  0.00000000000E+00 0. -1.
         22    1    3    3    0    0  0.11625752930E+02  0.85078840710E+01  0.20507933488E+02  0.25062273610E+02  0.00000000000E+00 0. -1.
         22    1    3    3    0    0  0.61074714242E+02  0.72587438910E+02 -0.18818444097E+03  0.21074259378E+03  0.00000000000E+00 0. -1.
</event>
<event>
 7    1  0.6330892E-006  0.9348134E+02  0.7818608E-02  0.1391083E+00
          2   -1    0    0  502    0  0.00000000000E+00  0.00000000000E+00  0.48524950232E+03  0.48524950232E+03  0.00000000000E+00 0. -1.
          1   -1    0    0  501    0 -0.00000000000E+00 -0.00000000000E+00 -0.72036158745E+02  0.72036158745E+02  0.00000000000E+00 0. -1.
         25    2    1    2    0    0 -0.64714018006E+02  0.66323668173E+02  0.94787930169E+02  0.18220000748E+03  0.12500143172E+03 0.  0.
          2    1    1    2  501    0  0.32917554798E+02 -0.91636689525E+02  0.61941962148E+02  0.11540214450E+03  0.00000000000E+00 0. -1.
          1    1    1    2  502    0  0.31796463207E+02  0.25313021353E+02  0.25648345126E+03  0.25968350909E+03  0.00000000000E+00 0. -1.
         22    1    3    3    0    0 -0.99403843649E+02  0.33517104259E+02  0.48040121172E+02  0.11537926006E+03  0.00000000000E+00 0.  1.
         22    1    3    3    0    0  0.34689825644E+02  0.32806563913E+02  0.46747808998E+02  0.66820747415E+02  0.00000000000E+00 0.  1.
</event>
<event>
 7    1  0.6330892E-006  0.1294060E+03  0.7818608E-02  0.1278724E+00
          2   -1    0    0  502    0  0.00000000000E+00  0.00000000000E+00  0.23947905224E+03  0.23947905224E+03  0.00000000000E+00 0. -1.
          1   -1    0    0  501    0 -0.00000000000E+00 -0.00000000000E+00 -0.27949375658E+03  0.27949375658E+03  0.00000000000E+00 0. -1.
         25    2    1    2    0    0 -0.35408814848E+02  0.11296238295E+03  0.28993512403E+02  0.17458490097E+03  0.12499991902E+03 0.  0.
          2    1    1    2  501    0 -0.41186536375E+02 -0.12988279086E+03 -0.16913547274E+03  0.21719272151E+03  0.00000000000E+00 0. -1.
          1    1    1    2  502    0  0.76595351223E+02  0.16920407904E+02  0.10012725600E+03  0.12719518633E+03  0.00000000000E+00 0. -1.
         22    1    3    3    0    0 -0.15205311315E+02  0.79039255075E+02  0.77707744683E+02  0.11187894761E+03  0.00000000000E+00 0.  1.
         22    1    3    3    0    0 -0.20203503532E+02  0.33923127876E+02 -0.48714232280E+02  0.62705953358E+02  0.00000000000E+00 0.  1.
</event>
<event>
 7    1  0.6330892E-006  0.3890992E+02  0.7818608E-02  0.1605736E+00
          2   -1    0    0  502    0  0.00000000000E+00  0.00000000000E+00  0.23646260398E+04  0.23646260398E+04  0.00000000000E+00 0. -1.
          1   -1    0    0  501    0 -0.00000000000E+00 -0.00000000000E+00 -0.78229257600E+02  0.78229257600E+02  0.00000000000E+00 0. -1.
         25    2    1    2    0    0 -0.24295843357E+02 -0.35596167221E+01  0.14782693026E+03  0.19514432566E+03  0.12500219059E+03 0.  0.
          2    1    1    2  501    0 -0.57912983948E+01 -0.21320202734E+02 -0.52153430565E+02  0.56639831403E+02  0.00000000000E+00 0. -1.
          1    1    1    2  502    0  0.30087141752E+02  0.24879819456E+02  0.21907232825E+04  0.21910711403E+04  0.00000000000E+00 0. -1.
         22    1    3    3    0    0  0.10732863457E+02  0.43452138648E+02  0.12405319683E+03  0.13188054578E+03  0.00000000000E+00 0. -1.
         22    1    3    3    0    0 -0.35028706814E+02 -0.47011755371E+02  0.23773733436E+02  0.63263779887E+02  0.00000000000E+00 0. -1.
</event>
<event>
 7    1  0.6330892E-006  0.5648418E+02  0.7818608E-02  0.1423625E+00
          2   -1    0    0  502    0  0.00000000000E+00  0.00000000000E+00  0.17905304584E+02  0.17905304584E+02  0.00000000000E+00 0. -1.
          1   -1    0    0  501    0 -0.00000000000E+00 -0.00000000000E+00 -0.14868173647E+04  0.14868173647E+04  0.00000000000E+00 0. -1.
         25    2    1    2    0    0 -0.32961288082E+02 -0.17080120233E+02 -0.63740051327E+03  0.65060121389E+03  0.12499739267E+03 0.  0.
          2    1    1    2  501    0  0.55634825445E+02 -0.29856090874E+02 -0.77373175735E+03  0.77630371137E+03  0.00000000000E+00 0. -1.
          1    1    1    2  502    0 -0.22673537364E+02  0.46936211107E+02 -0.57779789480E+02  0.77817744005E+02  0.00000000000E+00 0. -1.
         22    1    3    3    0    0 -0.55244631646E+02 -0.32157198926E+02 -0.60552199440E+03  0.60888664008E+03  0.00000000000E+00 0.  1.
         22    1    3    3    0    0  0.22283343565E+02  0.15077078693E+02 -0.31878518868E+02  0.41714573803E+02  0.00000000000E+00 0.  1.
</event>
<event>
 7    1  0.6330892E-006  0.2823519E+02  0.7818608E-02  0.1654735E+00
          2   -1    0    0  502    0  0.00000000000E+00  0.00000000000E+00  0.38577449483E+03  0.38577449483E+03  0.00000000000E+00 0. -1.
          1   -1    0    0  501    0 -0.00000000000E+00 -0.00000000000E+00 -0.57575662166E+03  0.57575662166E+03  0.00000000000E+00 0. -1.
         25    2    1    2    0    0  0.92469965207E+01  0.28026750393E+02 -0.18690831008E+03  0.22678315950E+03  0.12499951749E+03 0.  0.
          2    1    1    2  501    0 -0.22703221393E+02 -0.31803180510E+01 -0.36800806776E+03  0.36872142414E+03  0.00000000000E+00 0. -1.
          1    1    1    2  502    0  0.13456224873E+02 -0.24846432342E+02  0.36493425101E+03  0.36602653285E+03  0.00000000000E+00 0. -1.
         22    1    3    3    0    0 -0.25204455454E+02  0.63659521361E+02 -0.15031604265E+03  0.16517479200E+03  0.00000000000E+00 0. -1.
         22    1    3    3    0    0  0.34451451975E+02 -0.35632770968E+02 -0.36592267427E+02  0.61608367495E+02  0.00000000000E+00 0. -1.
</event>
<event>
 7    1  0.6330892E-006  0.4913245E+02  0.7818608E-02  0.1488920E+00
          2   -1    0    0  502    0  0.00000000000E+00  0.00000000000E+00  0.81847681229E+03  0.81847681229E+03  0.00000000000E+00 0. -1.
          1   -1    0    0  501    0 -0.00000000000E+00 -0.00000000000E+00 -0.14162116813E+03  0.14162116813E+03  0.00000000000E+00 0. -1.
         25    2    1    2    0    0  0.26310450792E+02 -0.25997162641E+02  0.23346658335E+03  0.26739246775E+03  0.12499597587E+03 0.  0.
          2    1    1    2  501    0  0.24350566568E+02  0.28110611131E+02 -0.12072167827E+03  0.12632054526E+03  0.00000000000E+00 0. -1.
          1    1    1    2  502    0 -0.50661017360E+02 -0.21134484904E+01  0.56411073909E+03  0.56638496740E+03  0.00000000000E+00 0. -1.
         22    1    3    3    0    0  0.23589799629E+02  0.43268881246E+02  0.15522601004E+03  0.16286125667E+03  0.00000000000E+00 0. -1.
         22    1    3    3    0    0  0.27206511633E+01 -0.69266043887E+02  0.78240573306E+02  0.10453121108E+03  0.00000000000E+00 0. -1.
</event>
<event>
 7    1  0.6330892E-006  0.5164602E+02  0.7818608E-02  0.1504539E+00
          2   -1    0    0  502    0  0.00000000000E+00  0.00000000000E+00  0.14419520062E+04  0.14419520062E+04  0.00000000000E+00 0. -1.
          1   -1    0    0  501    0 -0.00000000000E+00 -0.00000000000E+00 -0.87609031684E+02  0.87609031684E+02  0.00000000000E+00 0. -1.
         25    2    1    2    0    0  0.36234163026E+02 -0.46104154745E+02  0.73959107184E+02  0.15663119922E+03  0.12499950151E+03 0.  0.
          2    1    1    2  501    0  0.12583603603E+02  0.29166181276E+02 -0.40256131571E+02  0.51279326623E+02  0.00000000000E+00 0. -1.
          1    1    1    2  502    0 -0.48817766629E+02  0.16937973469E+02  0.13206399989E+04  0.13216505121E+04  0.00000000000E+00 0. -1.
         22    1    3    3    0    0 -0.22260287005E+02  0.25928894166E+02  0.50403255197E+02  0.60895944567E+02  0.00000000000E+00 0.  1.
         22    1    3    3    0    0  0.58494450031E+02 -0.72033048912E+02  0.23555851987E+02  0.95735254649E+02  0.00000000000E+00 0.  1.
</event>
<event>
 7    1  0.6330892E-006  0.7161481E+02  0.7818608E-02  0.1412055E+00
          2   -1    0    0  502    0  0.00000000000E+00  0.00000000000E+00  0.49800218006E+03  0.49800218006E+03  0.00000000000E+00 0. -1.
          1   -1    0    0  501    0 -0.00000000000E+00 -0.00000000000E+00 -0.93768636122E+03  0.93768636122E+03  0.00000000000E+00 0. -1.
         25    2    1    2    0    0  0.38021442743E+01 -0.39534724552E+02 -0.55220467536E+03  0.56756592520E+03  0.12499450074E+03 0.  0.
          2    1    1    2  501    0 -0.38391732877E+02 -0.23381290374E+02 -0.37381903632E+03  0.37651199424E+03  0.00000000000E+00 0. -1.
          1    1    1    2  502    0  0.34589588603E+02  0.62916014925E+02  0.48633953051E+03  0.49161062184E+03  0.00000000000E+00 0. -1.
         22    1    3    3    0    0  0.25972878736E+02  0.37111279681E+02 -0.12453750667E+03  0.13251953847E+03  0.00000000000E+00 0.  1.
         22    1    3    3    0    0 -0.22170734462E+02 -0.76646004232E+02 -0.42766716869E+03  0.43504638673E+03  0.00000000000E+00 0.  1.
</event>
<event>
 7    1  0.6330892E-006  0.2295874E+03  0.7818608E-02  0.1299395E+00
          2   -1    0    0  502    0  0.00000000000E+00  0.00000000000E+00  0.27190257460E+04  0.27190257460E+04  0.00000000000E+00 0. -1.
          1   -1    0    0  501    0 -0.00000000000E+00 -0.00000000000E+00 -0.83342149515E+03  0.83342149515E+03  0.00000000000E+00 0. -1.
         25    2    1    2    0    0 -0.72647862759E+02 -0.18711128549E+03  0.10215587234E+03  0.25758335929E+03  0.12500007844E+03 0.  0.
          2    1    1    2  501    0  0.84741395385E+01 -0.35421483970E+02 -0.74998372540E+03  0.75086755219E+03  0.00000000000E+00 0. -1.
          1    1    1    2  502    0  0.64173723220E+02  0.22253276946E+03  0.25334321039E+04  0.25439963297E+04  0.00000000000E+00 0. -1.
         22    1    3    3    0    0  0.88502293303E+01 -0.27989829058E+00 -0.18646551322E+02  0.20642160218E+02  0.00000000000E+00 0.  1.
         22    1    3    3    0    0 -0.81498092089E+02 -0.18683138720E+03  0.12080242366E+03  0.23694119908E+03  0.00000000000E+00 0.  1.
</event>
<event>
 7    1  0.6330892E-006  0.1265248E+03  0.7818608E-02  0.1318776E+00
          2   -1    0    0  502    0  0.00000000000E+00  0.00000000000E+00  0.20140025659E+04  0.20140025659E+04  0.00000000000E+00 0. -1.
          1   -1    0    0  501    0 -0.00000000000E+00 -0.00000000000E+00 -0.45763190237E+02  0.45763190237E+02  0.00000000000E+00 0. -1.
         25    2    1    2    0    0  0.15556205194E+03 -0.83183070762E+02  0.49281128089E+03  0.53814906014E+03  0.12498990798E+03 0.  0.
          2    1    1    2  501    0 -0.48233457381E+02  0.27284221963E+02  0.16699434415E+02  0.57877165522E+02  0.00000000000E+00 0. -1.
          1    1    1    2  502    0 -0.10732859456E+03  0.55898848799E+02  0.14587286603E+04  0.14637395304E+04  0.00000000000E+00 0. -1.
         22    1    3    3    0    0  0.90830599303E+02 -0.53620142745E+02  0.12517652260E+03  0.16369019301E+03  0.00000000000E+00 0. -1.
         22    1    3    3    0    0  0.64731452640E+02 -0.29562928017E+02  0.36763475828E+03  0.37445886713E+03  0.00000000000E+00 0. -1.
</event>
<event>
 7    1  0.6330892E-006  0.9840706E+02  0.7818608E-02  0.1315485E+00
          2   -1    0    0  502    0  0.00000000000E+00  0.00000000000E+00  0.10980288185E+04  0.10980288185E+04  0.00000000000E+00 0. -1.
          1   -1    0    0  501    0 -0.00000000000E+00 -0.00000000000E+00 -0.76644144530E+02  0.76644144530E+02  0.00000000000E+00 0. -1.
         25    2    1    2    0    0 -0.95445709030E+01 -0.16629356305E+03  0.51302531750E+03  0.55368310538E+03  0.12500142735E+03 0.  0.
          2    1    1    2  501    0  0.75561166273E+01  0.92935504798E+02 -0.13307143034E+02  0.94186957729E+02  0.00000000000E+00 0. -1.
          1    1    1    2  502    0  0.19884542757E+01  0.73358058253E+02  0.52166649951E+03  0.52680289993E+03  0.00000000000E+00 0. -1.
         22    1    3    3    0    0  0.50752448756E+02 -0.71811234502E+02  0.15138100335E+03  0.17506819423E+03  0.00000000000E+00 0.  1.
         22    1    3    3    0    0 -0.60297019659E+02 -0.94482328549E+02  0.36164431415E+03  0.37861491115E+03  0.00000000000E+00 0.  1.
</event>
<event>
 7    1  0.6330892E-006  0.1645761E+03  0.7818608E-02  0.1301075E+00
          2   -1    0    0  502    0  0.00000000000E+00  0.00000000000E+00  0.80612645285E+03  0.80612645285E+03  0.00000000000E+00 0. -1.
          1   -1    0    0  501    0 -0.00000000000E+00 -0.00000000000E+00 -0.17104414640E+03  0.17104414640E+03  0.00000000000E+00 0. -1.
         25    2    1    2    0    0  0.11123061435E+03 -0.17231238338E+03  0.16720558027E+03  0.29265388833E+03  0.12499914099E+03 0.  0.
          2    1    1    2  501    0 -0.14400537652E+02  0.47910084774E+02 -0.90992800471E+02  0.10383853545E+03  0.00000000000E+00 0. -1.
          1    1    1    2  502    0 -0.96830076700E+02  0.12440229860E+03  0.55886952664E+03  0.58067817546E+03  0.00000000000E+00 0. -1.
         22    1    3    3    0    0  0.66383397856E+02 -0.13004744527E+03  0.40131021727E+02  0.15142520410E+03  0.00000000000E+00 0. -1.
         22    1    3    3    0    0  0.44847216496E+02 -0.42264938109E+02  0.12707455855E+03  0.14122868424E+03  0.00000000000E+00 0. -1.
</event>
<event>
 7    1  0.6330892E-006  0.7019861E+02  0.7818608E-02  0.1436557E+00
          2   -1    0    0  502    0  0.00000000000E+00  0.00000000000E+00  0.29124927002E+03  0.29124927002E+03  0.00000000000E+00 0. -1.
          1   -1    0    0  501    0 -0.00000000000E+00 -0.00000000000E+00 -0.15264042929E+04  0.15264042929E+04  0.00000000000E+00 0. -1.
         25    2    1    2    0    0 -0.98740072646E+02  0.25278881991E+02 -0.31625557968E+03  0.35500975767E+03  0.12500285015E+03 0.  0.
          2    1    1    2  501    0  0.37229656072E+02  0.77421400827E+01 -0.11859800535E+04  0.11865895142E+04  0.00000000000E+00 0. -1.
          1    1    1    2  502    0  0.61510416574E+02 -0.33021022074E+02  0.26708061024E+03  0.27605429106E+03  0.00000000000E+00 0. -1.
         22    1    3    3    0    0 -0.35034993982E+02 -0.49128823292E+02 -0.15504683391E+03  0.16637491634E+03  0.00000000000E+00 0. -1.
         22    1    3    3    0    0 -0.63705078664E+02  0.74407705283E+02 -0.16120874577E+03  0.18863484133E+03  0.00000000000E+00 0. -1.
</event>
<event>
 7    1  0.6330892E-006  0.4608105E+02  0.7818608E-02  0.1505566E+00
          2   -1    0    0  502    0  0.00000000000E+00  0.00000000000E+00  0.10082644112E+04  0.10082644112E+04  0.00000000000E+00 0. -1.
          1   -1    0    0  501    0 -0.00000000000E+00 -0.00000000000E+00 -0.26604236303E+03  0.26604236303E+03  0.00000000000E+00 0. -1.
         25    2    1    2    0    0 -0.19370478323E+02  0.25969171666E+02 -0.12463195600E+03  0.17946207949E+03  0.12499560076E+03 0.  0.
          2    1    1    2  501    0  0.29808149430E+02  0.19006697264E+02 -0.11069644447E+03  0.11620448843E+03  0.00000000000E+00 0. -1.
          1    1    1    2  502    0 -0.10437671107E+02 -0.44975868931E+02  0.97755044862E+03  0.97864020629E+03  0.00000000000E+00 0. -1.
         22    1    3    3    0    0  0.10915154408E+02 -0.35526082624E+02  0.65813588616E-01  0.37165137881E+02  0.00000000000E+00 0.  1.
         22    1    3    3    0    0 -0.30285632731E+02  0.61495254290E+02 -0.12469776959E+03  0.14229694160E+03  0.00000000000E+00 0.  1.
</event>
<event>
 7    1  0.6330892E-006  0.5174520E+02  0.7818608E-02  0.1469633E+00
          2   -1    0    0  502    0  0.00000000000E+00  0.00000000000E+00  0.19028123942E+02  0.19028123942E+02  0.00000000000E+00 0. -1.
          1   -1    0    0  501    0 -0.00000000000E+00 -0.00000000000E+00 -0.72241292144E+03  0.72241292144E+03  0.00000000000E+00 0. -1.
         25    2    1    2    0    0 -0.73370783473E+02 -0.47006862525E+01 -0.46040645432E+03  0.48270544604E+03  0.12500030453E+03 0.  0.
          2    1    1    2  501    0  0.30605726759E+02  0.26482591130E+02 -0.12419290143E+03  0.13062126515E+03  0.00000000000E+00 0. -1.
          1    1    1    2  502    0  0.42765056714E+02 -0.21781904877E+02 -0.11878544175E+03  0.12811433420E+03  0.00000000000E+00 0. -1.
         22    1    3    3    0    0 -0.70049874122E+02 -0.41242090716E+02 -0.42133977844E+03  0.42910966408E+03  0.00000000000E+00 0. -1.
         22    1    3    3    0    0 -0.33209093508E+01  0.36541404464E+02 -0.39066675883E+02  0.53595781957E+02  0.00000000000E+00 0. -1.
</event>
<event>
 7    1  0.6330892E-006  0.8151422E+02  0.7818608E-02  0.1408473E+00
          2   -1    0    0  502    0  0.00000000000E+00  0.00000000000E+00  0.71488349057E+03  0.71488349057E+03  0.00000000000E+00 0. -1.
          1   -1    0    0  501    0 -0.00000000000E+00 -0.00000000000E+00 -0.65973624396E+03  0.65973624396E+03  0.00000000000E+00 0. -1.
         25    2    1    2    0    0  0.55531987593E+02  0.18667634101E+02 -0.22353779010E+01  0.13806534479E+03  0.12499904123E+03 0.  0.
          2    1    1    2  501    0 -0.81850236125E+02  0.12261595250E+02 -0.58603804274E+03  0.59185335634E+03  0.00000000000E+00 0. -1.
          1    1    1    2  502    0  0.26318248532E+02 -0.30929229350E+02  0.64342066725E+03  0.64470103340E+03  0.00000000000E+00 0. -1.
         22    1    3    3    0    0  0.55499640563E+02  0.36691483619E+02  0.49729648301E+02  0.83063307140E+02  0.00000000000E+00 0. -1.
         22    1    3    3    0    0  0.32347029817E-01 -0.18023849519E+02 -0.51965026202E+02  0.55002037653E+02  0.00000000000E+00 0. -1.
</event>
<event>
 7    1  0.6330892E-006  0.7559754E+02  0.7818608E-02  0.1411526E+00
          2   -1    0    0  502    0  0.00000000000E+00  0.00000000000E+00  0.16242392647E+03  0.16242392647E+03  0.00000000000E+00 0. -1.
          1   -1    0    0  501    0 -0.00000000000E+00 -0.00000000000E+00 -0.29383028270E+03  0.29383028270E+03  0.00000000000E+00 0. -1.
         25    2    1    2    0    0 -0.37298401605E+02 -0.70166210214E+02 -0.11597210652E+03  0.18811793182E+03  0.12499743582E+03 0.  0.
          2    1    1    2  501    0 -0.49067152496E+01  0.77024386474E+02 -0.12702476253E+03  0.14863418941E+03  0.00000000000E+00 0. -1.
          1    1    1    2  502    0  0.42205116855E+02 -0.68581762600E+01  0.11159051282E+03  0.11950208794E+03  0.00000000000E+00 0. -1.
         22    1    3    3    0    0 -0.79176608501E+02 -0.56504883103E+02 -0.51582158220E+02  0.11010202630E+03  0.00000000000E+00 0.  1.
         22    1    3    3    0    0  0.41878206896E+02 -0.13661327112E+02 -0.64389948304E+02  0.78015905518E+02  0.00000000000E+00 0.  1.
</event>
<event>
 7    1  0.6330892E-006  0.6265151E+02  0.7818608E-02  0.1391428E+00
          2   -1    0    0  502    0  0.00000000000E+00  0.00000000000E+00  0.21786380384E+03  0.21786380384E+03  0.00000000000E+00 0. -1.
          1   -1    0    0  501    0 -0.00000000000E+00 -0.00000000000E+00 -0.11472622043E+04  0.11472622043E+04  0.00000000000E+00 0. -1.
         25    2    1    2    0    0  0.41778150619E+02 -0.12666200062E+02 -0.30244363916E+02  0.13581427704E+03  0.12499979922E+03 0.  0.
          2    1    1    2  501    0  0.38654707288E+01  0.60350041454E+02 -0.10567351767E+04  0.10584641246E+04  0.00000000000E+00 0. -1.
          1    1    1    2  502    0 -0.45643621348E+02 -0.47683841392E+02  0.15758114019E+03  0.17084760649E+03  0.00000000000E+00 0. -1.
         22    1    3    3    0    0  0.57189684941E+02 -0.29471652420E+02  0.30302561213E+02  0.71115986783E+02  0.00000000000E+00 0. -1.
         22    1    3    3    0    0 -0.15411534322E+02  0.16805452358E+02 -0.60546925129E+02  0.64698290254E+02  0.00000000000E+00 0. -1.
</event>
<event>
 7    1  0.6330892E-006  0.1026397E+03  0.7818608E-02  0.1428403E+00
          2   -1    0    0  502    0  0.00000000000E+00  0.00000000000E+00  0.36587751625E+04  0.36587751625E+04  0.00000000000E+00 0. -1.
          1   -1    0    0  501    0 -0.00000000000E+00 -0.00000000000E+00 -0.19684220009E+03  0.19684220009E+03  0.00000000000E+00 0. -1.
         25    2    1    2    0    0  0.78347797469E+02 -0.15487341517E+02  0.25263897550E+03  0.29296672533E+03  0.12499926039E+03 0.  0.
          2    1    1    2  501    0  0.25148057278E+02  0.11515992916E+02 -0.17479862823E+03  0.17697345368E+03  0.00000000000E+00 0. -1.
          1    1    1    2  502    0 -0.10349585475E+03  0.39713486008E+01  0.33840926151E+04  0.33856771835E+04  0.00000000000E+00 0. -1.
         22    1    3    3    0    0  0.16824704179E+02  0.71443304548E+01 -0.10977568276E+02  0.21321799493E+02  0.00000000000E+00 0. -1.
         22    1    3    3    0    0  0.61523093290E+02 -0.22631671972E+02  0.26361654377E+03  0.27164492584E+03  0.00000000000E+00 0. -1.
</event>
<event>
 7    1  0.6330892E-006  0.1251182E+03  0.7818608E-02  0.1272390E+00
          2   -1    0    0  502    0  0.00000000000E+00  0.00000000000E+00  0.87424473548E+03  0.87424473548E+03  0.00000000000E+00 0. -1.
          1   -1    0    0  501    0 -0.00000000000E+00 -0.00000000000E+00 -0.25891816645E+04  0.25891816645E+04  0.00000000000E+00 0. -1.
         25    2    1    2    0    0 -0.43865043217E+02  0.15677625279E+03 -0.27805280750E+03  0.34560303870E+03  0.12500064459E+03 0.  0.
          2    1    1    2  501    0 -0.47694079547E+02 -0.71811726908E+02 -0.22718908640E+04  0.22735258405E+04  0.00000000000E+00 0. -1.
          1    1    1    2  502    0  0.91559122764E+02 -0.84964525883E+02  0.83500674249E+03  0.84429752079E+03  0.00000000000E+00 0. -1.
         22    1    3    3    0    0  0.63467214609E+01 -0.15522043261E+02 -0.27844827356E+01  0.16999060104E+02  0.00000000000E+00 0. -1.
         22    1    3    3    0    0 -0.50211764678E+02  0.17229829605E+03 -0.27526832476E+03  0.32860397860E+03  0.00000000000E+00 0. -1.
</event>
<event>
 7    1  0.6330892E-006  0.2194712E+03  0.7818608E-02  0.1242666E+00
          2   -1    0    0  502    0  0.00000000000E+00  0.00000000000E+00  0.39428536625E+03  0.39428536625E+03  0.00000000000E+00 0. -1.
          1   -1    0    0  501    0 -0.00000000000E+00 -0.00000000000E+00 -0.31953992621E+03  0.31953992621E+03  0.00000000000E+00 0. -1.
         25    2    1    2    0    0  0.21928785605E+03  0.66059633233E+02  0.14540793586E+03  0.29869580054E+03  0.12499869798E+03 0.  0.
          2    1    1    2  501    0 -0.39690691870E+02  0.52605440508E+02 -0.16682374340E+03  0.17936790335E+03  0.00000000000E+00 0. -1.
          1    1    1    2  502    0 -0.17959716418E+03 -0.11866507374E+03  0.96161247580E+02  0.23576158856E+03  0.00000000000E+00 0. -1.
         22    1    3    3    0    0 -0.86221241243E+00  0.10144461632E+02 -0.16757379063E+02  0.19607734828E+02  0.00000000000E+00 0. -1.
         22    1    3    3    0    0  0.22015006846E+03  0.55915171602E+02  0.16216531493E+03  0.27908806571E+03  0.00000000000E+00 0. -1.
</event>
<event>
 7    1  0.6330892E-006  0.7208631E+02  0.7818608E-02  0.1371923E+00
          2   -1    0    0  502    0  0.00000000000E+00  0.00000000000E+00  0.13254569956E+04  0.13254569956E+04  0.00000000000E+00 0. -1.
          1   -1    0    0  501    0 -0.00000000000E+00 -0.00000000000E+00 -0.13575473201E+03  0.13575473201E+03  0.00000000000E+00 0. -1.
         25    2    1    2    0    0 -0.19482699069E+02  0.35750769776E+02  0.18137598800E+02  0.13271531735E+03  0.12500675929E+03 0.  0.
          2    1    1    2  501    0  0.80387875032E+02 -0.26544586665E+02 -0.54631365930E+02  0.10075421419E+03  0.00000000000E+00 0. -1.
          1    1    1    2  502    0 -0.60905175963E+02 -0.92061831108E+01  0.12261960307E+04  0.12277421961E+04  0.00000000000E+00 0. -1.
         22    1    3    3    0    0 -0.96080761841E+00  0.20313780989E+02 -0.53443739169E+02  0.57182218440E+02  0.00000000000E+00 0. -1.
         22    1    3    3    0    0 -0.18521891451E+02  0.15436988787E+02  0.71581337970E+02  0.75533098912E+02  0.00000000000E+00 0. -1.
</event>
<event>
 7    1  0.6330892E-006  0.4154199E+02  0.7818608E-02  0.1581264E+00
          2   -1    0    0  502    0  0.00000000000E+00  0.00000000000E+00  0.33794359141E+03  0.33794359141E+03  0.00000000000E+00 0. -1.
          1   -1    0    0  501    0 -0.00000000000E+00 -0.00000000000E+00 -0.25298504097E+04  0.25298504097E+04  0.00000000000E+00 0. -1.
         25    2    1    2    0    0 -0.38258498887E+02  0.15043395629E+02 -0.77535134168E+03  0.78643782676E+03  0.12499894333E+03 0.  0.
          2    1    1    2  501    0 -0.23429490290E+01 -0.23890764709E+02 -0.17475743702E+04  0.17477392361E+04  0.00000000000E+00 0. -1.
          1    1    1    2  502    0  0.40601447916E+02  0.88473690799E+01  0.33101889363E+03  0.33361693820E+03  0.00000000000E+00 0. -1.
         22    1    3    3    0    0  0.38219352111E+02 -0.19853208157E+02 -0.36737787957E+03  0.36989373494E+03  0.00000000000E+00 0.  1.
         22    1    3    3    0    0 -0.76477850998E+02  0.34896603786E+02 -0.40797346211E+03  0.41654409182E+03  0.00000000000E+00 0.  1.
</event>
<event>
 7    1  0.6330892E-006  0.1201677E+03  0.7818608E-02  0.1294433E+00
          2   -1    0    0  502    0  0.00000000000E+00  0.00000000000E+00  0.24467664217E+03  0.24467664217E+03  0.00000000000E+00 0. -1.
          1   -1    0    0  501    0 -0.00000000000E+00 -0.00000000000E+00 -0.43513078517E+03  0.43513078517E+03  0.00000000000E+00 0. -1.
         25    2    1    2    0    0 -0.59549866150E+02  0.65757383158E+02 -0.31364014721E+02  0.15643302170E+03  0.12496947171E+03 0.  0.
          2    1    1    2  501    0  0.20581126093E+02 -0.12731727650E+03 -0.32093888662E+03  0.34588298685E+03  0.00000000000E+00 0. -1.
          1    1    1    2  502    0  0.38968740057E+02  0.61559893342E+02  0.16184875834E+03  0.17749141879E+03  0.00000000000E+00 0. -1.
         22    1    3    3    0    0 -0.20984219594E+02  0.99378520872E+02 -0.14722653048E+02  0.10263130319E+03  0.00000000000E+00 0.  1.
         22    1    3    3    0    0 -0.38565646556E+02 -0.33621137714E+02 -0.16641361673E+02  0.53801718502E+02  0.00000000000E+00 0.  1.
</event>
<event>
 7    1  0.6330892E-006  0.1113795E+03  0.7818608E-02  0.1325527E+00
          2   -1    0    0  502    0  0.00000000000E+00  0.00000000000E+00  0.25066040836E+03  0.25066040836E+03  0.00000000000E+00 0. -1.
          1   -1    0    0  501    0 -0.00000000000E+00 -0.00000000000E+00 -0.48186084850E+03  0.48186084850E+03  0.00000000000E+00 0. -1.
         25    2    1    2    0    0 -0.85916897308E+02  0.13133493947E+03  0.56089455378E+02  0.20833030261E+03  0.12499963366E+03 0.  0.
          2    1    1    2  501    0  0.40075167898E+02 -0.43679802977E+02 -0.38239893285E+03  0.38696626225E+03  0.00000000000E+00 0. -1.
          1    1    1    2  502    0  0.45841729410E+02 -0.87655136493E+02  0.95109037342E+02  0.13722469199E+03  0.00000000000E+00 0. -1.
         22    1    3    3    0    0 -0.28559252317E+02  0.94762675326E+02 -0.25399639468E+02  0.10217992568E+03  0.00000000000E+00 0. -1.
         22    1    3    3    0    0 -0.57357644991E+02  0.36572264143E+02  0.81489094845E+02  0.10615037693E+03  0.00000000000E+00 0. -1.
</event>
<event>
 7    1  0.6330892E-006  0.1883661E+03  0.7818608E-02  0.1260342E+00
          2   -1    0    0  502    0  0.00000000000E+00  0.00000000000E+00  0.25545694060E+04  0.25545694060E+04  0.00000000000E+00 0. -1.
          1   -1    0    0  501    0 -0.00000000000E+00 -0.00000000000E+00 -0.37423819141E+03  0.37423819141E+03  0.00000000000E+00 0. -1.
         25    2    1    2    0    0  0.68054376995E+02  0.23872883115E+03  0.43658771259E+03  0.51754848096E+03  0.12499898526E+03 0.  0.
          2    1    1    2  501    0 -0.61364209959E+02 -0.17469666891E+03 -0.30753318827E+03  0.35897235866E+03  0.00000000000E+00 0. -1.
          1    1    1    2  502    0 -0.66901670366E+01 -0.64032162236E+02  0.20512766902E+04  0.20522867577E+04  0.00000000000E+00 0. -1.
         22    1    3    3    0    0  0.86179788432E+02  0.21825681702E+03  0.31425866241E+03  0.39220084269E+03  0.00000000000E+00 0. -1.
         22    1    3    3    0    0 -0.18125411437E+02  0.20472014127E+02  0.12232905018E+03  0.12534763827E+03  0.00000000000E+00 0. -1.
</event>
<event>
 7    1  0.6330892E-006  0.1005797E+03  0.7818608E-02  0.1380711E+00
          2   -1    0    0  502    0  0.00000000000E+00  0.00000000000E+00  0.76663953875E+02  0.76663953875E+02  0.00000000000E+00 0. -1.
          1   -1    0    0  501    0 -0.00000000000E+00 -0.00000000000E+00 -0.93479827631E+03  0.93479827631E+03  0.00000000000E+00 0. -1.
         25    2    1    2    0    0 -0.44368898525E+02 -0.54573900401E+02 -0.12444248774E+03  0.18989163941E+03  0.12500396875E+03 0.  0.
          2    1    1    2  501    0  0.41358150873E+02  0.95541004699E+02 -0.76365960777E+03  0.77072341132E+03  0.00000000000E+00 0. -1.
          1    1    1    2  502    0  0.30107476516E+01 -0.40967104298E+02  0.29967773065E+02  0.50847179454E+02  0.00000000000E+00 0. -1.
         22    1    3    3    0    0  0.12584833037E+02 -0.78653399669E+02 -0.54388650793E+02  0.96451338182E+02  0.00000000000E+00 0. -1.
         22    1    3    3    0    0 -0.56953731561E+02  0.24079499268E+02 -0.70053836942E+02  0.93440301231E+02  0.00000000000E+00 0. -1.
</event>
<event>
 7    1  0.6330892E-006  0.1683676E+03  0.7818608E-02  0.1302930E+00
          2   -1    0    0  502    0  0.00000000000E+00  0.00000000000E+00  0.27362438849E+04  0.27362438849E+04  0.00000000000E+00 0. -1.
          1   -1    0    0  501    0 -0.00000000000E+00 -0.00000000000E+00 -0.73886920118E+03  0.73886920118E+03  0.00000000000E+00 0. -1.
         25    2    1    2    0    0  0.12762511529E+02  0.16864499966E+03  0.10113598910E+03  0.23336233159E+03  0.12500188759E+03 0.  0.
          2    1    1    2  501    0  0.35175170032E+02 -0.16502021803E+03 -0.66194740734E+03  0.68311297384E+03  0.00000000000E+00 0. -1.
          1    1    1    2  502    0 -0.47937681561E+02 -0.36247816262E+01  0.25581861020E+04  0.25586377807E+04  0.00000000000E+00 0. -1.
         22    1    3    3    0    0  0.77994548522E+01  0.18148909445E+03  0.62114508334E+02  0.19198264256E+03  0.00000000000E+00 0. -1.
         22    1    3    3    0    0  0.49630566769E+01 -0.12844094790E+02  0.39021480763E+02  0.41379689021E+02  0.00000000000E+00 0. -1.
</event>
<event>
 7    1  0.6330892E-006  0.1289198E+03  0.7818608E-02  0.1339111E+00
          2   -1    0    0  502    0  0.00000000000E+00  0.00000000000E+00  0.10708698420E+04  0.10708698420E+04  0.00000000000E+00 0. -1.
          1   -1    0    0  501    0 -0.00000000000E+00 -0.00000000000E+00 -0.88958990430E+03  0.88958990430E+03  0.00000000000E+00 0. -1.
         25    2    1    2    0    0 -0.98365055574E+01  0.15724039834E+03  0.34245801388E+03  0.39714824713E+03  0.12501175633E+03 0.  0.
          2    1    1    2  501    0 -0.24492098484E+02 -0.38303205819E+02 -0.85617223782E+03  0.85737850409E+03  0.00000000000E+00 0. -1.
          1    1    1    2  502    0  0.34328604041E+02 -0.11893719252E+03  0.69499416167E+03  0.70593299510E+03  0.00000000000E+00 0. -1.
         22    1    3    3    0    0  0.55043929361E+02  0.52449230342E+02  0.10535704707E+03  0.12992637643E+03  0.00000000000E+00 0.  1.
         22    1    3    3    0    0 -0.64880434918E+02  0.10479116800E+03  0.23710096680E+03  0.26722187071E+03  0.00000000000E+00 0.  1.
</event>
<event>
 7    1  0.6330892E-006  0.1827023E+03  0.7818608E-02  0.1309088E+00
          2   -1    0    0  502    0  0.00000000000E+00  0.00000000000E+00  0.36949102848E+03  0.36949102848E+03  0.00000000000E+00 0. -1.
          1   -1    0    0  501    0 -0.00000000000E+00 -0.00000000000E+00 -0.10948968399E+04  0.10948968399E+04  0.00000000000E+00 0. -1.
         25    2    1    2    0    0 -0.17563668209E+03 -0.60341615197E+02 -0.24540841952E+03  0.33217395010E+03  0.12499954453E+03 0.  0.
          2    1    1    2  501    0  0.20559281570E+02 -0.36486552003E+02 -0.77987565797E+03  0.78099935623E+03  0.00000000000E+00 0. -1.
          1    1    1    2  502    0  0.15507740052E+03  0.96828167200E+02  0.29987826608E+03  0.35121456204E+03  0.00000000000E+00 0. -1.
         22    1    3    3    0    0 -0.15001405712E+03 -0.97216460541E+02 -0.19039986562E+03  0.26116540039E+03  0.00000000000E+00 0. -1.
         22    1    3    3    0    0 -0.25622624977E+02  0.36874845344E+02 -0.55008553902E+02  0.71008549712E+02  0.00000000000E+00 0. -1.
</event>
<event>
 7    1  0.6330892E-006  0.1170078E+03  0.7818608E-02  0.1350362E+00
          2   -1    0    0  502    0  0.00000000000E+00  0.00000000000E+00  0.42465349564E+03  0.42465349564E+03  0.00000000000E+00 0. -1.
          1   -1    0    0  501    0 -0.00000000000E+00 -0.00000000000E+00 -0.94527579432E+03  0.94527579432E+03  0.00000000000E+00 0. -1.
         25    2    1    2    0    0  0.14186863827E+02  0.81378064501E+02 -0.20287904888E+02  0.15119552840E+03  0.12499932894E+03 0.  0.
          2    1    1    2  501    0 -0.51155775206E+02 -0.10785559663E+03 -0.85392646050E+03  0.86222975071E+03  0.00000000000E+00 0. -1.
          1    1    1    2  502    0  0.36968911379E+02  0.26477532128E+02  0.35359206670E+03  0.35650401085E+03  0.00000000000E+00 0. -1.
         22    1    3    3    0    0 -0.30826847778E+02  0.83153698494E+02 -0.45390476468E+02  0.99624933983E+02  0.00000000000E+00 0. -1.
         22    1    3    3    0    0  0.45013711605E+02 -0.17756339928E+01  0.25102571580E+02  0.51570594417E+02  0.00000000000E+00 0. -1.
</event>
<event>
 7    1  0.6330892E-006  0.4546725E+02  0.7818608E-02  0.1520507E+00
          2   -1    0    0  502    0  0.00000000000E+00  0.00000000000E+00  0.18569078642E+03  0.18569078642E+03  0.00000000000E+00 0. -1.
          1   -1    0    0  501    0 -0.00000000000E+00 -0.00000000000E+00 -0.13516979836E+04  0.13516979836E+04  0.00000000000E+00 0. -1.
         25    2    1    2    0    0  0.28456269508E+02 -0.68309730658E+02 -0.10072648083E+03  0.17677098513E+03  0.12500471458E+03 0.  0.
          2    1    1    2  501    0 -0.27379665872E+02  0.35935416416E+02 -0.12107465115E+04  0.12115890869E+04  0.00000000000E+00 0. -1.
          1    1    1    2  502    0 -0.10766036357E+01  0.32374314242E+02  0.14546579512E+03  0.14902869807E+03  0.00000000000E+00 0. -1.
         22    1    3    3    0    0  0.76687577933E+02 -0.56794209117E+02 -0.71152407199E+02  0.11903458257E+03  0.00000000000E+00 0. -1.
         22    1    3    3    0    0 -0.48231308425E+02 -0.11515521541E+02 -0.29574073631E+02  0.57736402554E+02  0.00000000000E+00 0. -1.
</event>
<event>
 7    1  0.6330892E-006  0.1042053E+03  0.7818608E-02  0.1408395E+00
          2   -1    0    0  502    0  0.00000000000E+00  0.00000000000E+00  0.59916389921E+03  0.59916389921E+03  0.00000000000E+00 0. -1.
          1   -1    0    0  501    0 -0.00000000000E+00 -0.00000000000E+00 -0.71669364348E+02  0.71669364348E+02  0.00000000000E+00 0. -1.
         25    2    1    2    0    0 -0.10271399108E+03  0.38205850849E+02  0.27579120073E+03  0.32201972809E+03  0.12500427143E+03 0.  0.
          2    1    1    2  501    0 -0.48418725369E+00 -0.31783751678E+02 -0.33057841796E+02  0.45861336791E+02  0.00000000000E+00 0. -1.
          1    1    1    2  502    0  0.10319817833E+03 -0.64220991703E+01  0.28476117593E+03  0.30295219868E+03  0.00000000000E+00 0. -1.
         22    1    3    3    0    0 -0.97630009477E+01  0.23193960431E+02  0.19882030745E+03  0.20040656337E+03  0.00000000000E+00 0.  1.
         22    1    3    3    0    0 -0.92950990130E+02  0.15011890417E+02  0.76970893281E+02  0.12161316472E+03  0.00000000000E+00 0.  1.
</event>
<event>
 7    1  0.6330892E-006  0.4948553E+02  0.7818608E-02  0.1454245E+00
          2   -1    0    0  502    0  0.00000000000E+00  0.00000000000E+00  0.18220489980E+04  0.18220489980E+04  0.00000000000E+00 0. -1.
          1   -1    0    0  501    0 -0.00000000000E+00 -0.00000000000E+00 -0.25857833368E+02  0.25857833368E+02  0.00000000000E+00 0. -1.
         25    2    1    2    0    0 -0.16617466437E+02  0.29875093452E+02  0.54336791326E+03  0.55860698089E+03  0.12499763411E+03 0.  0.
          2    1    1    2  501    0 -0.35205946509E+02 -0.31605492569E+02  0.13926523070E+02  0.49318494248E+02  0.00000000000E+00 0. -1.
          1    1    1    2  502    0  0.51823412946E+02  0.17303991169E+01  0.12388967283E+04  0.12399813563E+04  0.00000000000E+00 0. -1.
         22    1    3    3    0    0  0.41552040690E+02 -0.73600096106E+01  0.83250383961E+02  0.93334710889E+02  0.00000000000E+00 0.  1.
         22    1    3    3    0    0 -0.58169507127E+02  0.37235103063E+02  0.46011752930E+03  0.46527227000E+03  0.00000000000E+00 0.  1.
</event>
<event>
 7    1  0.6330892E-006  0.5082593E+02  0.7818608E-02  0.1451130E+00
          2   -1    0    0  502    0  0.00000000000E+00  0.00000000000E+00  0.98614247184E+03  0.98614247184E+03  0.00000000000E+00 0. -1.
          1   -1    0    0  501    0 -0.00000000000E+00 -0.00000000000E+00 -0.13605621359E+04  0.13605621359E+04  0.00000000000E+00 0. -1.
         25    2    1    2    0    0 -0.57096877239E+02  0.31474695925E+02  0.72595422784E+02  0.15857117407E+03  0.12499604778E+03 0.  0.
          2    1    1    2  501    0  0.48620959743E+02  0.14885859631E+02 -0.13164452174E+04  0.13174268848E+04  0.00000000000E+00 0. -1.
          1    1    1    2  502    0  0.84759174959E+01 -0.46360555556E+02  0.86943013054E+03  0.87070654883E+03  0.00000000000E+00 0. -1.
         22    1    3    3    0    0 -0.86305733293E+02  0.23798149526E+02  0.87243223008E+02  0.12500564580E+03  0.00000000000E+00 0. -1.
         22    1    3    3    0    0  0.29208856054E+02  0.76765463997E+01 -0.14647800224E+02  0.33565528270E+02  0.00000000000E+00 0. -1.
</event>
<event>
 7    1  0.6330892E-006  0.3143553E+03  0.7818608E-02  0.1233033E+00
          2   -1    0    0  502    0  0.00000000000E+00  0.00000000000E+00  0.85686855699E+03  0.85686855699E+03  0.00000000000E+00 0. -1.
          1   -1    0    0  501    0 -0.00000000000E+00 -0.00000000000E+00 -0.75295852602E+03  0.75295852602E+03  0.00000000000E+00 0. -1.
         25    2    1    2    0    0 -0.27469783544E+03 -0.91722799848E+02 -0.39498437807E+03  0.50547984998E+03  0.12500098806E+03 0.  0.
          2    1    1    2  501    0 -0.79771699114E+01 -0.50122853649E+02 -0.26906661359E+03  0.27381157435E+03  0.00000000000E+00 0. -1.
          1    1    1    2  502    0  0.28267500535E+03  0.14184565350E+03  0.76796102263E+03  0.83053565868E+03  0.00000000000E+00 0. -1.
         22    1    3    3    0    0 -0.21378495891E+03 -0.60866193509E+02 -0.37215202905E+03  0.43348106636E+03  0.00000000000E+00 0. -1.
         22    1    3    3    0    0 -0.60912876523E+02 -0.30856606339E+02 -0.22832349020E+02  0.71998783621E+02  0.00000000000E+00 0. -1.
</event>
<event>
 7    1  0.6330892E-006  0.7094099E+02  0.7818608E-02  0.1358891E+00
          2   -1    0    0  502    0  0.00000000000E+00  0.00000000000E+00  0.22604434003E+04  0.22604434003E+04  0.00000000000E+00 0. -1.
          1   -1    0    0  501    0 -0.00000000000E+00 -0.00000000000E+00 -0.11874911819E+04  0.11874911819E+04  0.00000000000E+00 0. -1.
         25    2    1    2    0    0 -0.23407119614E+02  0.25960614155E+02  0.56377157787E+03  0.57851952791E+03  0.12499842170E+03 0.  0.
          2    1    1    2  501    0  0.64058462088E+02  0.30747091591E+02 -0.11783260653E+04  0.11804665122E+04  0.00000000000E+00 0. -1.
          1    1    1    2  502    0 -0.40651342474E+02 -0.56707705746E+02  0.16875067058E+04  0.16889485421E+04  0.00000000000E+00 0. -1.
         22    1    3    3    0    0 -0.39344223002E+02  0.25203730858E+02  0.56023130412E+03  0.56217640474E+03  0.00000000000E+00 0. -1.
         22    1    3    3    0    0  0.15937103388E+02  0.75688329679E+00  0.35402737485E+01  0.16343123170E+02  0.00000000000E+00 0. -1.
</event>
<event>
 7    1  0.6330892E-006  0.1854286E+03  0.7818608E-02  0.1257129E+00
          2   -1    0    0  502    0  0.00000000000E+00  0.00000000000E+00  0.13691443769E+04  0.13691443769E+04  0.00000000000E+00 0. -1.
          1   -1    0    0  501    0 -0.00000000000E+00 -0.00000000000E+00 -0.12633011672E+03  0.12633011672E+03  0.00000000000E+00 0. -1.
         25    2    1    2    0    0  0.10033685061E+03 -0.17333157077E+03  0.81184646160E+03  0.84548361487E+03  0.12504618660E+03 0.  0.
          2    1    1    2  501    0 -0.33390746428E+02  0.18198120899E+03 -0.27084773479E+02  0.18699114238E+03  0.00000000000E+00 0. -1.
          1    1    1    2  502    0 -0.66946104181E+02 -0.86496382206E+01  0.45805257209E+03  0.46299973640E+03  0.00000000000E+00 0. -1.
         22    1    3    3    0    0 -0.21824642314E+02  0.13233156411E+01  0.54651052460E+02  0.58862583288E+02  0.00000000000E+00 0. -1.
         22    1    3    3    0    0  0.12216149292E+03 -0.17465488641E+03  0.75719540914E+03  0.78662103158E+03  0.00000000000E+00 0. -1.
</event>
<event>
 7    1  0.6330892E-006  0.6723577E+02  0.7818608E-02  0.1371469E+00
          2   -1    0    0  502    0  0.00000000000E+00  0.00000000000E+00  0.67366910137E+03  0.67366910137E+03  0.00000000000E+00 0. -1.
          1   -1    0    0  501    0 -0.00000000000E+00 -0.00000000000E+00 -0.15253627971E+03  0.15253627971E+03  0.00000000000E+00 0. -1.
         25    2    1    2    0    0 -0.56724483532E+02  0.22489754250E+02  0.41918109098E+03  0.44165684390E+03  0.12499809862E+03 0.  0.
          2    1    1    2  501    0  0.52121254887E+02  0.43638838658E+02 -0.12816373672E+03  0.14507555570E+03  0.00000000000E+00 0. -1.
          1    1    1    2  502    0  0.46032286449E+01 -0.66128592908E+02  0.23011546741E+03  0.23947298148E+03  0.00000000000E+00 0. -1.
         22    1    3    3    0    0 -0.16638326818E+02  0.61339467757E+02  0.33275466922E+03  0.33876988372E+03  0.00000000000E+00 0. -1.
         22    1    3    3    0    0 -0.40086156714E+02 -0.38849713507E+02  0.86426421751E+02  0.10288696019E+03  0.00000000000E+00 0. -1.
</event>
<event>
 7    1  0.6330892E-006  0.1183424E+03  0.7818608E-02  0.1279779E+00
          2   -1    0    0  502    0  0.00000000000E+00  0.00000000000E+00  0.20580810112E+03  0.20580810112E+03  0.00000000000E+00 0. -1.
          1   -1    0    0  501    0 -0.00000000000E+00 -0.00000000000E+00 -0.35956930020E+04  0.35956930020E+04  0.00000000000E+00 0. -1.
         25    2    1    2    0    0 -0.22296705537E+02  0.61381299594E+02 -0.68739831316E+02  0.15689056774E+03  0.12499871527E+03 0.  0.
          2    1    1    2  501    0  0.10693096326E+03 -0.54457397220E+02 -0.34706226016E+04  0.34726965144E+04  0.00000000000E+00 0. -1.
          1    1    1    2  502    0 -0.84634257719E+02 -0.69239023744E+01  0.14947753202E+03  0.17191402090E+03  0.00000000000E+00 0. -1.
         22    1    3    3    0    0 -0.23239280507E+02 -0.36431640679E+02 -0.21088157990E+02  0.48083666753E+02  0.00000000000E+00 0.  1.
         22    1    3    3    0    0  0.94257497001E+00  0.97812940273E+02 -0.47651673326E+02  0.10880690099E+03  0.00000000000E+00 0.  1.
</event>
<event>
 7    1  0.6330892E-006  0.4435125E+02  0.7818608E-02  0.1596872E+00
          2   -1    0    0  502    0  0.00000000000E+00  0.00000000000E+00  0.11853233414E+04  0.11853233414E+04  0.00000000000E+00 0. -1.
          1   -1    0    0  501    0 -0.00000000000E+00 -0.00000000000E+00 -0.31948874453E+02  0.31948874453E+02  0.00000000000E+00 0. -1.
         25    2    1    2    0    0 -0.57502115107E+02  0.15772661294E+02  0.40916924832E+03  0.43197204378E+03  0.12500041102E+03 0.  0.
          2    1    1    2  501    0  0.43593383981E+02 -0.79182079828E+00  0.28826000628E+01  0.43695760552E+02  0.00000000000E+00 0. -1.
          1    1    1    2  502    0  0.13908731126E+02 -0.14980840495E+02  0.74132261854E+03  0.74160441149E+03  0.00000000000E+00 0. -1.
         22    1    3    3    0    0 -0.65591112183E+02  0.13838375672E+02  0.87653198894E+02  0.11034843866E+03  0.00000000000E+00 0.  1.
         22    1    3    3    0    0  0.80889970758E+01  0.19342856221E+01  0.32151604942E+03  0.32162360512E+03  0.00000000000E+00 0.  1.
</event>
<event>
 7    1  0.6330892E-006  0.6677746E+02  0.7818608E-02  0.1425519E+00
          2   -1    0    0  502    0  0.00000000000E+00  0.00000000000E+00  0.32166824454E+02  0.32166824454E+02  0.00000000000E+00 0. -1.
          1   -1    0    0  501    0 -0.00000000000E+00 -0.00000000000E+00 -0.11852556597E+04  0.11852556597E+04  0.00000000000E+00 0. -1.
         25    2    1    2    0    0  0.10075072765E+03 -0.15512050434E+02 -0.40176939367E+03  0.43293721956E+03  0.12499863022E+03 0.  0.
          2    1    1    2  501    0 -0.38900790362E+02  0.19372182957E+02 -0.70691216432E+03  0.70824668091E+03  0.00000000000E+00 0. -1.
          1    1    1    2  502    0 -0.61849937291E+02 -0.38601325233E+01 -0.44407277218E+02  0.76238583643E+02  0.00000000000E+00 0. -1.
         22    1    3    3    0    0  0.48655045082E+02 -0.92375461358E+01 -0.30898243359E+02  0.58372485926E+02  0.00000000000E+00 0.  1.
         22    1    3    3    0    0  0.52095682572E+02 -0.62745042983E+01 -0.37087115031E+03  0.37456473363E+03  0.00000000000E+00 0.  1.
</event>
<event>
 7    1  0.6330892E-006  0.8678475E+02  0.7818608E-02  0.1375116E+00
          2   -1    0    0  502    0  0.00000000000E+00  0.00000000000E+00  0.46681723321E+02  0.46681723321E+02  0.00000000000E+00 0. -1.
          1   -1    0    0  501    0 -0.00000000000E+00 -0.00000000000E+00 -0.10513804170E+04  0.10513804170E+04  0.00000000000E+00 0. -1.
         25    2    1    2    0    0  0.44474900480E+02 -0.11191277338E+03 -0.42661643228E+03  0.46057584403E+03  0.12500416871E+03 0.  0.
          2    1    1    2  501    0  0.95079170132E+01  0.48921268857E+02 -0.54642499088E+03  0.54869295757E+03  0.00000000000E+00 0. -1.
          1    1    1    2  502    0 -0.53982817493E+02  0.62991504525E+02 -0.31657270546E+02  0.88793338743E+02  0.00000000000E+00 0. -1.
         22    1    3    3    0    0  0.24018444571E+02 -0.11394296718E+03 -0.18845705429E+03  0.22153091604E+03  0.00000000000E+00 0.  1.
         22    1    3    3    0    0  0.20456455909E+02  0.20301937963E+01 -0.23815937799E+03  0.23904492799E+03  0.00000000000E+00 0.  1.
</event>
<event>
 7    1  0.6330892E-006  0.7454520E+02  0.7818608E-02  0.1397581E+00
          2   -1    0    0  502    0  0.00000000000E+00  0.00000000000E+00  0.93215609166E+02  0.93215609166E+02  0.00000000000E+00 0. -1.
          1   -1    0    0  501    0 -0.00000000000E+00 -0.00000000000E+00 -0.15131156319E+04  0.15131156319E+04  0.00000000000E+00 0. -1.
         25    2    1    2    0    0  0.42528071216E+02  0.44386907318E+02 -0.27643996923E+03  0.30955367246E+03  0.12500234064E+03 0.  0.
          2    1    1    2  501    0 -0.36606568261E+02  0.31645898381E+02 -0.12005427077E+04  0.12015174974E+04  0.00000000000E+00 0. -1.
          1    1    1    2  502    0 -0.59215029556E+01 -0.76032805699E+02  0.57082654200E+02  0.95260071122E+02  0.00000000000E+00 0. -1.
         22    1    3    3    0    0  0.81632547173E+02  0.45855219279E+02 -0.14663255654E+03  0.17397609183E+03  0.00000000000E+00 0. -1.
         22    1    3    3    0    0 -0.39104475957E+02 -0.14683119605E+01 -0.12980741269E+03  0.13557758063E+03  0.00000000000E+00 0. -1.
</event>
<event>
 7    1  0.6330892E-006  0.2798534E+02  0.7818608E-02  0.1624442E+00
          2   -1    0    0  502    0  0.00000000000E+00  0.00000000000E+00  0.15346683608E+04  0.15346683608E+04  0.00000000000E+00 0. -1.
          1   -1    0    0  501    0 -0.00000000000E+00 -0.00000000000E+00 -0.82776531743E+03  0.82776531743E+03  0.00000000000E+00 0. -1.
         25    2    1    2    0    0  0.70612577325E+01  0.24353254643E+02 -0.24018264218E+03  0.27195113251E+03  0.12500709778E+03 0.  0.
          2    1    1    2  501    0 -0.27660869272E+02 -0.61249836398E+01 -0.57122279324E+03  0.57192492395E+03  0.00000000000E+00 0. -1.
          1    1    1    2  502    0  0.20599611539E+02 -0.18228271003E+02  0.15183084788E+04  0.15185576218E+04  0.00000000000E+00 0. -1.
         22    1    3    3    0    0 -0.16272414707E+02  0.56228407135E+02 -0.47852569707E+02  0.75606174860E+02  0.00000000000E+00 0. -1.
         22    1    3    3    0    0  0.23333672440E+02 -0.31875152492E+02 -0.19233007248E+03  0.19634495765E+03  0.00000000000E+00 0. -1.
</event>
<event>
 7    1  0.6330892E-006  0.1203569E+03  0.7818608E-02  0.1392499E+00
          2   -1    0    0  502    0  0.00000000000E+00  0.00000000000E+00  0.26646722682E+03  0.26646722682E+03  0.00000000000E+00 0. -1.
          1   -1    0    0  501    0 -0.00000000000E+00 -0.00000000000E+00 -0.44753901723E+03  0.44753901723E+03  0.00000000000E+00 0. -1.
         25    2    1    2    0    0  0.28003301994E+02  0.10236346384E+03  0.15297849879E+03  0.22425286869E+03  0.12499785746E+03 0.  0.
          2    1    1    2  501    0 -0.59020542856E+02 -0.10583143324E+03 -0.39937611333E+03  0.41735476114E+03  0.00000000000E+00 0. -1.
          1    1    1    2  502    0  0.31017240862E+02  0.34679694003E+01  0.65325824137E+02  0.72398614224E+02  0.00000000000E+00 0. -1.
         22    1    3    3    0    0  0.57747601324E+02  0.13853961603E+01  0.42979891999E+02  0.71999832621E+02  0.00000000000E+00 0.  1.
         22    1    3    3    0    0 -0.29744299330E+02  0.10097806768E+03  0.10999860679E+03  0.15225303607E+03  0.00000000000E+00 0.  1.
</event>
<event>
 7    1  0.6330892E-006  0.1289497E+03  0.7818608E-02  0.1251046E+00
          2   -1    0    0  502    0  0.00000000000E+00  0.00000000000E+00  0.27682881545E+03  0.27682881545E+03  0.00000000000E+00 0. -1.
          1   -1    0    0  501    0 -0.00000000000E+00 -0.00000000000E+00 -0.59582230547E+03  0.59582230547E+03  0.00000000000E+00 0. -1.
         25    2    1    2    0    0  0.42470808047E+02 -0.15113082232E+02  0.73151179701E+01  0.13310105258E+03  0.12502081609E+03 0.  0.
          2    1    1    2  501    0 -0.47884169704E+02 -0.11972937663E+03 -0.50183788991E+03  0.51814021759E+03  0.00000000000E+00 0. -1.
          1    1    1    2  502    0  0.54133616569E+01  0.13484245886E+03  0.17552928192E+03  0.22140985075E+03  0.00000000000E+00 0. -1.
         22    1    3    3    0    0 -0.73087243484E+01 -0.51401704691E+02  0.37942062459E+02  0.64305153763E+02  0.00000000000E+00 0. -1.
         22    1    3    3    0    0  0.49779532395E+02  0.36288622459E+02 -0.30626944489E+02  0.68795898818E+02  0.00000000000E+00 0. -1.
</event>
<event>
 7    1  0.6330892E-006  0.5010945E+02  0.7818608E-02  0.1470999E+00
          2   -1    0    0  502    0  0.00000000000E+00  0.00000000000E+00  0.46412591694E+03  0.46412591694E+03  0.00000000000E+00 0. -1.
          1   -1    0    0  501    0 -0.00000000000E+00 -0.00000000000E+00 -0.49153290254E+03  0.49153290254E+03  0.00000000000E+00 0. -1.
         25    2    1    2    0    0 -0.35419490189E+02 -0.63550769738E+02 -0.70770179423E+02  0.16101588421E+03  0.12499782419E+03 0.  0.
          2    1    1    2  501    0  0.44018377676E+02  0.23066726400E+02 -0.37296566811E+03  0.37626198457E+03  0.00000000000E+00 0. -1.
          1    1    1    2  502    0 -0.85988874873E+01  0.40484043338E+02  0.41632886194E+03  0.41838095070E+03  0.00000000000E+00 0. -1.
         22    1    3    3    0    0  0.34529940125E+02 -0.60789642319E+02 -0.55749317259E+02  0.89418587291E+02  0.00000000000E+00 0.  1.
         22    1    3    3    0    0 -0.69949430314E+02 -0.27611274193E+01 -0.15020862164E+02  0.71597296919E+02  0.00000000000E+00 0.  1.
</event>
<event>
 7    1  0.6330892E-006  0.9139754E+02  0.7818608E-02  0.1306126E+00
          2   -1    0    0  502    0  0.00000000000E+00  0.00000000000E+00  0.42354564764E+03  0.42354564764E+03  0.00000000000E+00 0. -1.
          1   -1    0    0  501    0 -0.00000000000E+00 -0.00000000000E+00 -0.78642885706E+03  0.78642885706E+03  0.00000000000E+00 0. -1.
         25    2    1    2    0    0  0.16369302903E+03 -0.59439349602E+02 -0.43479129728E+02  0.21872502169E+03  0.12498702475E+03 0.  0.
          2    1    1    2  501    0 -0.85107069769E+02  0.24490438517E+02 -0.64675416428E+03  0.65278935646E+03  0.00000000000E+00 0. -1.
          1    1    1    2  502    0 -0.78585959265E+02  0.34948911085E+02  0.32735008459E+03  0.33846012655E+03  0.00000000000E+00 0. -1.
         22    1    3    3    0    0  0.92186513920E+02 -0.55489658235E+02  0.34361380479E+02  0.11295202516E+03  0.00000000000E+00 0.  1.
         22    1    3    3    0    0  0.71506515114E+02 -0.39496913676E+01 -0.77840510207E+02  0.10577299653E+03  0.00000000000E+00 0.  1.
</event>
<event>
 7    1  0.6330892E-006  0.9565714E+02  0.7818608E-02  0.1437586E+00
          2   -1    0    0  502    0  0.00000000000E+00  0.00000000000E+00  0.20685027026E+04  0.20685027026E+04  0.00000000000E+00 0. -1.
          1   -1    0    0  501    0 -0.00000000000E+00 -0.00000000000E+00 -0.55055535391E+02  0.55055535391E+02  0.00000000000E+00 0. -1.
         25    2    1    2    0    0 -0.31591548090E+02  0.72773450460E+02  0.43958012138E+03  0.46384299869E+03  0.12500257327E+03 0.  0.
          2    1    1    2  501    0 -0.27127315911E+02  0.55590700328E+01 -0.36811748587E+02  0.46064078871E+02  0.00000000000E+00 0. -1.
          1    1    1    2  502    0  0.58718864001E+02 -0.78332520493E+02  0.16106787944E+04  0.16136511604E+04  0.00000000000E+00 0. -1.
         22    1    3    3    0    0 -0.39577298916E+02 -0.18371352390E+02  0.24462553665E+03  0.24848646314E+03  0.00000000000E+00 0.  1.
         22    1    3    3    0    0  0.79857508261E+01  0.91144802850E+02  0.19495458472E+03  0.21535653556E+03  0.00000000000E+00 0.  1.
</event>
<event>
 7    1  0.6330892E-006  0.4216181E+02  0.7818608E-02  0.1527584E+00
          2   -1    0    0  502    0  0.00000000000E+00  0.00000000000E+00  0.41724547899E+03  0.41724547899E+03  0.00000000000E+00 0. -1.
          1   -1    0    0  501    0 -0.00000000000E+00 -0.00000000000E+00 -0.73608868931E+03  0.73608868931E+03  0.00000000000E+00 0. -1.
         25    2    1    2    0    0 -0.39713856880E+02  0.54057005148E+02  0.45393906294E+02  0.14894653336E+03  0.12500045135E+03 0.  0.
          2    1    1    2  501    0  0.36476262203E+02 -0.20888653864E+02 -0.68279684557E+03  0.68408945751E+03  0.00000000000E+00 0. -1.
          1    1    1    2  502    0  0.32375946765E+01 -0.33168351284E+02  0.31855972896E+03  0.32029817743E+03  0.00000000000E+00 0. -1.
         22    1    3    3    0    0 -0.40889997961E+02 -0.32135591188E+02  0.33664671423E+02  0.61951579933E+02  0.00000000000E+00 0. -1.
         22    1    3    3    0    0  0.11761410815E+01  0.86192596336E+02  0.11729234872E+02  0.86994953426E+02  0.00000000000E+00 0. -1.
</event>
<event>
 7    1  0.6330892E-006  0.2000152E+03  0.7818608E-02  0.1375420E+00
          2   -1    0    0  502    0  0.00000000000E+00  0.00000000000E+00  0.10669851751E+04  0.10669851751E+04  0.00000000000E+00 0. -1.
          1   -1    0    0  501    0 -0.00000000000E+00 -0.00000000000E+00 -0.42502393310E+03  0.42502393310E+03  0.00000000000E+00 0. -1.
         25    2    1    2    0    0  0.66298171258E+02 -0.20689434530E+03  0.36869349187E+03  0.44582601441E+03  0.12500090617E+03 0.  0.
          2    1    1    2  501    0 -0.71010216231E+02  0.18584564237E+03 -0.36065704749E+03  0.41189144141E+03  0.00000000000E+00 0. -1.
          1    1    1    2  502    0  0.47120449726E+01  0.21048702930E+02  0.63392479766E+03  0.63429165243E+03  0.00000000000E+00 0. -1.
         22    1    3    3    0    0  0.50222141177E+02 -0.19636098456E+03  0.23317152573E+03  0.30894798937E+03  0.00000000000E+00 0.  1.
         22    1    3    3    0    0  0.16076030081E+02 -0.10533360736E+02  0.13552196614E+03  0.13687802504E+03  0.00000000000E+00 0.  1.
</event>
<event>
 7    1  0.6330892E-006  0.4462132E+02  0.7818608E-02  0.1531348E+00
          2   -1    0    0  502    0  0.00000000000E+00  0.00000000000E+00  0.12482255768E+03  0.12482255768E+03  0.00000000000E+00 0. -1.
          1   -1    0    0  501    0 -0.00000000000E+00 -0.00000000000E+00 -0.33884396117E+03  0.33884396117E+03  0.00000000000E+00 0. -1.
         25    2    1    2    0    0  0.30192248362E+02  0.33676142344E+02 -0.56830009609E+01  0.13305144555E+03  0.12499894496E+03 0.  0.
          2    1    1    2  501    0 -0.28279293838E+02  0.11990115646E+02 -0.25990171212E+03  0.26171049138E+03  0.00000000000E+00 0. -1.
          1    1    1    2  502    0 -0.19129545241E+01 -0.45666257990E+02  0.51563309586E+02  0.68904581917E+02  0.00000000000E+00 0. -1.
         22    1    3    3    0    0  0.64235958650E+02  0.91743788832E+01  0.35757975029E+02  0.74088193322E+02  0.00000000000E+00 0.  1.
         22    1    3    3    0    0 -0.34043710288E+02  0.24501763461E+02 -0.41440975990E+02  0.58963252233E+02  0.00000000000E+00 0.  1.
</event>
<event>
 7    1  0.6330892E-006  0.9497890E+02  0.7818608E-02  0.1371027E+00
          2   -1    0    0  502    0  0.00000000000E+00  0.00000000000E+00  0.13044072641E+04  0.13044072641E+04  0.00000000000E+00 0. -1.
          1   -1    0    0  501    0 -0.00000000000E+00 -0.00000000000E+00 -0.12534170846E+04  0.12534170846E+04  0.00000000000E+00 0. -1.
         25    2    1    2    0    0 -0.10861068296E+03  0.13458114727E+02  0.38311978869E+03  0.41759424268E+03  0.12500711071E+03 0.  0.
          2    1    1    2  501    0  0.90141765326E+02  0.29867078186E+02 -0.12337406323E+04  0.12373898044E+04  0.00000000000E+00 0. -1.
          1    1    1    2  502    0  0.18468917638E+02 -0.43325192913E+02  0.90161102307E+03  0.90284030159E+03  0.00000000000E+00 0. -1.
         22    1    3    3    0    0  0.76010028198E+01 -0.89517860412E+00 -0.69438559599E+01  0.10334104905E+02  0.00000000000E+00 0. -1.
         22    1    3    3    0    0 -0.11621168578E+03  0.14353293331E+02  0.39006364465E+03  0.40726013778E+03  0.00000000000E+00 0. -1.
</event>
<event>
 7    1  0.6330892E-006  0.9174037E+02  0.7818608E-02  0.1333552E+00
          2   -1    0    0  502    0  0.00000000000E+00  0.00000000000E+00  0.64180359160E+03  0.64180359160E+03  0.00000000000E+00 0. -1.
          1   -1    0    0  501    0 -0.00000000000E+00 -0.00000000000E+00 -0.13089708678E+04  0.13089708678E+04  0.00000000000E+00 0. -1.
         25    2    1    2    0    0 -0.29682690858E+02 -0.11549423687E+02  0.66309886567E+02  0.14504392531E+03  0.12500515145E+03 0.  0.
          2    1    1    2  501    0  0.58199061223E+02  0.72243716576E+02 -0.12658027193E+04  0.12691977031E+04  0.00000000000E+00 0. -1.
          1    1    1    2  502    0 -0.28516370366E+02 -0.60694292889E+02  0.53232555655E+03  0.53653283099E+03  0.00000000000E+00 0. -1.
         22    1    3    3    0    0  0.37230566756E+02  0.25902610179E+02  0.48338433236E+02  0.66284722544E+02  0.00000000000E+00 0. -1.
         22    1    3    3    0    0 -0.66913257614E+02 -0.37452033867E+02  0.17971453331E+02  0.78759202764E+02  0.00000000000E+00 0. -1.
</event>
<event>
 7    1  0.6330892E-006  0.2224088E+03  0.7818608E-02  0.1140200E+00
          2   -1    0    0  502    0  0.00000000000E+00  0.00000000000E+00  0.16578394971E+04  0.16578394971E+04  0.00000000000E+00 0. -1.
          1   -1    0    0  501    0 -0.00000000000E+00 -0.00000000000E+00 -0.49751471585E+03  0.49751471585E+03  0.00000000000E+00 0. -1.
         25    2    1    2    0    0  0.31583690151E+03 -0.25203205684E+03  0.31915121523E+03  0.52986183596E+03  0.12499184373E+03 0.  0.
          2    1    1    2  501    0 -0.17527602228E+03  0.99545738585E+02 -0.35674552841E+03  0.40975408491E+03  0.00000000000E+00 0. -1.
          1    1    1    2  502    0 -0.14056087923E+03  0.15248631826E+03  0.11979190945E+04  0.12157382921E+04  0.00000000000E+00 0. -1.
         22    1    3    3    0    0  0.12444194636E+03 -0.10294915692E+03  0.53586292302E+02  0.17016409036E+03  0.00000000000E+00 0.  1.
         22    1    3    3    0    0  0.19139495516E+03 -0.14908289992E+03  0.26556492293E+03  0.35969774561E+03  0.00000000000E+00 0.  1.
</event>
<event>
 7    1  0.6330892E-006  0.3147113E+02  0.7818608E-02  0.1648738E+00
          2   -1    0    0  502    0  0.00000000000E+00  0.00000000000E+00  0.17388583305E+03  0.17388583305E+03  0.00000000000E+00 0. -1.
          1   -1    0    0  501    0 -0.00000000000E+00 -0.00000000000E+00 -0.14952176151E+04  0.14952176151E+04  0.00000000000E+00 0. -1.
         25    2    1    2    0    0 -0.16086926924E+02  0.99958800981E+01  0.11259051549E+03  0.16929433641E+03  0.12500096529E+03 0.  0.
          2    1    1    2  501    0  0.31075833307E+02  0.51017090106E+01 -0.14632438154E+04  0.14635826584E+04  0.00000000000E+00 0. -1.
          1    1    1    2  502    0 -0.14988906383E+02 -0.15097589109E+02  0.29321517827E+02  0.36226453306E+02  0.00000000000E+00 0. -1.
         22    1    3    3    0    0 -0.57075113645E+02 -0.29528640202E+02  0.83465156283E+02  0.10533727499E+03  0.00000000000E+00 0.  1.
         22    1    3    3    0    0  0.40988186722E+02  0.39524520300E+02  0.29125359212E+02  0.63957061415E+02  0.00000000000E+00 0.  1.
</event>
<event>
 7    1  0.6330892E-006  0.6354941E+02  0.7818608E-02  0.1490095E+00
          2   -1    0    0  502    0  0.00000000000E+00  0.00000000000E+00  0.37023527377E+03  0.37023527377E+03  0.00000000000E+00 0. -1.
          1   -1    0    0  501    0 -0.00000000000E+00 -0.00000000000E+00 -0.98204123436E+03  0.98204123436E+03  0.00000000000E+00 0. -1.
         25    2    1    2    0    0 -0.67353135033E+02  0.52596637089E+02 -0.13017892325E+02  0.15197589727E+03  0.12499742716E+03 0.  0.
          2    1    1    2  501    0  0.38971349437E+02 -0.49802803915E+02 -0.89775349951E+03  0.89997801709E+03  0.00000000000E+00 0. -1.
          1    1    1    2  502    0  0.28381785597E+02 -0.27938331737E+01  0.29896543124E+03  0.30032259378E+03  0.00000000000E+00 0. -1.
         22    1    3    3    0    0  0.16567126038E+02  0.58360724703E+02 -0.27520344518E+02  0.66616913884E+02  0.00000000000E+00 0. -1.
         22    1    3    3    0    0 -0.83920261071E+02 -0.57640876141E+01  0.14502452193E+02  0.85358983381E+02  0.00000000000E+00 0. -1.
</event>
<event>
 7    1  0.6330892E-006  0.9463066E+02  0.7818608E-02  0.1438953E+00
          2   -1    0    0  502    0  0.00000000000E+00  0.00000000000E+00  0.58166947208E+02  0.58166947208E+02  0.00000000000E+00 0. -1.
          1   -1    0    0  501    0 -0.00000000000E+00 -0.00000000000E+00 -0.14672763145E+04  0.14672763145E+04  0.00000000000E+00 0. -1.
         25    2    1    2    0    0  0.19793034510E+01 -0.70116814580E+02 -0.54238091349E+03  0.56100356978E+03  0.12501065817E+03 0.  0.
          2    1    1    2  501    0 -0.81570339773E+01 -0.26478369795E+02 -0.86720351248E+03  0.86764599539E+03  0.00000000000E+00 0. -1.
          1    1    1    2  502    0  0.61777305263E+01  0.96595184376E+02  0.47505872446E+00  0.96793696488E+02  0.00000000000E+00 0. -1.
         22    1    3    3    0    0 -0.47945439607E+02  0.95537467540E+01 -0.20683667313E+03  0.21253575842E+03  0.00000000000E+00 0.  1.
         22    1    3    3    0    0  0.49924743058E+02 -0.79670561334E+02 -0.33554424036E+03  0.34846781136E+03  0.00000000000E+00 0.  1.
</event>
<event>
 7    1  0.6330892E-006  0.8224038E+02  0.7818608E-02  0.1430854E+00
          2   -1    0    0  502    0  0.00000000000E+00  0.00000000000E+00  0.15056830508E+04  0.15056830508E+04  0.00000000000E+00 0. -1.
          1   -1    0    0  501    0 -0.00000000000E+00 -0.00000000000E+00 -0.35671926210E+03  0.35671926210E+03  0.00000000000E+00 0. -1.
         25    2    1    2    0    0 -0.63897709020E+02  0.16795566445E+02  0.83407284942E+02  0.16415786404E+03  0.12500408343E+03 0.  0.
          2    1    1    2  501    0  0.82359653218E+02  0.11617678246E+02 -0.31066461162E+03  0.32160625591E+03  0.00000000000E+00 0. -1.
          1    1    1    2  502    0 -0.18461944198E+02 -0.28413244691E+02  0.13762211154E+04  0.13766381929E+04  0.00000000000E+00 0. -1.
         22    1    3    3    0    0 -0.93021994502E+02 -0.54088539425E+01  0.27192820366E+02  0.97065939657E+02  0.00000000000E+00 0. -1.
         22    1    3    3    0    0  0.29124285482E+02  0.22204420388E+02  0.56214464576E+02  0.67091924381E+02  0.00000000000E+00 0. -1.
</event>
<event>
 7    1  0.6330892E-006  0.1385287E+03  0.7818608E-02  0.1382874E+00
          2   -1    0    0  502    0  0.00000000000E+00  0.00000000000E+00  0.72304449081E+03  0.72304449081E+03  0.00000000000E+00 0. -1.
          1   -1    0    0  501    0 -0.00000000000E+00 -0.00000000000E+00 -0.43125595607E+03  0.43125595607E+03  0.00000000000E+00 0. -1.
         25    2    1    2    0    0 -0.15521972304E+03 -0.47697563002E+02 -0.71174184950E+02  0.21693084176E+03  0.12500002227E+03 0.  0.
          2    1    1    2  501    0  0.12876680267E+03  0.35088154839E+02 -0.27134212856E+03  0.30238819225E+03  0.00000000000E+00 0. -1.
          1    1    1    2  502    0  0.26452920370E+02  0.12609408163E+02  0.63430484825E+03  0.63498141287E+03  0.00000000000E+00 0. -1.
         22    1    3    3    0    0 -0.38914400075E+00  0.30462441771E+02 -0.18614341311E+02  0.35701617529E+02  0.00000000000E+00 0. -1.
         22    1    3    3    0    0 -0.15483057904E+03 -0.78160004773E+02 -0.52559843638E+02  0.18122922423E+03  0.00000000000E+00 0. -1.
</event>
<event>
 7    1  0.6330892E-006  0.2448515E+03  0.7818608E-02  0.1156496E+00
          2   -1    0    0  502    0  0.00000000000E+00  0.00000000000E+00  0.14601459101E+04  0.14601459101E+04  0.00000000000E+00 0. -1.
          1   -1    0    0  501    0 -0.00000000000E+00 -0.00000000000E+00 -0.32607830657E+03  0.32607830657E+03  0.00000000000E+00 0. -1.
         25    2    1    2    0    0 -0.29057585254E+03  0.21280915242E+01  0.65491582812E+03  0.72730858252E+03  0.12499670969E+03 0.  0.
          2    1    1    2  501    0  0.20791317252E+03 -0.12832792853E+03 -0.22900238021E+03  0.33487017587E+03  0.00000000000E+00 0. -1.
          1    1    1    2  502    0  0.82662680021E+02  0.12619983701E+03  0.70815415557E+03  0.72404545823E+03  0.00000000000E+00 0. -1.
         22    1    3    3    0    0 -0.19700904022E+03 -0.35464847032E+02  0.31918567398E+03  0.37676227489E+03  0.00000000000E+00 0.  1.
         22    1    3    3    0    0 -0.93566812320E+02  0.37592938556E+02  0.33573015414E+03  0.35054630763E+03  0.00000000000E+00 0.  1.
</event>
<event>
 7    1  0.6330892E-006  0.1971744E+03  0.7818608E-02  0.1160196E+00
          2   -1    0    0  502    0  0.00000000000E+00  0.00000000000E+00  0.17959206084E+04  0.17959206084E+04  0.00000000000E+00 0. -1.
          1   -1    0    0  501    0 -0.00000000000E+00 -0.00000000000E+00 -0.83745661662E+03  0.83745661662E+03  0.00000000000E+00 0. -1.
         25    2    1    2    0    0 -0.69021092134E+02 -0.95532016838E+02  0.22681351215E+03  0.28453985544E+03  0.12501312988E+03 0.  0.
          2    1    1    2  501    0  0.17747087402E+03 -0.85917667729E+02 -0.78915305997E+03  0.81341275427E+03  0.00000000000E+00 0. -1.
          1    1    1    2  502    0 -0.10844978189E+03  0.18144968457E+03  0.15208035396E+04  0.15354246153E+04  0.00000000000E+00 0. -1.
         22    1    3    3    0    0 -0.23071131089E+02 -0.80723616632E+02  0.22038696481E+03  0.23583679448E+03  0.00000000000E+00 0.  1.
         22    1    3    3    0    0 -0.45949961045E+02 -0.14808400206E+02  0.64265473384E+01  0.48703060965E+02  0.00000000000E+00 0.  1.
</event>
<event>
 7    1  0.6330892E-006  0.7266103E+02  0.7818608E-02  0.1440930E+00
          2   -1    0    0  502    0  0.00000000000E+00  0.00000000000E+00  0.14339188511E+04  0.14339188511E+04  0.00000000000E+00 0. -1.
          1   -1    0    0  501    0 -0.00000000000E+00 -0.00000000000E+00 -0.77227888370E+02  0.77227888370E+02  0.00000000000E+00 0. -1.
         25    2    1    2    0    0  0.38341797020E+02  0.20347247540E+02  0.36577390423E+03  0.38897306545E+03  0.12500157096E+03 0.  0.
          2    1    1    2  501    0 -0.52102632168E+02 -0.53130448848E+02 -0.44130222101E+02  0.86515925565E+02  0.00000000000E+00 0. -1.
          1    1    1    2  502    0  0.13760835148E+02  0.32783201309E+02  0.10350472806E+04  0.10356577485E+04  0.00000000000E+00 0. -1.
         22    1    3    3    0    0  0.74084368550E+01 -0.52108288245E+02  0.16929714965E+03  0.17728982915E+03  0.00000000000E+00 0.  1.
         22    1    3    3    0    0  0.30933360165E+02  0.72455535785E+02  0.19647675459E+03  0.21168323630E+03  0.00000000000E+00 0.  1.
</event>
<event>
 7    1  0.6330892E-006  0.6907011E+02  0.7818608E-02  0.1434337E+00
          2   -1    0    0  502    0  0.00000000000E+00  0.00000000000E+00  0.69738793458E+03  0.69738793458E+03  0.00000000000E+00 0. -1.
          1   -1    0    0  501    0 -0.00000000000E+00 -0.00000000000E+00 -0.59830482660E+03  0.59830482660E+03  0.00000000000E+00 0. -1.
         25    2    1    2    0    0  0.91174676984E+01 -0.70228605797E+02 -0.77049461583E+02  0.16297887920E+03  0.12494122716E+03 0.  0.
          2    1    1    2  501    0 -0.38558000841E+02  0.75913571909E+01 -0.47564814030E+03  0.47726879377E+03  0.00000000000E+00 0. -1.
          1    1    1    2  502    0  0.29440533143E+02  0.62637248606E+02  0.65178070986E+03  0.65544508821E+03  0.00000000000E+00 0. -1.
         22    1    3    3    0    0 -0.23463567332E+02  0.18982582872E+02 -0.59047194778E+02  0.66313261537E+02  0.00000000000E+00 0.  1.
         22    1    3    3    0    0  0.32581035031E+02 -0.89211188669E+02 -0.18002266805E+02  0.96665617659E+02  0.00000000000E+00 0.  1.
</event>
<event>
 7    1  0.6330892E-006  0.1067212E+03  0.7818608E-02  0.1272147E+00
          2   -1    0    0  502    0  0.00000000000E+00  0.00000000000E+00  0.23326342678E+04  0.23326342678E+04  0.00000000000E+00 0. -1.
          1   -1    0    0  501    0 -0.00000000000E+00 -0.00000000000E+00 -0.38232658625E+03  0.38232658625E+03  0.00000000000E+00 0. -1.
         25    2    1    2    0    0  0.11570865808E+03  0.12302150578E+03  0.24457045554E+02  0.21153268921E+03  0.12500058835E+03 0.  0.
          2    1    1    2  501    0 -0.99699209480E+02 -0.17963418805E+02 -0.27858499383E+03  0.29643248063E+03  0.00000000000E+00 0. -1.
          1    1    1    2  502    0 -0.16009448598E+02 -0.10505808697E+03  0.22044356298E+04  0.22069956842E+04  0.00000000000E+00 0. -1.
         22    1    3    3    0    0  0.11550538619E+03  0.36980766793E+02 -0.26896426079E+01  0.12131078076E+03  0.00000000000E+00 0. -1.
         22    1    3    3    0    0  0.20327188545E+00  0.86040738986E+02  0.27146688162E+02  0.90221908442E+02  0.00000000000E+00 0. -1.
</event>
<event>
 7    1  0.6330892E-006  0.4100039E+02  0.7818608E-02  0.1543835E+00
          2   -1    0    0  502    0  0.00000000000E+00  0.00000000000E+00  0.39211498294E+03  0.39211498294E+03  0.00000000000E+00 0. -1.
          1   -1    0    0  501    0 -0.00000000000E+00 -0.00000000000E+00 -0.93648024701E+03  0.93648024701E+03  0.00000000000E+00 0. -1.
         25    2    1    2    0    0  0.12870125841E+02  0.11234892379E+02 -0.71263596955E+02  0.14489879036E+03  0.12500118499E+03 0.  0.
          2    1    1    2  501    0 -0.41395079284E+02  0.41245967182E+00 -0.82721249640E+03  0.82824769055E+03  0.00000000000E+00 0. -1.
          1    1    1    2  502    0  0.28524953443E+02 -0.11647352051E+02  0.35411082928E+03  0.35544874903E+03  0.00000000000E+00 0. -1.
         22    1    3    3    0    0  0.43484509373E+02  0.56630054896E+02 -0.41247731711E+02  0.82457510539E+02  0.00000000000E+00 0.  1.
         22    1    3    3    0    0 -0.30614383532E+02 -0.45395162516E+02 -0.30015865244E+02  0.62441279818E+02  0.00000000000E+00 0.  1.
</event>
<event>
 7    1  0.6330892E-006  0.8752178E+02  0.7818608E-02  0.1356356E+00
          2   -1    0    0  502    0  0.00000000000E+00  0.00000000000E+00  0.96410891587E+03  0.96410891587E+03  0.00000000000E+00 0. -1.
          1   -1    0    0  501    0 -0.00000000000E+00 -0.00000000000E+00 -0.30435193092E+04  0.30435193092E+04  0.00000000000E+00 0. -1.
         25    2    1    2    0    0  0.59173835058E+02 -0.82434515684E+02  0.82149378666E+02  0.18075052528E+03  0.12500095937E+03 0.  0.
          2    1    1    2  501    0 -0.16216371473E+01  0.87525811765E+02 -0.29925756369E+04  0.29938557647E+04  0.00000000000E+00 0. -1.
          1    1    1    2  502    0 -0.57552197911E+02 -0.50912960810E+01  0.83101586484E+03  0.83302193513E+03  0.00000000000E+00 0. -1.
         22    1    3    3    0    0  0.66256120283E+02 -0.10907795245E+03  0.84530338712E+02  0.15307923226E+03  0.00000000000E+00 0.  1.
         22    1    3    3    0    0 -0.70822852246E+01  0.26643436769E+02 -0.23809600454E+01  0.27671293024E+02  0.00000000000E+00 0.  1.
</event>
<event>
 7    1  0.6330892E-006  0.6226367E+02  0.7818608E-02  0.1417734E+00
          2   -1    0    0  502    0  0.00000000000E+00  0.00000000000E+00  0.28783637342E+03  0.28783637342E+03  0.00000000000E+00 0. -1.
          1   -1    0    0  501    0 -0.00000000000E+00 -0.00000000000E+00 -0.10729241051E+04  0.10729241051E+04  0.00000000000E+00 0. -1.
         25    2    1    2    0    0 -0.11582203960E+02 -0.64560745887E+02  0.78448895889E+02  0.16150029263E+03  0.12500351153E+03 0.  0.
          2    1    1    2  501    0  0.51461015705E+02  0.35275202731E+02 -0.10267850384E+04  0.10286788085E+04  0.00000000000E+00 0. -1.
          1    1    1    2  502    0 -0.39878811745E+02  0.29285543156E+02  0.16324841082E+03  0.17058137735E+03  0.00000000000E+00 0. -1.
         22    1    3    3    0    0 -0.36391446728E+02 -0.65834855540E+02  0.10235487398E+03  0.12702395769E+03  0.00000000000E+00 0.  1.
         22    1    3    3    0    0  0.24809242768E+02  0.12741096536E+01 -0.23905978095E+02  0.34476334938E+02  0.00000000000E+00 0.  1.
</event>
<event>
 7    1  0.6330892E-006  0.6136442E+02  0.7818608E-02  0.1445360E+00
          2   -1    0    0  502    0  0.00000000000E+00  0.00000000000E+00  0.98889443631E+03  0.98889443631E+03  0.00000000000E+00 0. -1.
          1   -1    0    0  501    0 -0.00000000000E+00 -0.00000000000E+00 -0.52728511641E+03  0.52728511641E+03  0.00000000000E+00 0. -1.
         25    2    1    2    0    0  0.61019658841E+02 -0.72774170091E+02  0.24355071712E+03  0.28976654756E+03  0.12501288606E+03 0.  0.
          2    1    1    2  501    0 -0.11740872790E+02  0.39005779500E+02 -0.50211569299E+03  0.50376529066E+03  0.00000000000E+00 0. -1.
          1    1    1    2  502    0 -0.49278786052E+02  0.33768390591E+02  0.72017429578E+03  0.72264771449E+03  0.00000000000E+00 0. -1.
         22    1    3    3    0    0  0.24861885374E+02 -0.15510301458E+02  0.21379525672E+03  0.21579410231E+03  0.00000000000E+00 0.  1.
         22    1    3    3    0    0  0.36157773467E+02 -0.57263868633E+02  0.29755460393E+02  0.73972445249E+02  0.00000000000E+00 0.  1.
</event>
<event>
 7    1  0.6330892E-006  0.7879121E+02  0.7818608E-02  0.1361302E+00
          2   -1    0    0  502    0  0.00000000000E+00  0.00000000000E+00  0.87720980270E+03  0.87720980270E+03  0.00000000000E+00 0. -1.
          1   -1    0    0  501    0 -0.00000000000E+00 -0.00000000000E+00 -0.15648484887E+04  0.15648484887E+04  0.00000000000E+00 0. -1.
         25    2    1    2    0    0  0.75237960226E+02  0.10816385355E+03  0.40556976641E+03  0.44437697531E+03  0.12499556346E+03 0.  0.
          2    1    1    2  501    0 -0.28081168311E+02 -0.54784108232E+02 -0.15420224018E+04  0.15432507697E+04  0.00000000000E+00 0. -1.
          1    1    1    2  502    0 -0.47156791915E+02 -0.53379745314E+02  0.44881394944E+03  0.45443054634E+03  0.00000000000E+00 0. -1.
         22    1    3    3    0    0  0.69564810590E+02  0.15788448918E+02  0.86308411343E+02  0.11197178154E+03  0.00000000000E+00 0.  1.
         22    1    3    3    0    0  0.56731496355E+01  0.92375404628E+02  0.31926135507E+03  0.33240519377E+03  0.00000000000E+00 0.  1.
</event>
<event>
 7    1  0.6330892E-006  0.1040190E+03  0.7818608E-02  0.1357078E+00
          2   -1    0    0  502    0  0.00000000000E+00  0.00000000000E+00  0.28343767152E+04  0.28343767152E+04  0.00000000000E+00 0. -1.
          1   -1    0    0  501    0 -0.00000000000E+00 -0.00000000000E+00 -0.17545789433E+04  0.17545789433E+04  0.00000000000E+00 0. -1.
         25    2    1    2    0    0 -0.78861383026E+02  0.10119885271E+03  0.26775448343E+03  0.32214470138E+03  0.12499767881E+03 0.  0.
          2    1    1    2  501    0  0.30579251049E+02 -0.99334110367E+02 -0.17255902468E+04  0.17287174599E+04  0.00000000000E+00 0. -1.
          1    1    1    2  502    0  0.48282131977E+02 -0.18647423409E+01  0.25376335353E+04  0.25380934973E+04  0.00000000000E+00 0. -1.
         22    1    3    3    0    0 -0.10719639493E+03  0.10417542978E+03  0.21026330040E+03  0.25798108991E+03  0.00000000000E+00 0.  1.
         22    1    3    3    0    0  0.28335011901E+02 -0.29765770735E+01  0.57491183037E+02  0.64163611475E+02  0.00000000000E+00 0.  1.
</event>
<event>
 7    1  0.6330892E-006  0.3286280E+03  0.7818608E-02  0.1320167E+00
          2   -1    0    0  502    0  0.00000000000E+00  0.00000000000E+00  0.19512091634E+04  0.19512091634E+04  0.00000000000E+00 0. -1.
          1   -1    0    0  501    0 -0.00000000000E+00 -0.00000000000E+00 -0.41677107701E+03  0.41677107701E+03  0.00000000000E+00 0. -1.
         25    2    1    2    0    0  0.31748113238E+03 -0.60661649919E+02 -0.11837890566E+03  0.36621422557E+03  0.12500075407E+03 0.  0.
          2    1    1    2  501    0  0.88786914352E+01  0.19109984802E+02 -0.15896518360E+03  0.16035570547E+03  0.00000000000E+00 0. -1.
          1    1    1    2  502    0 -0.32635982381E+03  0.41551665116E+02  0.18117821757E+04  0.18414103094E+04  0.00000000000E+00 0. -1.
         22    1    3    3    0    0  0.11900378634E+03 -0.35667877963E+02 -0.11009646310E+03  0.16599798152E+03  0.00000000000E+00 0. -1.
         22    1    3    3    0    0  0.19847734604E+03 -0.24993771956E+02 -0.82824425584E+01  0.20021624405E+03  0.00000000000E+00 0. -1.
</event>
<event>
 7    1  0.6330892E-006  0.7452951E+02  0.7818608E-02  0.1455334E+00
          2   -1    0    0  502    0  0.00000000000E+00  0.00000000000E+00  0.17102957539E+04  0.17102957539E+04  0.00000000000E+00 0. -1.
          1   -1    0    0  501    0 -0.00000000000E+00 -0.00000000000E+00 -0.60349585945E+02  0.60349585945E+02  0.00000000000E+00 0. -1.
         25    2    1    2    0    0  0.14131372880E+02 -0.10215337572E+03  0.36519383665E+03  0.39953268272E+03  0.12499927347E+03 0.  0.
          2    1    1    2  501    0 -0.62808030729E+01  0.71994145161E+02 -0.12624141044E+02  0.73361940826E+02  0.00000000000E+00 0. -1.
          1    1    1    2  502    0 -0.78505698072E+01  0.30159230562E+02  0.12973764723E+04  0.12977507163E+04  0.00000000000E+00 0. -1.
         22    1    3    3    0    0 -0.53119418061E+02 -0.67785886004E+02  0.20860345781E+03  0.22568119445E+03  0.00000000000E+00 0. -1.
         22    1    3    3    0    0  0.67250790941E+02 -0.34367489719E+02  0.15659037883E+03  0.17385148827E+03  0.00000000000E+00 0. -1.
</event>
<event>
 7    1  0.6330892E-006  0.1474431E+03  0.7818608E-02  0.1357132E+00
          2   -1    0    0  502    0  0.00000000000E+00  0.00000000000E+00  0.32318137787E+04  0.32318137787E+04  0.00000000000E+00 0. -1.
          1   -1    0    0  501    0 -0.00000000000E+00 -0.00000000000E+00 -0.70235408541E+03  0.70235408541E+03  0.00000000000E+00 0. -1.
         25    2    1    2    0    0 -0.14325057179E+03 -0.29413570330E+02 -0.39689860576E+03  0.44106589831E+03  0.12499895584E+03 0.  0.
          2    1    1    2  501    0  0.95143376476E+01 -0.32716791233E+02 -0.28064721296E+03  0.28270792205E+03  0.00000000000E+00 0. -1.
          1    1    1    2  502    0  0.13373623414E+03  0.62130361564E+02  0.32070055120E+04  0.32103940437E+04  0.00000000000E+00 0. -1.
         22    1    3    3    0    0 -0.13429388663E+03 -0.58224926747E+02 -0.37828139153E+03  0.40561287117E+03  0.00000000000E+00 0.  1.
         22    1    3    3    0    0 -0.89566851648E+01  0.28811356417E+02 -0.18617214222E+02  0.35453027136E+02  0.00000000000E+00 0.  1.
</event>
<event>
 7    1  0.6330892E-006  0.4654836E+02  0.7818608E-02  0.1543054E+00
          2   -1    0    0  502    0  0.00000000000E+00  0.00000000000E+00  0.20246458579E+02  0.20246458579E+02  0.00000000000E+00 0. -1.
          1   -1    0    0  501    0 -0.00000000000E+00 -0.00000000000E+00 -0.13301775470E+04  0.13301775470E+04  0.00000000000E+00 0. -1.
         25    2    1    2    0    0  0.21259110904E+02  0.11894165192E+02 -0.37646780309E+03  0.39742484341E+03  0.12500031374E+03 0.  0.
          2    1    1    2  501    0  0.16149518192E+02  0.21981849189E+02 -0.87638404088E+03  0.87680841451E+03  0.00000000000E+00 0. -1.
          1    1    1    2  502    0 -0.37408629096E+02 -0.33876014381E+02 -0.57079244400E+02  0.76190747618E+02  0.00000000000E+00 0. -1.
         22    1    3    3    0    0 -0.36513786471E+02  0.35942855090E+02 -0.26205214831E+03  0.26701399564E+03  0.00000000000E+00 0. -1.
         22    1    3    3    0    0  0.57772897376E+02 -0.24048689898E+02 -0.11441565478E+03  0.13041084777E+03  0.00000000000E+00 0. -1.
</event>
<event>
 7    1  0.6330892E-006  0.1333134E+03  0.7818608E-02  0.1234446E+00
          2   -1    0    0  502    0  0.00000000000E+00  0.00000000000E+00  0.14196030465E+03  0.14196030465E+03  0.00000000000E+00 0. -1.
          1   -1    0    0  501    0 -0.00000000000E+00 -0.00000000000E+00 -0.11770709932E+04  0.11770709932E+04  0.00000000000E+00 0. -1.
         25    2    1    2    0    0 -0.90163004471E+02  0.15351484512E+03 -0.57797327006E+03  0.61755504908E+03  0.12499985074E+03 0.  0.
          2    1    1    2  501    0  0.12147422986E+03 -0.39791256139E+02 -0.54154805044E+03  0.55642935178E+03  0.00000000000E+00 0. -1.
          1    1    1    2  502    0 -0.31311225392E+02 -0.11372358899E+03  0.84410631982E+02  0.14504689696E+03  0.00000000000E+00 0. -1.
         22    1    3    3    0    0 -0.30997562001E+02  0.13463577459E+03 -0.26903052216E+03  0.30243191383E+03  0.00000000000E+00 0.  1.
         22    1    3    3    0    0 -0.59165442470E+02  0.18879070535E+02 -0.30894274790E+03  0.31512313525E+03  0.00000000000E+00 0.  1.
</event>
<event>
 7    1  0.6330892E-006  0.7365322E+02  0.7818608E-02  0.1366716E+00
          2   -1    0    0  502    0  0.00000000000E+00  0.00000000000E+00  0.85880567171E+03  0.85880567171E+03  0.00000000000E+00 0. -1.
          1   -1    0    0  501    0 -0.00000000000E+00 -0.00000000000E+00 -0.59577129627E+02  0.59577129627E+02  0.00000000000E+00 0. -1.
         25    2    1    2    0    0  0.53417081516E+01 -0.42966499315E+02  0.40557564931E+03  0.42660421776E+03  0.12499958956E+03 0.  0.
          2    1    1    2  501    0 -0.73501531983E+02  0.47245212475E+01 -0.15467679623E+02  0.75259852630E+02  0.00000000000E+00 0. -1.
          1    1    1    2  502    0  0.68159823832E+02  0.38241978068E+02  0.40912057239E+03  0.41651873094E+03  0.00000000000E+00 0. -1.
         22    1    3    3    0    0  0.17639607843E+02 -0.53142560785E+02  0.65572892272E+02  0.86226977986E+02  0.00000000000E+00 0. -1.
         22    1    3    3    0    0 -0.12297899691E+02  0.10176061470E+02  0.34000275704E+03  0.34037723978E+03  0.00000000000E+00 0. -1.
</event>
<event>
 7    1  0.6330892E-006  0.2599568E+03  0.7818608E-02  0.1251898E+00
          2   -1    0    0  502    0  0.00000000000E+00  0.00000000000E+00  0.17243209392E+04  0.17243209392E+04  0.00000000000E+00 0. -1.
          1   -1    0    0  501    0 -0.00000000000E+00 -0.00000000000E+00 -0.18959972225E+04  0.18959972225E+04  0.00000000000E+00 0. -1.
         25    2    1    2    0    0  0.26558481101E+03  0.29379790028E+02  0.48980067930E+03  0.57177606984E+03  0.12499881880E+03 0.  0.
          2    1    1    2  501    0 -0.25907139937E+03  0.20913638947E+02 -0.18453595632E+04  0.18635737945E+04  0.00000000000E+00 0. -1.
          1    1    1    2  502    0 -0.65134116393E+01 -0.50293428974E+02  0.11838826006E+04  0.11849682973E+04  0.00000000000E+00 0. -1.
         22    1    3    3    0    0  0.35554533143E+01  0.32461160215E+02  0.62678443094E+02  0.70674998404E+02  0.00000000000E+00 0.  1.
         22    1    3    3    0    0  0.26202935769E+03 -0.30813701872E+01  0.42712223620E+03  0.50110107144E+03  0.00000000000E+00 0.  1.
</event>
<event>
 7    1  0.6330892E-006  0.2540987E+03  0.7818608E-02  0.1273091E+00
          2   -1    0    0  502    0  0.00000000000E+00  0.00000000000E+00  0.27488873690E+04  0.27488873690E+04  0.00000000000E+00 0. -1.
          1   -1    0    0  501    0 -0.00000000000E+00 -0.00000000000E+00 -0.98030112074E+03  0.98030112074E+03  0.00000000000E+00 0. -1.
         25    2    1    2    0    0 -0.16368180069E+03  0.24638890353E+03 -0.84753960678E+03  0.90633774634E+03  0.12500200685E+03 0.  0.
          2    1    1    2  501    0  0.26225453474E+02 -0.33014358805E+02 -0.92868622995E+02  0.10199168316E+03  0.00000000000E+00 0. -1.
          1    1    1    2  502    0  0.13745634721E+03 -0.21337454472E+03  0.27089944780E+04  0.27208590603E+04  0.00000000000E+00 0. -1.
         22    1    3    3    0    0 -0.13262630819E+03  0.13383973538E+03 -0.65114510095E+03  0.67785894911E+03  0.00000000000E+00 0. -1.
         22    1    3    3    0    0 -0.31055492501E+02  0.11254916814E+03 -0.19639450582E+03  0.22847879723E+03  0.00000000000E+00 0. -1.
</event>
<event>
 7    1  0.6330892E-006  0.8852764E+02  0.7818608E-02  0.1424705E+00
          2   -1    0    0  502    0  0.00000000000E+00  0.00000000000E+00  0.13319718146E+04  0.13319718146E+04  0.00000000000E+00 0. -1.
          1   -1    0    0  501    0 -0.00000000000E+00 -0.00000000000E+00 -0.31657298706E+03  0.31657298706E+03  0.00000000000E+00 0. -1.
         25    2    1    2    0    0 -0.45602277128E+02  0.11145356847E+03  0.22872700610E+03  0.28712978304E+03  0.12500401348E+03 0.  0.
          2    1    1    2  501    0  0.36479020580E+02 -0.79755354664E+02 -0.28041945210E+03  0.29381406477E+03  0.00000000000E+00 0. -1.
          1    1    1    2  502    0  0.91232565475E+01 -0.31698213809E+02  0.10670912736E+04  0.10676009538E+04  0.00000000000E+00 0. -1.
         22    1    3    3    0    0 -0.71689993069E+02  0.86010449904E+02  0.89883292750E+02  0.14358363039E+03  0.00000000000E+00 0.  1.
         22    1    3    3    0    0  0.26087715941E+02  0.25443118568E+02  0.13884371335E+03  0.14354615266E+03  0.00000000000E+00 0.  1.
</event>
<event>
 7    1  0.6330892E-006  0.1806801E+03  0.7818608E-02  0.1308364E+00
          2   -1    0    0  502    0  0.00000000000E+00  0.00000000000E+00  0.32134786189E+03  0.32134786189E+03  0.00000000000E+00 0. -1.
          1   -1    0    0  501    0 -0.00000000000E+00 -0.00000000000E+00 -0.98549742373E+03  0.98549742373E+03  0.00000000000E+00 0. -1.
         25    2    1    2    0    0  0.19920082127E+03  0.48531220643E+01 -0.47988062925E+03  0.53443001213E+03  0.12500199820E+03 0.  0.
          2    1    1    2  501    0 -0.23869390513E+02  0.35319152226E+02 -0.44973377454E+03  0.45174955261E+03  0.00000000000E+00 0. -1.
          1    1    1    2  502    0 -0.17533143075E+03 -0.40172274291E+02  0.26546484195E+03  0.32066572087E+03  0.00000000000E+00 0. -1.
         22    1    3    3    0    0  0.11363685762E+02  0.34669745915E+02 -0.14289261676E+03  0.14747686110E+03  0.00000000000E+00 0.  1.
         22    1    3    3    0    0  0.18783713550E+03 -0.29816623851E+02 -0.33698801248E+03  0.38695315103E+03  0.00000000000E+00 0.  1.
</event>
<event>
 7    1  0.6330892E-006  0.3869991E+02  0.7818608E-02  0.1608612E+00
          2   -1    0    0  502    0  0.00000000000E+00  0.00000000000E+00  0.17204647242E+04  0.17204647242E+04  0.00000000000E+00 0. -1.
          1   -1    0    0  501    0 -0.00000000000E+00 -0.00000000000E+00 -0.10180675150E+03  0.10180675150E+03  0.00000000000E+00 0. -1.
         25    2    1    2    0    0 -0.32366642025E+02  0.17310706779E+02  0.53260696949E+03  0.54830922916E+03  0.12500226698E+03 0.  0.
          2    1    1    2  501    0  0.13733625561E+02  0.16975127417E+02 -0.92359694529E+02  0.94905640482E+02  0.00000000000E+00 0. -1.
          1    1    1    2  502    0  0.18633016464E+02 -0.34285834196E+02  0.11784106977E+04  0.11790566060E+04  0.00000000000E+00 0. -1.
         22    1    3    3    0    0  0.21793849952E+02  0.58368930927E+02  0.25123523180E+03  0.25884560203E+03  0.00000000000E+00 0. -1.
         22    1    3    3    0    0 -0.54160491977E+02 -0.41058224148E+02  0.28137173769E+03  0.28946362713E+03  0.00000000000E+00 0. -1.
</event>
<event>
 7    1  0.6330892E-006  0.1254426E+03  0.7818608E-02  0.1301977E+00
          2   -1    0    0  502    0  0.00000000000E+00  0.00000000000E+00  0.13174064327E+04  0.13174064327E+04  0.00000000000E+00 0. -1.
          1   -1    0    0  501    0 -0.00000000000E+00 -0.00000000000E+00 -0.14388396948E+04  0.14388396948E+04  0.00000000000E+00 0. -1.
         25    2    1    2    0    0 -0.16110943314E+03 -0.82604189274E+02  0.65348253344E+03  0.68952436590E+03  0.12499891251E+03 0.  0.
          2    1    1    2  501    0  0.96056133033E+02  0.80351166545E+02 -0.14164090597E+04  0.14219344975E+04  0.00000000000E+00 0. -1.
          1    1    1    2  502    0  0.65053300111E+02  0.22530227290E+01  0.64149326423E+03  0.64478726416E+03  0.00000000000E+00 0. -1.
         22    1    3    3    0    0 -0.38109345160E+02 -0.49725411614E+02  0.77587329103E+02  0.99723279058E+02  0.00000000000E+00 0.  1.
         22    1    3    3    0    0 -0.12300008798E+03 -0.32878777660E+02  0.57589520433E+03  0.58980108684E+03  0.00000000000E+00 0.  1.
</event>
<event>
 7    1  0.6330892E-006  0.2035832E+03  0.7818608E-02  0.1289118E+00
          2   -1    0    0  502    0  0.00000000000E+00  0.00000000000E+00  0.84423862481E+03  0.84423862481E+03  0.00000000000E+00 0. -1.
          1   -1    0    0  501    0 -0.00000000000E+00 -0.00000000000E+00 -0.13219046995E+04  0.13219046995E+04  0.00000000000E+00 0. -1.
         25    2    1    2    0    0  0.71724528409E+02  0.23455936913E+03 -0.52132909115E+02  0.28018759386E+03  0.12499896769E+03 0.  0.
          2    1    1    2  501    0 -0.11310033460E+02 -0.43754989963E+02 -0.11415750256E+04  0.11424692359E+04  0.00000000000E+00 0. -1.
          1    1    1    2  502    0 -0.60414494949E+02 -0.19080437916E+03  0.71604185998E+03  0.74348649454E+03  0.00000000000E+00 0. -1.
         22    1    3    3    0    0  0.44750095770E+02  0.16254075510E+03  0.25970630818E+02  0.17057708464E+03  0.00000000000E+00 0. -1.
         22    1    3    3    0    0  0.26974432639E+02  0.72018614030E+02 -0.78103539933E+02  0.10961050923E+03  0.00000000000E+00 0. -1.
</event>
<event>
 7    1  0.6330892E-006  0.8216748E+02  0.7818608E-02  0.1468901E+00
          2   -1    0    0  502    0  0.00000000000E+00  0.00000000000E+00  0.21636062061E+03  0.21636062061E+03  0.00000000000E+00 0. -1.
          1   -1    0    0  501    0 -0.00000000000E+00 -0.00000000000E+00 -0.13503996208E+04  0.13503996208E+04  0.00000000000E+00 0. -1.
         25    2    1    2    0    0  0.62885110264E+02  0.98608058354E+01 -0.90028415346E+03  0.91114677013E+03  0.12500042862E+03 0.  0.
          2    1    1    2  501    0  0.19151575235E+02 -0.17020542383E+02 -0.43625654887E+03  0.43700830442E+03  0.00000000000E+00 0. -1.
          1    1    1    2  502    0 -0.82036685499E+02  0.71597365481E+01  0.20250170216E+03  0.21860516685E+03  0.00000000000E+00 0. -1.
         22    1    3    3    0    0 -0.40487052051E+01  0.30018746783E+02 -0.66520958701E+03  0.66589887507E+03  0.00000000000E+00 0.  1.
         22    1    3    3    0    0  0.66933815469E+02 -0.20157940948E+02 -0.23507456646E+03  0.24524789506E+03  0.00000000000E+00 0.  1.
</event>
<event>
 7    1  0.6330892E-006  0.5898527E+02  0.7818608E-02  0.1451351E+00
          2   -1    0    0  502    0  0.00000000000E+00  0.00000000000E+00  0.39493945259E+03  0.39493945259E+03  0.00000000000E+00 0. -1.
          1   -1    0    0  501    0 -0.00000000000E+00 -0.00000000000E+00 -0.10841935025E+04  0.10841935025E+04  0.00000000000E+00 0. -1.
         25    2    1    2    0    0  0.66917838649E+02 -0.62965478189E+02 -0.24513774085E+03  0.29008887986E+03  0.12496558588E+03 0.  0.
          2    1    1    2  501    0 -0.28449110165E+02  0.50160740697E+02 -0.81445434799E+03  0.81649331701E+03  0.00000000000E+00 0. -1.
          1    1    1    2  502    0 -0.38468728484E+02  0.12804737492E+02  0.37033803893E+03  0.37255075822E+03  0.00000000000E+00 0. -1.
         22    1    3    3    0    0 -0.84821563976E+01 -0.21964735262E+02 -0.18205904127E+03  0.18357530084E+03  0.00000000000E+00 0.  1.
         22    1    3    3    0    0  0.75399995047E+02 -0.41000742928E+02 -0.63078699586E+02  0.10651357902E+03  0.00000000000E+00 0.  1.
</event>
<event>
 7    1  0.6330892E-006  0.6990578E+02  0.7818608E-02  0.1521890E+00
          2   -1    0    0  502    0  0.00000000000E+00  0.00000000000E+00  0.21136979091E+04  0.21136979091E+04  0.00000000000E+00 0. -1.
          1   -1    0    0  501    0 -0.00000000000E+00 -0.00000000000E+00 -0.12289851208E+03  0.12289851208E+03  0.00000000000E+00 0. -1.
         25    2    1    2    0    0 -0.78775509529E+02  0.40805306143E+02  0.62460283902E+03  0.64313657779E+03  0.12500118908E+03 0.  0.
          2    1    1    2  501    0  0.19996094709E+02 -0.59921920535E+01 -0.11187730360E+03  0.11380808947E+03  0.00000000000E+00 0. -1.
          1    1    1    2  502    0  0.58779414821E+02 -0.34813114089E+02  0.14780738616E+04  0.14796517539E+04  0.00000000000E+00 0. -1.
         22    1    3    3    0    0 -0.75667395931E+02  0.81440215923E+02  0.49249818242E+03  0.50488862461E+03  0.00000000000E+00 0. -1.
         22    1    3    3    0    0 -0.31081135982E+01 -0.40634909780E+02  0.13210465660E+03  0.13824795318E+03  0.00000000000E+00 0. -1.
</event>
<event>
 7    1  0.6330892E-006  0.3220823E+02  0.7818608E-02  0.1585169E+00
          2   -1    0    0  502    0  0.00000000000E+00  0.00000000000E+00  0.15075315101E+03  0.15075315101E+03  0.00000000000E+00 0. -1.
          1   -1    0    0  501    0 -0.00000000000E+00 -0.00000000000E+00 -0.30189527379E+03  0.30189527379E+03  0.00000000000E+00 0. -1.
         25    2    1    2    0    0  0.13173740947E+02  0.24705564577E+02 -0.10769971190E+03  0.16735730620E+03  0.12500131049E+03 0.  0.
          2    1    1    2  501    0  0.16800281905E+02 -0.28611559594E+02 -0.16075677642E+03  0.16414509429E+03  0.00000000000E+00 0. -1.
          1    1    1    2  502    0 -0.29974022853E+02  0.39059950166E+01  0.11731436555E+03  0.12114602431E+03  0.00000000000E+00 0. -1.
         22    1    3    3    0    0  0.88759779887E+01  0.62607075073E+02 -0.11235827968E+03  0.12892948401E+03  0.00000000000E+00 0. -1.
         22    1    3    3    0    0  0.42977629588E+01 -0.37901510496E+02  0.46585677825E+01  0.38427822188E+02  0.00000000000E+00 0. -1.
</event>
<event>
 7    1  0.6330892E-006  0.1238397E+03  0.7818608E-02  0.1276842E+00
          2   -1    0    0  502    0  0.00000000000E+00  0.00000000000E+00  0.17340291529E+04  0.17340291529E+04  0.00000000000E+00 0. -1.
          1   -1    0    0  501    0 -0.00000000000E+00 -0.00000000000E+00 -0.68798212853E+02  0.68798212853E+02  0.00000000000E+00 0. -1.
         25    2    1    2    0    0 -0.15163563420E+03  0.32682781868E+02  0.60888295535E+03  0.64064438169E+03  0.12500096272E+03 0.  0.
          2    1    1    2  501    0  0.87441334885E+02 -0.86008047021E+02  0.22164748002E+02  0.12463806502E+03  0.00000000000E+00 0. -1.
          1    1    1    2  502    0  0.64194299317E+02  0.53325265152E+02  0.10341832367E+04  0.10375449191E+04  0.00000000000E+00 0. -1.
         22    1    3    3    0    0  0.18961620793E+01  0.41748736764E+02  0.86086002820E+02  0.95694055894E+02  0.00000000000E+00 0. -1.
         22    1    3    3    0    0 -0.15353179628E+03 -0.90659548957E+01  0.52279695253E+03  0.54495032580E+03  0.00000000000E+00 0. -1.
</event>
<event>
 7    1  0.6330892E-006  0.1299907E+03  0.7818608E-02  0.1274479E+00
          2   -1    0    0  502    0  0.00000000000E+00  0.00000000000E+00  0.41188086785E+03  0.41188086785E+03  0.00000000000E+00 0. -1.
          1   -1    0    0  501    0 -0.00000000000E+00 -0.00000000000E+00 -0.40053176987E+03  0.40053176987E+03  0.00000000000E+00 0. -1.
         25    2    1    2    0    0 -0.83621033919E+02  0.95693747681E+02 -0.61831286237E+01  0.17836158927E+03  0.12499941916E+03 0.  0.
          2    1    1    2  501    0  0.13087849723E+03 -0.29507398813E+02 -0.28808746623E+03  0.31779593424E+03  0.00000000000E+00 0. -1.
          1    1    1    2  502    0 -0.47257463311E+02 -0.66186348869E+02  0.30561969283E+03  0.31625511421E+03  0.00000000000E+00 0. -1.
         22    1    3    3    0    0  0.99861263314E+00 -0.18139982131E+01  0.40889755109E+02  0.40942152967E+02  0.00000000000E+00 0. -1.
         22    1    3    3    0    0 -0.84619646552E+02  0.97507745894E+02 -0.47072883733E+02  0.13741943631E+03  0.00000000000E+00 0. -1.
</event>
<event>
 7    1  0.7282808E-006  0.6865185E+02  0.7818608E-02  0.1443259E+00
          2   -1    0    0  502    0  0.00000000000E+00  0.00000000000E+00  0.17720075375E+04  0.17720075375E+04  0.00000000000E+00 0. -1.
          1   -1    0    0  501    0 -0.00000000000E+00 -0.00000000000E+00 -0.56010921902E+03  0.56010921902E+03  0.00000000000E+00 0. -1.
         25    2    1    2    0    0 -0.14691149311E+02  0.85630053747E+02 -0.16076458190E+03  0.22140211023E+03  0.12500123058E+03 0.  0.
          2    1    1    2  501    0  0.31643304387E+02 -0.19143276652E+02 -0.36742144571E+03  0.36927805583E+03  0.00000000000E+00 0. -1.
          1    1    1    2  502    0 -0.16952155076E+02 -0.66486777095E+02  0.17400843461E+04  0.17414365905E+04  0.00000000000E+00 0. -1.
         22    1    3    3    0    0  0.52474113405E+01  0.11091463171E+03 -0.87492045586E+02  0.14136636408E+03  0.00000000000E+00 0.  1.
         22    1    3    3    0    0 -0.19938560652E+02 -0.25284577959E+02 -0.73272536317E+02  0.80035746150E+02  0.00000000000E+00 0.  1.
</event>
<event>
 7    1  0.6330892E-006  0.7566420E+02  0.7818608E-02  0.1461859E+00
          2   -1    0    0  502    0  0.00000000000E+00  0.00000000000E+00  0.22780266582E+03  0.22780266582E+03  0.00000000000E+00 0. -1.
          1   -1    0    0  501    0 -0.00000000000E+00 -0.00000000000E+00 -0.87239229315E+03  0.87239229315E+03  0.00000000000E+00 0. -1.
         25    2    1    2    0    0 -0.91684582689E+02 -0.83851302557E+01 -0.70139015424E+02  0.17035437344E+03  0.12499903182E+03 0.  0.
          2    1    1    2  501    0  0.18283062390E+02  0.22861428629E+02 -0.74397004375E+03  0.74454572814E+03  0.00000000000E+00 0. -1.
          1    1    1    2  502    0  0.73401520299E+02 -0.14476298374E+02  0.16951943185E+03  0.18529485738E+03  0.00000000000E+00 0. -1.
         22    1    3    3    0    0 -0.13039074408E+01  0.39729448421E+02  0.92256293708E+01  0.40807370458E+02  0.00000000000E+00 0.  1.
         22    1    3    3    0    0 -0.90380675248E+02 -0.48114578676E+02 -0.79364644794E+02  0.12954700299E+03  0.00000000000E+00 0.  1.
</event>
<event>
 7    1  0.6330892E-006  0.6154439E+02  0.7818608E-02  0.1425894E+00
          2   -1    0    0  502    0  0.00000000000E+00  0.00000000000E+00  0.49054368941E+03  0.49054368941E+03  0.00000000000E+00 0. -1.
          1   -1    0    0  501    0 -0.00000000000E+00 -0.00000000000E+00 -0.88783261571E+02  0.88783261571E+02  0.00000000000E+00 0. -1.
         25    2    1    2    0    0  0.14496517418E+02  0.64354582250E+02  0.18856475908E+03  0.23565465285E+03  0.12499914308E+03 0.  0.
          2    1    1    2  501    0 -0.51473875376E+02 -0.35313388972E+02 -0.47707763431E+02  0.78566061239E+02  0.00000000000E+00 0. -1.
          1    1    1    2  502    0  0.36977357958E+02 -0.29041193278E+02  0.26090343219E+03  0.26510623689E+03  0.00000000000E+00 0. -1.
         22    1    3    3    0    0  0.67769229362E+02  0.54933689997E+02  0.11687274194E+03  0.14584106607E+03  0.00000000000E+00 0.  1.
         22    1    3    3    0    0 -0.53272711944E+02  0.94208922529E+01  0.71692017142E+02  0.89813586782E+02  0.00000000000E+00 0.  1.
</event>
<event>
 7    1  0.6330892E-006  0.1075079E+03  0.7818608E-02  0.1349692E+00
          2   -1    0    0  502    0  0.00000000000E+00  0.00000000000E+00  0.18711187082E+03  0.18711187082E+03  0.00000000000E+00 0. -1.
          1   -1    0    0  501    0 -0.00000000000E+00 -0.00000000000E+00 -0.92652790646E+03  0.92652790646E+03  0.00000000000E+00 0. -1.
         25    2    1    2    0    0  0.51783716269E+02  0.10527729584E+03  0.12300917443E+01  0.17143959142E+03  0.12500063235E+03 0.  0.
          2    1    1    2  501    0 -0.83911393279E+02 -0.67259559222E+02 -0.83159608070E+03  0.83852072823E+03  0.00000000000E+00 0. -1.
          1    1    1    2  502    0  0.32127677009E+02 -0.38017736621E+02  0.90949953319E+02  0.10367945764E+03  0.00000000000E+00 0. -1.
         22    1    3    3    0    0  0.68608898255E+01  0.12239743995E+03 -0.64325151150E+01  0.12275822728E+03  0.00000000000E+00 0.  1.
         22    1    3    3    0    0  0.44922826444E+02 -0.17120144105E+02  0.76626068593E+01  0.48681364132E+02  0.00000000000E+00 0.  1.
</event>
<event>
 7    1  0.6330892E-006  0.6769051E+02  0.7818608E-02  0.1368540E+00
          2   -1    0    0  502    0  0.00000000000E+00  0.00000000000E+00  0.24994442396E+04  0.24994442396E+04  0.00000000000E+00 0. -1.
          1   -1    0    0  501    0 -0.00000000000E+00 -0.00000000000E+00 -0.14093463432E+04  0.14093463432E+04  0.00000000000E+00 0. -1.
         25    2    1    2    0    0 -0.25102049201E+02  0.36124967603E+02  0.48108160557E+03  0.49899873619E+03  0.12500040535E+03 0.  0.
          2    1    1    2  501    0 -0.44209267355E+02 -0.51259590447E+02 -0.13989429730E+04  0.14005796824E+04  0.00000000000E+00 0. -1.
          1    1    1    2  502    0  0.69311316556E+02  0.15134622844E+02  0.20079592638E+04  0.20092121642E+04  0.00000000000E+00 0. -1.
         22    1    3    3    0    0 -0.45617733244E+02  0.33850830168E+02  0.84137720609E+02  0.10151853190E+03  0.00000000000E+00 0. -1.
         22    1    3    3    0    0  0.20515684043E+02  0.22741374348E+01  0.39694388497E+03  0.39748020429E+03  0.00000000000E+00 0. -1.
</event>
<event>
 7    1  0.6330892E-006  0.1073887E+03  0.7818608E-02  0.1343736E+00
          2   -1    0    0  502    0  0.00000000000E+00  0.00000000000E+00  0.11093787203E+04  0.11093787203E+04  0.00000000000E+00 0. -1.
          1   -1    0    0  501    0 -0.00000000000E+00 -0.00000000000E+00 -0.52915141346E+03  0.52915141346E+03  0.00000000000E+00 0. -1.
         25    2    1    2    0    0 -0.13866164163E+03  0.15473120083E+01  0.37502895448E+03  0.41892802568E+03  0.12499811586E+03 0.  0.
          2    1    1    2  501    0  0.10033455692E+03 -0.37339160640E+02 -0.50056899041E+03  0.51188919738E+03  0.00000000000E+00 0. -1.
          1    1    1    2  502    0  0.38327084710E+02  0.35791848632E+02  0.70576734278E+03  0.70771291071E+03  0.00000000000E+00 0. -1.
         22    1    3    3    0    0 -0.14484606236E+03 -0.24357198109E+02  0.24062963782E+03  0.28191537290E+03  0.00000000000E+00 0.  1.
         22    1    3    3    0    0  0.61844207222E+01  0.25904510117E+02  0.13439931665E+03  0.13701265278E+03  0.00000000000E+00 0.  1.
</event>
<event>
 7    1  0.6330892E-006  0.1278532E+03  0.7818608E-02  0.1360938E+00
          2   -1    0    0  502    0  0.00000000000E+00  0.00000000000E+00  0.22349144609E+04  0.22349144609E+04  0.00000000000E+00 0. -1.
          1   -1    0    0  501    0 -0.00000000000E+00 -0.00000000000E+00 -0.11643033190E+03  0.11643033190E+03  0.00000000000E+00 0. -1.
         25    2    1    2    0    0 -0.89956967488E+02  0.48068663554E+02  0.80263479946E+03  0.81868836572E+03  0.12500066581E+03 0.  0.
          2    1    1    2  501    0  0.12491567251E+03 -0.33035021410E+02 -0.69546740722E+02  0.14673781729E+03  0.00000000000E+00 0. -1.
          1    1    1    2  502    0 -0.34958705023E+02 -0.15033642145E+02  0.13853960702E+04  0.13859186098E+04  0.00000000000E+00 0. -1.
         22    1    3    3    0    0  0.10326416295E+02  0.16565736762E+02  0.45715004478E+03  0.45756663116E+03  0.00000000000E+00 0.  1.
         22    1    3    3    0    0 -0.10028338378E+03  0.31502926792E+02  0.34548475468E+03  0.36112173456E+03  0.00000000000E+00 0.  1.
</event>
<event>
 7    1  0.6330892E-006  0.1018772E+03  0.7818608E-02  0.1282631E+00
          2   -1    0    0  502    0  0.00000000000E+00  0.00000000000E+00  0.52184055489E+03  0.52184055489E+03  0.00000000000E+00 0. -1.
          1   -1    0    0  501    0 -0.00000000000E+00 -0.00000000000E+00 -0.55179037589E+03  0.55179037589E+03  0.00000000000E+00 0. -1.
         25    2    1    2    0    0 -0.11411118804E+02 -0.49309505577E+01 -0.27855481367E+02  0.12867177961E+03  0.12500388442E+03 0.  0.
          2    1    1    2  501    0  0.82544463524E+02 -0.68000590390E+02 -0.46184000635E+03  0.47406103006E+03  0.00000000000E+00 0. -1.
          1    1    1    2  502    0 -0.71133344720E+02  0.72931540948E+02  0.45974566672E+03  0.47089812111E+03  0.00000000000E+00 0. -1.
         22    1    3    3    0    0 -0.15181497299E+02 -0.64246795132E+02 -0.17985663216E+02  0.68422310881E+02  0.00000000000E+00 0.  1.
         22    1    3    3    0    0  0.37703784943E+01  0.59315844575E+02 -0.98698181506E+01  0.60249468727E+02  0.00000000000E+00 0.  1.
</event>
<event>
 7    1  0.6330892E-006  0.9753892E+02  0.7818608E-02  0.1319766E+00
          2   -1    0    0  502    0  0.00000000000E+00  0.00000000000E+00  0.19885678931E+04  0.19885678931E+04  0.00000000000E+00 0. -1.
          1   -1    0    0  501    0 -0.00000000000E+00 -0.00000000000E+00 -0.33498676966E+03  0.33498676966E+03  0.00000000000E+00 0. -1.
         25    2    1    2    0    0  0.15966593264E+03  0.45104433710E+02 -0.24705082410E+02  0.20918936590E+03  0.12498891840E+03 0.  0.
          2    1    1    2  501    0 -0.63751867011E+02 -0.31815275040E+02 -0.21094570712E+03  0.22265355067E+03  0.00000000000E+00 0. -1.
          1    1    1    2  502    0 -0.95914065630E+02 -0.13289158670E+02  0.18892319130E+04  0.18917117462E+04  0.00000000000E+00 0. -1.
         22    1    3    3    0    0  0.13890238242E+03  0.79911925631E+02 -0.41153053714E+02  0.16544896957E+03  0.00000000000E+00 0.  1.
         22    1    3    3    0    0  0.20763550216E+02 -0.34807491921E+02  0.16447971304E+02  0.43740396334E+02  0.00000000000E+00 0.  1.
</event>
<event>
 7    1  0.6330892E-006  0.4892291E+02  0.7818608E-02  0.1459715E+00
          2   -1    0    0  502    0  0.00000000000E+00  0.00000000000E+00  0.20115442580E+04  0.20115442580E+04  0.00000000000E+00 0. -1.
          1   -1    0    0  501    0 -0.00000000000E+00 -0.00000000000E+00 -0.41403116144E+03  0.41403116144E+03  0.00000000000E+00 0. -1.
         25    2    1    2    0    0 -0.20348578051E+02 -0.15317572353E+02 -0.38550312131E+02  0.13326322126E+03  0.12499706766E+03 0.  0.
          2    1    1    2  501    0  0.32916990610E+02 -0.32108523227E+02 -0.32620521036E+03  0.32943030340E+03  0.00000000000E+00 0. -1.
          1    1    1    2  502    0 -0.12568412560E+02  0.47426095580E+02  0.19622686190E+04  0.19628818948E+04  0.00000000000E+00 0. -1.
         22    1    3    3    0    0  0.45097246598E+02 -0.40250036049E+01  0.15268194784E+02  0.47781587214E+02  0.00000000000E+00 0.  1.
         22    1    3    3    0    0 -0.65445824649E+02 -0.11292568748E+02 -0.53818506915E+02  0.85481634048E+02  0.00000000000E+00 0.  1.
</event>
<event>
 7    1  0.6330892E-006  0.4567865E+02  0.7818608E-02  0.1499974E+00
          2   -1    0    0  502    0  0.00000000000E+00  0.00000000000E+00  0.20106164813E+03  0.20106164813E+03  0.00000000000E+00 0. -1.
          1   -1    0    0  501    0 -0.00000000000E+00 -0.00000000000E+00 -0.19675372493E+03  0.19675372493E+03  0.00000000000E+00 0. -1.
         25    2    1    2    0    0 -0.58290102687E+02 -0.54189508682E+02 -0.33555220963E+02  0.15194938410E+03  0.12501369346E+03 0.  0.
          2    1    1    2  501    0  0.28164224542E+02  0.32613214649E+02 -0.96927606764E+02  0.10607453166E+03  0.00000000000E+00 0. -1.
          1    1    1    2  502    0  0.30125878145E+02  0.21576294033E+02  0.13479075093E+03  0.13979145730E+03  0.00000000000E+00 0. -1.
         22    1    3    3    0    0 -0.37929700205E+02 -0.12462934184E+02 -0.78033171750E+02  0.87653652403E+02  0.00000000000E+00 0.  1.
         22    1    3    3    0    0 -0.20360402481E+02 -0.41726574497E+02  0.44477950787E+02  0.64295731699E+02  0.00000000000E+00 0.  1.
</event>
<event>
 7    1  0.6330892E-006  0.6987513E+02  0.7818608E-02  0.1435530E+00
          2   -1    0    0  502    0  0.00000000000E+00  0.00000000000E+00  0.22571366668E+04  0.22571366668E+04  0.00000000000E+00 0. -1.
          1   -1    0    0  501    0 -0.00000000000E+00 -0.00000000000E+00 -0.41526876572E+03  0.41526876572E+03  0.00000000000E+00 0. -1.
         25    2    1    2    0    0 -0.24853173730E+02  0.90219201457E+02 -0.90690568440E+02  0.18057152005E+03  0.12499644032E+03 0.  0.
          2    1    1    2  501    0 -0.17151717990E+02 -0.34466361520E+02 -0.27775907317E+03  0.28041436168E+03  0.00000000000E+00 0. -1.
          1    1    1    2  502    0  0.42004891720E+02 -0.55752839937E+02  0.22103175427E+04  0.22114195508E+04  0.00000000000E+00 0. -1.
         22    1    3    3    0    0  0.13062275863E+02  0.44428781565E+02 -0.10894738280E+03  0.11838104536E+03  0.00000000000E+00 0. -1.
         22    1    3    3    0    0 -0.37915449593E+02  0.45790419893E+02  0.18256814358E+02  0.62190474691E+02  0.00000000000E+00 0. -1.
</event>
<event>
 7    1  0.6330892E-006  0.4232259E+02  0.7818608E-02  0.1506535E+00
          2   -1    0    0  502    0  0.00000000000E+00  0.00000000000E+00  0.10954688291E+04  0.10954688291E+04  0.00000000000E+00 0. -1.
          1   -1    0    0  501    0 -0.00000000000E+00 -0.00000000000E+00 -0.58678107684E+03  0.58678107684E+03  0.00000000000E+00 0. -1.
         25    2    1    2    0    0 -0.60089043861E+02  0.48195304461E+02 -0.11120833234E+03  0.18418926548E+03  0.12499964709E+03 0.  0.
          2    1    1    2  501    0  0.37724562817E+02 -0.17179128671E+02 -0.43775767569E+03  0.43971587158E+03  0.00000000000E+00 0. -1.
          1    1    1    2  502    0  0.22364481045E+02 -0.31016175790E+02  0.10576537603E+04  0.10583447689E+04  0.00000000000E+00 0. -1.
         22    1    3    3    0    0 -0.39673163934E+02 -0.33345433547E+02 -0.10268941969E+02  0.52833029859E+02  0.00000000000E+00 0. -1.
         22    1    3    3    0    0 -0.20415879927E+02  0.81540738008E+02 -0.10093939037E+03  0.13135623562E+03  0.00000000000E+00 0. -1.
</event>
<event>
 7    1  0.6330892E-006  0.6516909E+02  0.7818608E-02  0.1442662E+00
          2   -1    0    0  502    0  0.00000000000E+00  0.00000000000E+00  0.16178126627E+04  0.16178126627E+04  0.00000000000E+00 0. -1.
          1   -1    0    0  501    0 -0.00000000000E+00 -0.00000000000E+00 -0.39354444189E+03  0.39354444189E+03  0.00000000000E+00 0. -1.
         25    2    1    2    0    0 -0.18816639269E+02  0.89070935437E+02  0.25373371479E+03  0.29715274854E+03  0.12502503945E+03 0.  0.
          2    1    1    2  501    0 -0.11224236512E+02 -0.63992127507E+02 -0.36870899580E+03  0.37438923523E+03  0.00000000000E+00 0. -1.
          1    1    1    2  502    0  0.30040875781E+02 -0.25078807930E+02  0.13392435019E+04  0.13398151209E+04  0.00000000000E+00 0. -1.
         22    1    3    3    0    0  0.46472181990E+02  0.73481597348E+02  0.15591774604E+03  0.17852045367E+03  0.00000000000E+00 0. -1.
         22    1    3    3    0    0 -0.65288821259E+02  0.15589338089E+02  0.97815968748E+02  0.11863229487E+03  0.00000000000E+00 0. -1.
</event>
<event>
 7    1  0.6330892E-006  0.8817614E+02  0.7818608E-02  0.1382899E+00
          2   -1    0    0  502    0  0.00000000000E+00  0.00000000000E+00  0.24442170000E+03  0.24442170000E+03  0.00000000000E+00 0. -1.
          1   -1    0    0  501    0 -0.00000000000E+00 -0.00000000000E+00 -0.90531129112E+03  0.90531129112E+03  0.00000000000E+00 0. -1.
         25    2    1    2    0    0 -0.23598418912E+02 -0.42887816149E+02 -0.75795109974E+02  0.15416622659E+03  0.12500430623E+03 0.  0.
          2    1    1    2  501    0  0.66582314661E+00 -0.46024636813E+02 -0.77934720126E+03  0.78070530332E+03  0.00000000000E+00 0. -1.
          1    1    1    2  502    0  0.22932595766E+02  0.88912452961E+02  0.19425272012E+03  0.21486146121E+03  0.00000000000E+00 0. -1.
         22    1    3    3    0    0  0.27677364118E+02 -0.57097389073E+02 -0.78441619756E+02  0.10089220006E+03  0.00000000000E+00 0.  1.
         22    1    3    3    0    0 -0.51275783031E+02  0.14209572924E+02  0.26465097817E+01  0.53274026524E+02  0.00000000000E+00 0.  1.
</event>
<event>
 7    1  0.8672162E-006  0.1095544E+03  0.7818608E-02  0.1364339E+00
          2   -1    0    0  502    0  0.00000000000E+00  0.00000000000E+00  0.18948074085E+04  0.18948074085E+04  0.00000000000E+00 0. -1.
          1   -1    0    0  501    0 -0.00000000000E+00 -0.00000000000E+00 -0.92810891510E+03  0.92810891510E+03  0.00000000000E+00 0. -1.
         25    2    1    2    0    0  0.60533512782E+02 -0.31558045808E+02 -0.11135042226E+03  0.18078497825E+03  0.12499630153E+03 0.  0.
          2    1    1    2  501    0  0.42655375379E+02 -0.66067310598E+01 -0.77981698262E+03  0.78101066339E+03  0.00000000000E+00 0. -1.
          1    1    1    2  502    0 -0.10318888816E+03  0.38164776868E+02  0.18578658983E+04  0.18611206820E+04  0.00000000000E+00 0. -1.
         22    1    3    3    0    0 -0.34539974589E+02  0.89348052625E+01 -0.12561125072E+02  0.37823570069E+02  0.00000000000E+00 0. -1.
         22    1    3    3    0    0  0.95073487371E+02 -0.40492851071E+02 -0.98789297189E+02  0.14296140818E+03  0.00000000000E+00 0. -1.
</event>
<event>
 7    1  0.6330892E-006  0.6615180E+02  0.7818608E-02  0.1477129E+00
          2   -1    0    0  502    0  0.00000000000E+00  0.00000000000E+00  0.24392157892E+04  0.24392157892E+04  0.00000000000E+00 0. -1.
          1   -1    0    0  501    0 -0.00000000000E+00 -0.00000000000E+00 -0.11102352819E+03  0.11102352819E+03  0.00000000000E+00 0. -1.
         25    2    1    2    0    0 -0.30867841959E+02 -0.67475757998E+02  0.72574901467E+03  0.74016277052E+03  0.12499397182E+03 0.  0.
          2    1    1    2  501    0  0.49445502533E+02  0.43905851822E+02 -0.93140802459E+02  0.11422692602E+03  0.00000000000E+00 0. -1.
          1    1    1    2  502    0 -0.18577660575E+02  0.23569906176E+02  0.16955840488E+04  0.16958496208E+04  0.00000000000E+00 0. -1.
         22    1    3    3    0    0 -0.93171749949E+01  0.34626608071E+02  0.11183354358E+03  0.11744170131E+03  0.00000000000E+00 0. -1.
         22    1    3    3    0    0 -0.21550666964E+02 -0.10210236607E+03  0.61391547108E+03  0.62272106921E+03  0.00000000000E+00 0. -1.
</event>
<event>
 7    1  0.6330892E-006  0.1325785E+03  0.7818608E-02  0.1373503E+00
          2   -1    0    0  502    0  0.00000000000E+00  0.00000000000E+00  0.12400676011E+04  0.12400676011E+04  0.00000000000E+00 0. -1.
          1   -1    0    0  501    0 -0.00000000000E+00 -0.00000000000E+00 -0.42392535550E+03  0.42392535550E+03  0.00000000000E+00 0. -1.
         25    2    1    2    0    0  0.10431832390E+03  0.17738806988E+02  0.18463042043E+03  0.24679936394E+03  0.12499822366E+03 0.  0.
          2    1    1    2  501    0  0.27329786168E+02  0.18599329024E+02 -0.38758204934E+03  0.38898932790E+03  0.00000000000E+00 0. -1.
          1    1    1    2  502    0 -0.13164811007E+03 -0.36338136012E+02  0.10190938746E+04  0.10282042648E+04  0.00000000000E+00 0. -1.
         22    1    3    3    0    0  0.12604980770E+03  0.17151204158E+01  0.10954810758E+03  0.16700983065E+03  0.00000000000E+00 0. -1.
         22    1    3    3    0    0 -0.21731483800E+02  0.16023686572E+02  0.75082312853E+02  0.79789533291E+02  0.00000000000E+00 0. -1.
</event>
<event>
 7    1  0.6330892E-006  0.5409057E+02  0.7818608E-02  0.1424746E+00
          2   -1    0    0  502    0  0.00000000000E+00  0.00000000000E+00  0.12685287837E+04  0.12685287837E+04  0.00000000000E+00 0. -1.
          1   -1    0    0  501    0 -0.00000000000E+00 -0.00000000000E+00 -0.26198541904E+04  0.26198541904E+04  0.00000000000E+00 0. -1.
         25    2    1    2    0    0 -0.10774655965E+03  0.76274824429E+01  0.62118465505E+03  0.64277740608E+03  0.12499967397E+03 0.  0.
          2    1    1    2  501    0  0.53992926035E+02 -0.28227750264E+01 -0.26076332061E+04  0.26081936550E+04  0.00000000000E+00 0. -1.
          1    1    1    2  502    0  0.53753633612E+02 -0.48047074166E+01  0.63512314434E+03  0.63741191299E+03  0.00000000000E+00 0. -1.
         22    1    3    3    0    0  0.16495664508E+02 -0.84253417512E+01  0.15147579472E+02  0.23927860227E+02  0.00000000000E+00 0. -1.
         22    1    3    3    0    0 -0.12424222415E+03  0.16052824194E+02  0.60603707558E+03  0.61884954586E+03  0.00000000000E+00 0. -1.
</event>
<event>
 7    1  0.6330892E-006  0.2244569E+03  0.7818608E-02  0.1227903E+00
          2   -1    0    0  502    0  0.00000000000E+00  0.00000000000E+00  0.17911763069E+04  0.17911763069E+04  0.00000000000E+00 0. -1.
          1   -1    0    0  501    0 -0.00000000000E+00 -0.00000000000E+00 -0.59084415361E+03  0.59084415361E+03  0.00000000000E+00 0. -1.
         25    2    1    2    0    0 -0.15825440917E+03  0.19057439408E+02  0.41107038933E+02  0.20669465455E+03  0.12500099020E+03 0.  0.
          2    1    1    2  501    0 -0.72592186085E+02 -0.18630896887E+02 -0.49723812555E+03  0.50285434203E+03  0.00000000000E+00 0. -1.
          1    1    1    2  502    0  0.23084659526E+03 -0.42654252134E+00  0.16564632399E+04  0.16724714639E+04  0.00000000000E+00 0. -1.
         22    1    3    3    0    0 -0.88759651227E+02 -0.47735932925E+02  0.44673830049E+02  0.11023949415E+03  0.00000000000E+00 0.  1.
         22    1    3    3    0    0 -0.69494757947E+02  0.66793372333E+02 -0.35667911160E+01  0.96455160404E+02  0.00000000000E+00 0.  1.
</event>
<event>
 7    1  0.6330892E-006  0.9312742E+02  0.7818608E-02  0.1365257E+00
          2   -1    0    0  502    0  0.00000000000E+00  0.00000000000E+00  0.63715854651E+03  0.63715854651E+03  0.00000000000E+00 0. -1.
          1   -1    0    0  501    0 -0.00000000000E+00 -0.00000000000E+00 -0.22849480237E+04  0.22849480237E+04  0.00000000000E+00 0. -1.
         25    2    1    2    0    0 -0.70417972629E+02 -0.76587364213E+02 -0.45638132206E+02  0.16891469637E+03  0.12500008125E+03 0.  0.
          2    1    1    2  501    0  0.88363206589E+02  0.29500418157E+02 -0.21755698973E+04  0.21775634799E+04  0.00000000000E+00 0. -1.
          1    1    1    2  502    0 -0.17945233960E+02  0.47086946056E+02  0.57341855226E+03  0.57562839401E+03  0.00000000000E+00 0. -1.
         22    1    3    3    0    0 -0.55059148341E+02 -0.21428991779E+01  0.29101036831E+02  0.62313499160E+02  0.00000000000E+00 0.  1.
         22    1    3    3    0    0 -0.15358824288E+02 -0.74444465035E+02 -0.74739169036E+02  0.10660119721E+03  0.00000000000E+00 0.  1.
</event>
<event>
 7    1  0.6330892E-006  0.7341553E+02  0.7818608E-02  0.1437071E+00
          2   -1    0    0  502    0  0.00000000000E+00  0.00000000000E+00  0.24857952291E+04  0.24857952291E+04  0.00000000000E+00 0. -1.
          1   -1    0    0  501    0 -0.00000000000E+00 -0.00000000000E+00 -0.33850679010E+03  0.33850679010E+03  0.00000000000E+00 0. -1.
         25    2    1    2    0    0  0.14576146820E+02 -0.37003659136E+02  0.19747451128E+03  0.23707112131E+03  0.12499919645E+03 0.  0.
          2    1    1    2  501    0  0.25360096983E+02 -0.25860285731E+02 -0.31706588556E+03  0.31912797540E+03  0.00000000000E+00 0. -1.
          1    1    1    2  502    0 -0.39936243803E+02  0.62863944867E+02  0.22668798133E+04  0.22681029225E+04  0.00000000000E+00 0. -1.
         22    1    3    3    0    0 -0.41314195480E+02 -0.19771151837E+02  0.19583839830E+02  0.49812528300E+02  0.00000000000E+00 0. -1.
         22    1    3    3    0    0  0.55890342300E+02 -0.17232507299E+02  0.17789067145E+03  0.18725859301E+03  0.00000000000E+00 0. -1.
</event>
<event>
 7    1  0.6330892E-006  0.2506155E+02  0.7818608E-02  0.1697180E+00
          2   -1    0    0  502    0  0.00000000000E+00  0.00000000000E+00  0.90263444940E+03  0.90263444940E+03  0.00000000000E+00 0. -1.
          1   -1    0    0  501    0 -0.00000000000E+00 -0.00000000000E+00 -0.94277938873E+03  0.94277938873E+03  0.00000000000E+00 0. -1.
         25    2    1    2    0    0 -0.18424526805E+02 -0.66733966881E+01 -0.43358158523E+03  0.45166551367E+03  0.12499899112E+03 0.  0.
          2    1    1    2  501    0  0.11004159225E+02 -0.17269926929E+02 -0.49977032698E+03  0.50018968565E+03  0.00000000000E+00 0. -1.
          1    1    1    2  502    0  0.74203675797E+01  0.23943323617E+02  0.89320697287E+03  0.89355863881E+03  0.00000000000E+00 0. -1.
         22    1    3    3    0    0  0.22707716102E+02  0.24179186013E+02 -0.29698692832E+02  0.44522867863E+02  0.00000000000E+00 0.  1.
         22    1    3    3    0    0 -0.41132242906E+02 -0.30852582701E+02 -0.40388289240E+03  0.40714264581E+03  0.00000000000E+00 0.  1.
</event>
<event>
 7    1  0.6330892E-006  0.9677741E+02  0.7818608E-02  0.1294982E+00
          2   -1    0    0  502    0  0.00000000000E+00  0.00000000000E+00  0.43383954018E+03  0.43383954018E+03  0.00000000000E+00 0. -1.
          1   -1    0    0  501    0 -0.00000000000E+00 -0.00000000000E+00 -0.65960396763E+03  0.65960396763E+03  0.00000000000E+00 0. -1.
         25    2    1    2    0    0 -0.64491602962E+02  0.55575293888E+02  0.19470321406E+03  0.24653842171E+03  0.12499628662E+03 0.  0.
          2    1    1    2  501    0 -0.15721357701E+02 -0.96402077721E+02 -0.62019235078E+03  0.62783682087E+03  0.00000000000E+00 0. -1.
          1    1    1    2  502    0  0.80212960662E+02  0.40826783832E+02  0.19972470927E+03  0.21906826523E+03  0.00000000000E+00 0. -1.
         22    1    3    3    0    0 -0.89394651834E+01  0.78061013119E+02  0.59211054979E+02  0.98383864727E+02  0.00000000000E+00 0. -1.
         22    1    3    3    0    0 -0.55552137779E+02 -0.22485719231E+02  0.13549215908E+03  0.14815455698E+03  0.00000000000E+00 0. -1.
</event>
<event>
 7    1  0.6330892E-006  0.1743711E+03  0.7818608E-02  0.1353539E+00
          2   -1    0    0  502    0  0.00000000000E+00  0.00000000000E+00  0.18113598165E+04  0.18113598165E+04  0.00000000000E+00 0. -1.
          1   -1    0    0  501    0 -0.00000000000E+00 -0.00000000000E+00 -0.30026576968E+03  0.30026576968E+03  0.00000000000E+00 0. -1.
         25    2    1    2    0    0 -0.31277516533E+02 -0.20021069013E+03  0.52042097842E+03  0.57230102577E+03  0.12501146280E+03 0.  0.
          2    1    1    2  501    0  0.25685447950E+02  0.17104193747E+03 -0.24686748419E+03  0.30142767186E+03  0.00000000000E+00 0. -1.
          1    1    1    2  502    0  0.55920685830E+01  0.29168752654E+02  0.12375405526E+04  0.12378968885E+04  0.00000000000E+00 0. -1.
         22    1    3    3    0    0 -0.50615944436E+02 -0.15052499445E+03  0.24641055339E+03  0.29315168191E+03  0.00000000000E+00 0. -1.
         22    1    3    3    0    0  0.19338427903E+02 -0.49685695672E+02  0.27401042503E+03  0.27914934386E+03  0.00000000000E+00 0. -1.
</event>
<event>
 7    1  0.6330892E-006  0.1633057E+03  0.7818608E-02  0.1279755E+00
          2   -1    0    0  502    0  0.00000000000E+00  0.00000000000E+00  0.84658629891E+03  0.84658629891E+03  0.00000000000E+00 0. -1.
          1   -1    0    0  501    0 -0.00000000000E+00 -0.00000000000E+00 -0.18827206549E+04  0.18827206549E+04  0.00000000000E+00 0. -1.
         25    2    1    2    0    0 -0.86817714308E+02  0.14363077328E+03 -0.37543674499E+03  0.42981942586E+03  0.12499949924E+03 0.  0.
          2    1    1    2  501    0 -0.42873575001E+02 -0.44163243424E+02 -0.14712922924E+04  0.14725792152E+04  0.00000000000E+00 0. -1.
          1    1    1    2  502    0  0.12969128931E+03 -0.99467529852E+02  0.81059468143E+03  0.82690831268E+03  0.00000000000E+00 0. -1.
         22    1    3    3    0    0 -0.30778553703E+02  0.12481449041E+03 -0.33327959147E+03  0.35721318911E+03  0.00000000000E+00 0. -1.
         22    1    3    3    0    0 -0.56039160604E+02  0.18816282867E+02 -0.42157153521E+02  0.72606236751E+02  0.00000000000E+00 0. -1.
</event>
<event>
 7    1  0.6330892E-006  0.7858803E+02  0.7818608E-02  0.1394709E+00
          2   -1    0    0  502    0  0.00000000000E+00  0.00000000000E+00  0.64823107511E+03  0.64823107511E+03  0.00000000000E+00 0. -1.
          1   -1    0    0  501    0 -0.00000000000E+00 -0.00000000000E+00 -0.35178373578E+03  0.35178373578E+03  0.00000000000E+00 0. -1.
         25    2    1    2    0    0 -0.48996844491E+02 -0.10525792696E+03 -0.17184676272E+03  0.24214816299E+03  0.12499800407E+03 0.  0.
          2    1    1    2  501    0  0.37795488365E+02  0.27872593238E+02 -0.13840213755E+03  0.14615242753E+03  0.00000000000E+00 0. -1.
          1    1    1    2  502    0  0.11201356125E+02  0.77385333724E+02  0.60669623961E+03  0.61171422037E+03  0.00000000000E+00 0. -1.
         22    1    3    3    0    0  0.41984477880E+02 -0.36480279678E+02 -0.68504525886E+02  0.88240451354E+02  0.00000000000E+00 0.  1.
         22    1    3    3    0    0 -0.90981322371E+02 -0.68777647283E+02 -0.10334223684E+03  0.15390771164E+03  0.00000000000E+00 0.  1.
</event>
<event>
 7    1  0.6330892E-006  0.5498629E+02  0.7818608E-02  0.1525438E+00
          2   -1    0    0  502    0  0.00000000000E+00  0.00000000000E+00  0.37311645828E+03  0.37311645828E+03  0.00000000000E+00 0. -1.
          1   -1    0    0  501    0 -0.00000000000E+00 -0.00000000000E+00 -0.11967628334E+04  0.11967628334E+04  0.00000000000E+00 0. -1.
         25    2    1    2    0    0  0.72137070157E+02 -0.28468207687E+02 -0.44896483193E+03  0.47244863166E+03  0.12499637397E+03 0.  0.
          2    1    1    2  501    0 -0.46321722493E+02  0.26147982431E+02 -0.73462848220E+03  0.73655171293E+03  0.00000000000E+00 0. -1.
          1    1    1    2  502    0 -0.25815347664E+02  0.23202252560E+01  0.35994693896E+03  0.36087894714E+03  0.00000000000E+00 0. -1.
         22    1    3    3    0    0  0.65163337306E+00 -0.29427896919E+02 -0.34512534009E+03  0.34637829914E+03  0.00000000000E+00 0.  1.
         22    1    3    3    0    0  0.71485436784E+02  0.95968923231E+00 -0.10383949184E+03  0.12607033251E+03  0.00000000000E+00 0.  1.
</event>
<event>
 7    1  0.6330892E-006  0.1027548E+03  0.7818608E-02  0.1355544E+00
          2   -1    0    0  502    0  0.00000000000E+00  0.00000000000E+00  0.13451649581E+04  0.13451649581E+04  0.00000000000E+00 0. -1.
          1   -1    0    0  501    0 -0.00000000000E+00 -0.00000000000E+00 -0.24793579573E+02  0.24793579573E+02  0.00000000000E+00 0. -1.
         25    2    1    2    0    0  0.10477204951E+03 -0.25980674389E+02  0.63213081283E+03  0.65335032788E+03  0.12500043441E+03 0.  0.
          2    1    1    2  501    0 -0.34197448653E+01  0.49432684887E+02  0.51656531449E+02  0.71579901029E+02  0.00000000000E+00 0. -1.
          1    1    1    2  502    0 -0.10135230465E+03 -0.23452010498E+02  0.63658403424E+03  0.64502830876E+03  0.00000000000E+00 0. -1.
         22    1    3    3    0    0  0.11131426136E+03  0.15111921706E+02  0.54914207178E+03  0.56051427275E+03  0.00000000000E+00 0.  1.
         22    1    3    3    0    0 -0.65422118465E+01 -0.41092596095E+02  0.82988741054E+02  0.92836055127E+02  0.00000000000E+00 0.  1.
</event>
<event>
 7    1  0.6614745E-006  0.8942850E+02  0.7818608E-02  0.1306490E+00
          2   -1    0    0  502    0  0.00000000000E+00  0.00000000000E+00  0.10978178058E+04  0.10978178058E+04  0.00000000000E+00 0. -1.
          1   -1    0    0  501    0 -0.00000000000E+00 -0.00000000000E+00 -0.19785356718E+04  0.19785356718E+04  0.00000000000E+00 0. -1.
         25    2    1    2    0    0  0.19177489780E+01 -0.21310379907E+02 -0.30273321432E+03  0.32822172222E+03  0.12499715928E+03 0.  0.
          2    1    1    2  501    0  0.83533694769E+02  0.47682857725E+02 -0.16598209435E+04  0.16626055147E+04  0.00000000000E+00 0. -1.
          1    1    1    2  502    0 -0.85451443747E+02 -0.26372477818E+02  0.10818362919E+04  0.10855262407E+04  0.00000000000E+00 0. -1.
         22    1    3    3    0    0  0.48397308411E+02  0.30135576436E+02 -0.15076049466E+03  0.16118057941E+03  0.00000000000E+00 0.  1.
         22    1    3    3    0    0 -0.46479559433E+02 -0.51445956343E+02 -0.15197271966E+03  0.16704114281E+03  0.00000000000E+00 0.  1.
</event>
<event>
 7    1  0.6330892E-006  0.4693020E+02  0.7818608E-02  0.1489322E+00
          2   -1    0    0  502    0  0.00000000000E+00  0.00000000000E+00  0.13977720937E+04  0.13977720937E+04  0.00000000000E+00 0. -1.
          1   -1    0    0  501    0 -0.00000000000E+00 -0.00000000000E+00 -0.49427200107E+02  0.49427200107E+02  0.00000000000E+00 0. -1.
         25    2    1    2    0    0 -0.78939423785E+02  0.22859685008E+02  0.56128328740E+03  0.58087673158E+03  0.12499940302E+03 0.  0.
          2    1    1    2  501    0  0.34416917950E+02 -0.17972340354E+02 -0.29357098140E+02  0.48676159156E+02  0.00000000000E+00 0. -1.
          1    1    1    2  502    0  0.44522505835E+02 -0.48873446544E+01  0.81641870434E+03  0.81764640307E+03  0.00000000000E+00 0. -1.
         22    1    3    3    0    0 -0.10592388446E+03  0.31845725143E+02  0.51343462762E+03  0.52521341981E+03  0.00000000000E+00 0. -1.
         22    1    3    3    0    0  0.26984460671E+02 -0.89860401348E+01  0.47848659776E+02  0.55663311772E+02  0.00000000000E+00 0. -1.
</event>
<event>
 7    1  0.6330892E-006  0.7965729E+02  0.7818608E-02  0.1477544E+00
          2   -1    0    0  502    0  0.00000000000E+00  0.00000000000E+00  0.62523987734E+03  0.62523987734E+03  0.00000000000E+00 0. -1.
          1   -1    0    0  501    0 -0.00000000000E+00 -0.00000000000E+00 -0.37446768208E+03  0.37446768208E+03  0.00000000000E+00 0. -1.
         25    2    1    2    0    0 -0.43968179352E+02  0.94198598922E+02 -0.11355115029E+03  0.19830577419E+03  0.12499895804E+03 0.  0.
          2    1    1    2  501    0  0.84385545187E+01 -0.23372890440E+02 -0.21512767353E+03  0.21655811489E+03  0.00000000000E+00 0. -1.
          1    1    1    2  502    0  0.35529624834E+02 -0.70825708482E+02  0.57945101907E+03  0.58484367033E+03  0.00000000000E+00 0. -1.
         22    1    3    3    0    0 -0.44542735737E+02 -0.15889368956E+01  0.61526607912E+01  0.44993724698E+02  0.00000000000E+00 0.  1.
         22    1    3    3    0    0  0.57455638503E+00  0.95787535817E+02 -0.11970381108E+03  0.15331204949E+03  0.00000000000E+00 0.  1.
</event>
<event>
 7    1  0.6330892E-006  0.1004461E+03  0.7818608E-02  0.1464403E+00
          2   -1    0    0  502    0  0.00000000000E+00  0.00000000000E+00  0.20345729164E+03  0.20345729164E+03  0.00000000000E+00 0. -1.
          1   -1    0    0  501    0 -0.00000000000E+00 -0.00000000000E+00 -0.40068501203E+03  0.40068501203E+03  0.00000000000E+00 0. -1.
         25    2    1    2    0    0  0.43106785984E+02 -0.95530449926E+02 -0.21950816553E+03  0.27348394529E+03  0.12500148692E+03 0.  0.
          2    1    1    2  501    0 -0.21511757147E+02 -0.24328838515E+01 -0.13902698947E+03  0.14070244639E+03  0.00000000000E+00 0. -1.
          1    1    1    2  502    0 -0.21595028838E+02  0.97963333778E+02  0.16130743462E+03  0.18995591199E+03  0.00000000000E+00 0. -1.
         22    1    3    3    0    0 -0.39204171863E+01 -0.12566508725E+02  0.15219862174E+02  0.20122897829E+02  0.00000000000E+00 0. -1.
         22    1    3    3    0    0  0.47027203171E+02 -0.82963941202E+02 -0.23472802771E+03  0.25336104746E+03  0.00000000000E+00 0. -1.
</event>
<event>
 7    1  0.6330892E-006  0.1021710E+03  0.7818608E-02  0.1410148E+00
          2   -1    0    0  502    0  0.00000000000E+00  0.00000000000E+00  0.55099374113E+03  0.55099374113E+03  0.00000000000E+00 0. -1.
          1   -1    0    0  501    0 -0.00000000000E+00 -0.00000000000E+00 -0.93379975216E+02  0.93379975216E+02  0.00000000000E+00 0. -1.
         25    2    1    2    0    0  0.79329313336E+02 -0.76881378340E+01  0.73588423243E+01  0.14842708007E+03  0.12499679244E+03 0.  0.
          2    1    1    2  501    0  0.24022614509E+02  0.21108864908E+02 -0.18035655469E+01  0.32030033316E+02  0.00000000000E+00 0. -1.
          1    1    1    2  502    0 -0.10335192785E+03 -0.13420727074E+02  0.45205848913E+03  0.46391660296E+03  0.00000000000E+00 0. -1.
         22    1    3    3    0    0  0.83435050185E+02 -0.37366864406E+02  0.43699576490E+02  0.10132789912E+03  0.00000000000E+00 0. -1.
         22    1    3    3    0    0 -0.41057368490E+01  0.29678726572E+02 -0.36340734166E+02  0.47099180946E+02  0.00000000000E+00 0. -1.
</event>
<event>
 7    1  0.6330892E-006  0.6866606E+02  0.7818608E-02  0.1421574E+00
          2   -1    0    0  502    0  0.00000000000E+00  0.00000000000E+00  0.11687005356E+04  0.11687005356E+04  0.00000000000E+00 0. -1.
          1   -1    0    0  501    0 -0.00000000000E+00 -0.00000000000E+00 -0.41433712316E+02  0.41433712316E+02  0.00000000000E+00 0. -1.
         25    2    1    2    0    0  0.86805642141E+02  0.17974018197E+02  0.75571402475E+03  0.77109313312E+03  0.12499059125E+03 0.  0.
          2    1    1    2  501    0 -0.51992196291E+02 -0.44151581167E+02  0.33721525230E+01  0.68292913303E+02  0.00000000000E+00 0. -1.
          1    1    1    2  502    0 -0.34813445850E+02  0.26177562971E+02  0.36818064599E+03  0.37074820148E+03  0.00000000000E+00 0. -1.
         22    1    3    3    0    0 -0.75661472857E+01  0.50892710069E+02  0.31612499394E+03  0.32028475817E+03  0.00000000000E+00 0.  1.
         22    1    3    3    0    0  0.94371789426E+02 -0.32918691872E+02  0.43958903081E+03  0.45080837494E+03  0.00000000000E+00 0.  1.
</event>
<event>
 7    1  0.6330892E-006  0.8463421E+02  0.7818608E-02  0.1435278E+00
          2   -1    0    0  502    0  0.00000000000E+00  0.00000000000E+00  0.28835457672E+03  0.28835457672E+03  0.00000000000E+00 0. -1.
          1   -1    0    0  501    0 -0.00000000000E+00 -0.00000000000E+00 -0.66521352442E+03  0.66521352442E+03  0.00000000000E+00 0. -1.
         25    2    1    2    0    0 -0.38200849079E+02 -0.50313359090E+02  0.12343972388E+03  0.18668931714E+03  0.12499918691E+03 0.  0.
          2    1    1    2  501    0  0.69987583435E+02  0.48391208812E+02 -0.62877937777E+03  0.63451042295E+03  0.00000000000E+00 0. -1.
          1    1    1    2  502    0 -0.31786734355E+02  0.19221502776E+01  0.12848070620E+03  0.13236836105E+03  0.00000000000E+00 0. -1.
         22    1    3    3    0    0 -0.69014060238E+02  0.73249893226E+01  0.88850393413E+02  0.11274301925E+03  0.00000000000E+00 0. -1.
         22    1    3    3    0    0  0.30813211159E+02 -0.57638348412E+02  0.34589330464E+02  0.73946297889E+02  0.00000000000E+00 0. -1.
</event>
<event>
 7    1  0.6330892E-006  0.1525384E+03  0.7818608E-02  0.1339387E+00
          2   -1    0    0  502    0  0.00000000000E+00  0.00000000000E+00  0.28378172223E+04  0.28378172223E+04  0.00000000000E+00 0. -1.
          1   -1    0    0  501    0 -0.00000000000E+00 -0.00000000000E+00 -0.12062639106E+03  0.12062639106E+03  0.00000000000E+00 0. -1.
         25    2    1    2    0    0  0.14101329542E+02  0.16150310218E+03  0.99020819602E+03  0.10111475964E+04  0.12500036310E+03 0.  0.
          2    1    1    2  501    0  0.33555434385E+02 -0.18531956601E+02 -0.10362899734E+03  0.11049149145E+03  0.00000000000E+00 0. -1.
          1    1    1    2  502    0 -0.47656763927E+02 -0.14297114558E+03  0.18306116326E+04  0.18368045255E+04  0.00000000000E+00 0. -1.
         22    1    3    3    0    0  0.44555894112E+02  0.11316201532E+03  0.39741601191E+03  0.41560841658E+03  0.00000000000E+00 0.  1.
         22    1    3    3    0    0 -0.30454564570E+02  0.48341086863E+02  0.59279218411E+03  0.59553917984E+03  0.00000000000E+00 0.  1.
</event>
<event>
 7    1  0.6330892E-006  0.1088143E+03  0.7818608E-02  0.1327637E+00
          2   -1    0    0  502    0  0.00000000000E+00  0.00000000000E+00  0.16465854314E+04  0.16465854314E+04  0.00000000000E+00 0. -1.
          1   -1    0    0  501    0 -0.00000000000E+00 -0.00000000000E+00 -0.47960264587E+03  0.47960264587E+03  0.00000000000E+00 0. -1.
         25    2    1    2    0    0  0.71598925987E+02  0.11508026138E+03  0.35904417041E+03  0.40361135073E+03  0.12497813155E+03 0.  0.
          2    1    1    2  501    0 -0.12484490314E+02 -0.10785736136E+03 -0.45016007206E+03  0.46306928572E+03  0.00000000000E+00 0. -1.
          1    1    1    2  502    0 -0.59114435673E+02 -0.72229000279E+01  0.12580986872E+04  0.12595074408E+04  0.00000000000E+00 0. -1.
         22    1    3    3    0    0  0.66029307881E+02  0.13956052205E+03  0.33492167269E+03  0.36879470665E+03  0.00000000000E+00 0. -1.
         22    1    3    3    0    0  0.55696181059E+01 -0.24480260672E+02  0.24122497719E+02  0.34816644075E+02  0.00000000000E+00 0. -1.
</event>
<event>
 7    1  0.6330892E-006  0.4235980E+02  0.7818608E-02  0.1500588E+00
          2   -1    0    0  502    0  0.00000000000E+00  0.00000000000E+00  0.15665641496E+04  0.15665641496E+04  0.00000000000E+00 0. -1.
          1   -1    0    0  501    0 -0.00000000000E+00 -0.00000000000E+00 -0.76674588025E+02  0.76674588025E+02  0.00000000000E+00 0. -1.
         25    2    1    2    0    0 -0.17618262007E+02 -0.69707897721E+01  0.82913761961E+03  0.83872119780E+03  0.12500024130E+03 0.  0.
          2    1    1    2  501    0 -0.11265388141E+02  0.40834348563E+02 -0.64900635651E+02  0.77501261283E+02  0.00000000000E+00 0. -1.
          1    1    1    2  502    0  0.28883650149E+02 -0.33863558790E+02  0.72565257758E+03  0.72701627850E+03  0.00000000000E+00 0. -1.
         22    1    3    3    0    0 -0.23323293571E+02 -0.34752492274E+02  0.78588844644E+03  0.78700213595E+03  0.00000000000E+00 0.  1.
         22    1    3    3    0    0  0.57050315637E+01  0.27781702502E+02  0.43249173171E+02  0.51719061854E+02  0.00000000000E+00 0.  1.
</event>
<event>
 7    1  0.6330892E-006  0.1591263E+03  0.7818608E-02  0.1189966E+00
          2   -1    0    0  502    0  0.00000000000E+00  0.00000000000E+00  0.13016173665E+04  0.13016173665E+04  0.00000000000E+00 0. -1.
          1   -1    0    0  501    0 -0.00000000000E+00 -0.00000000000E+00 -0.79298389900E+02  0.79298389900E+02  0.00000000000E+00 0. -1.
         25    2    1    2    0    0  0.67064837422E+02 -0.14094464992E+03  0.51149372654E+03  0.54919266914E+03  0.12499467507E+03 0.  0.
          2    1    1    2  501    0 -0.15579860751E+03 -0.29872668620E+02  0.91410951089E+02  0.18308889756E+03  0.00000000000E+00 0. -1.
          1    1    1    2  502    0  0.88733770083E+02  0.17081731854E+03  0.61941429898E+03  0.64863418970E+03  0.00000000000E+00 0. -1.
         22    1    3    3    0    0  0.38444209088E+00 -0.12834297170E+03  0.38218027577E+03  0.40315484540E+03  0.00000000000E+00 0.  1.
         22    1    3    3    0    0  0.66680395331E+02 -0.12601678224E+02  0.12931345077E+03  0.14603782375E+03  0.00000000000E+00 0.  1.
</event>
<event>
 7    1  0.6330892E-006  0.7921648E+02  0.7818608E-02  0.1383185E+00
          2   -1    0    0  502    0  0.00000000000E+00  0.00000000000E+00  0.18813143054E+04  0.18813143054E+04  0.00000000000E+00 0. -1.
          1   -1    0    0  501    0 -0.00000000000E+00 -0.00000000000E+00 -0.81475802162E+03  0.81475802162E+03  0.00000000000E+00 0. -1.
         25    2    1    2    0    0 -0.49194577265E+02 -0.10320589249E+03  0.48489052497E+03  0.51362741597E+03  0.12499095391E+03 0.  0.
          2    1    1    2  501    0 -0.72091569868E+01  0.50605800337E+02 -0.79849573943E+03  0.80013021744E+03  0.00000000000E+00 0. -1.
          1    1    1    2  502    0  0.56403734252E+02  0.52600092149E+02  0.13801614982E+04  0.13823146936E+04  0.00000000000E+00 0. -1.
         22    1    3    3    0    0 -0.89839623719E+02 -0.79021991169E+02  0.38385466305E+03  0.40206968976E+03  0.00000000000E+00 0.  1.
         22    1    3    3    0    0  0.40645046454E+02 -0.24183901317E+02  0.10103586192E+03  0.11155772622E+03  0.00000000000E+00 0.  1.
</event>
<event>
 7    1  0.6330892E-006  0.5483194E+02  0.7818608E-02  0.1421025E+00
          2   -1    0    0  502    0  0.00000000000E+00  0.00000000000E+00  0.37238441938E+03  0.37238441938E+03  0.00000000000E+00 0. -1.
          1   -1    0    0  501    0 -0.00000000000E+00 -0.00000000000E+00 -0.12970911182E+03  0.12970911182E+03  0.00000000000E+00 0. -1.
         25    2    1    2    0    0 -0.22970291931E+02  0.58651549809E+02  0.14165973428E+03  0.19914976730E+03  0.12500204356E+03 0.  0.
          2    1    1    2  501    0 -0.30456398919E+02 -0.46562556845E+02 -0.89127086597E+02  0.10506808031E+03  0.00000000000E+00 0. -1.
          1    1    1    2  502    0  0.53426690850E+02 -0.12088992964E+02  0.19014265988E+03  0.19787568358E+03  0.00000000000E+00 0. -1.
         22    1    3    3    0    0 -0.53732863517E+02  0.14903174646E+02  0.13397911129E+03  0.14511970058E+03  0.00000000000E+00 0. -1.
         22    1    3    3    0    0  0.30762571586E+02  0.43748375163E+02  0.76806229933E+01  0.54030066718E+02  0.00000000000E+00 0. -1.
</event>
<event>
 7    1  0.6330892E-006  0.4867677E+02  0.7818608E-02  0.1526399E+00
          2   -1    0    0  502    0  0.00000000000E+00  0.00000000000E+00  0.16957036856E+04  0.16957036856E+04  0.00000000000E+00 0. -1.
          1   -1    0    0  501    0 -0.00000000000E+00 -0.00000000000E+00 -0.29318445570E+03  0.29318445570E+03  0.00000000000E+00 0. -1.
         25    2    1    2    0    0  0.42541358943E+02 -0.41819803354E+02  0.39500558005E+03  0.41858382761E+03  0.12499739713E+03 0.  0.
          2    1    1    2  501    0 -0.46875274311E+02  0.13051441208E+02 -0.27912618898E+03  0.28333559754E+03  0.00000000000E+00 0. -1.
          1    1    1    2  502    0  0.43339153681E+01  0.28768362146E+02  0.12866398388E+04  0.12869687161E+04  0.00000000000E+00 0. -1.
         22    1    3    3    0    0 -0.61544510778E+01 -0.70221819791E+02  0.13240236529E+03  0.14999789191E+03  0.00000000000E+00 0.  1.
         22    1    3    3    0    0  0.48695810021E+02  0.28402016437E+02  0.26260321476E+03  0.26858593570E+03  0.00000000000E+00 0.  1.
</event>
<event>
 7    1  0.6330892E-006  0.1723093E+03  0.7818608E-02  0.1238584E+00
          2   -1    0    0  502    0  0.00000000000E+00  0.00000000000E+00  0.21903307512E+04  0.21903307512E+04  0.00000000000E+00 0. -1.
          1   -1    0    0  501    0 -0.00000000000E+00 -0.00000000000E+00 -0.51996154772E+02  0.51996154772E+02  0.00000000000E+00 0. -1.
         25    2    1    2    0    0 -0.14847409402E+03 -0.80567387255E+00  0.10049852411E+04  0.10235553135E+04  0.12499975727E+03 0.  0.
          2    1    1    2  501    0  0.15725496804E+03  0.87847819153E+02  0.15829127576E+03  0.23979677288E+03  0.00000000000E+00 0. -1.
          1    1    1    2  502    0 -0.87808740219E+01 -0.87042145281E+02  0.97505807954E+03  0.97897481954E+03  0.00000000000E+00 0. -1.
         22    1    3    3    0    0 -0.14430805057E+02 -0.27803215054E+02  0.48114112882E+03  0.48215977927E+03  0.00000000000E+00 0. -1.
         22    1    3    3    0    0 -0.13404328896E+03  0.26997541181E+02  0.52384411229E+03  0.54139553427E+03  0.00000000000E+00 0. -1.
</event>
<event>
 7    1  0.6330892E-006  0.1547368E+03  0.7818608E-02  0.1203770E+00
          2   -1    0    0  502    0  0.00000000000E+00  0.00000000000E+00  0.15784514848E+04  0.15784514848E+04  0.00000000000E+00 0. -1.
          1   -1    0    0  501    0 -0.00000000000E+00 -0.00000000000E+00 -0.16038000863E+04  0.16038000863E+04  0.00000000000E+00 0. -1.
         25    2    1    2    0    0 -0.24171028063E+03 -0.98100295550E+02  0.71025585965E+03  0.76690112518E+03  0.12500568740E+03 0.  0.
          2    1    1    2  501    0  0.10246938699E+03  0.11540184762E+03 -0.15657970467E+04  0.15733842357E+04  0.00000000000E+00 0. -1.
          1    1    1    2  502    0  0.13924089364E+03 -0.17301552069E+02  0.83019258552E+03  0.84196621026E+03  0.00000000000E+00 0. -1.
         22    1    3    3    0    0 -0.11818617062E+03 -0.38457081872E+01  0.18866653927E+03  0.22266078109E+03  0.00000000000E+00 0.  1.
         22    1    3    3    0    0 -0.12352411001E+03 -0.94254587362E+02  0.52158932038E+03  0.54424034409E+03  0.00000000000E+00 0.  1.
</event>
<event>
 7    1  0.6330892E-006  0.4666393E+02  0.7818608E-02  0.1575213E+00
          2   -1    0    0  502    0  0.00000000000E+00  0.00000000000E+00  0.15137464509E+04  0.15137464509E+04  0.00000000000E+00 0. -1.
          1   -1    0    0  501    0 -0.00000000000E+00 -0.00000000000E+00 -0.69806971313E+02  0.69806971313E+02  0.00000000000E+00 0. -1.
         25    2    1    2    0    0 -0.26358900973E+02 -0.11353655367E+02 -0.65235008832E+01  0.12842469602E+03  0.12500659716E+03 0.  0.
          2    1    1    2  501    0 -0.20352128947E+02  0.88320105011E+01  0.61519594492E+02  0.65397813943E+02  0.00000000000E+00 0. -1.
          1    1    1    2  502    0  0.46711029919E+02  0.25216448658E+01  0.13889433859E+04  0.13897309122E+04  0.00000000000E+00 0. -1.
         22    1    3    3    0    0 -0.52025394394E+02  0.33831661592E+02 -0.32799901857E+02  0.70192995019E+02  0.00000000000E+00 0. -1.
         22    1    3    3    0    0  0.25666493422E+02 -0.45185316959E+02  0.26276400974E+02  0.58231701000E+02  0.00000000000E+00 0. -1.
</event>
<event>
 7    1  0.6330892E-006  0.7783882E+02  0.7818608E-02  0.1455301E+00
          2   -1    0    0  502    0  0.00000000000E+00  0.00000000000E+00  0.57429595764E+02  0.57429595764E+02  0.00000000000E+00 0. -1.
          1   -1    0    0  501    0 -0.00000000000E+00 -0.00000000000E+00 -0.74650136983E+03  0.74650136983E+03  0.00000000000E+00 0. -1.
         25    2    1    2    0    0  0.21678226500E+02 -0.77427200143E+02 -0.58208810297E+03  0.60076310000E+03  0.12499930349E+03 0.  0.
          2    1    1    2  501    0 -0.47248840896E+02  0.62033858834E+02 -0.13901147832E+03  0.15938896986E+03  0.00000000000E+00 0. -1.
          1    1    1    2  502    0  0.25570614395E+02  0.15393341309E+02  0.32027807220E+02  0.43778895743E+02  0.00000000000E+00 0. -1.
         22    1    3    3    0    0  0.96236065684E+01 -0.97571251755E+01 -0.46344297938E+03  0.46364556553E+03  0.00000000000E+00 0.  1.
         22    1    3    3    0    0  0.12054619932E+02 -0.67670074967E+02 -0.11864512359E+03  0.13711753447E+03  0.00000000000E+00 0.  1.
</event>
<event>
 7    1  0.6330892E-006  0.8220748E+02  0.7818608E-02  0.1324776E+00
          2   -1    0    0  502    0  0.00000000000E+00  0.00000000000E+00  0.11966240136E+04  0.11966240136E+04  0.00000000000E+00 0. -1.
          1   -1    0    0  501    0 -0.00000000000E+00 -0.00000000000E+00 -0.75835473862E+03  0.75835473862E+03  0.00000000000E+00 0. -1.
         25    2    1    2    0    0  0.83657212196E+02 -0.67433686855E+01 -0.89969033460E+02  0.17539153774E+03  0.12499504932E+03 0.  0.
          2    1    1    2  501    0 -0.51187875020E+02 -0.67300672240E+02 -0.62139146412E+03  0.62711795598E+03  0.00000000000E+00 0. -1.
          1    1    1    2  502    0 -0.32469337176E+02  0.74044040926E+02  0.11496297726E+04  0.11524692586E+04  0.00000000000E+00 0. -1.
         22    1    3    3    0    0 -0.10144222564E+02  0.75679561895E+01 -0.78845551013E+02  0.79854869149E+02  0.00000000000E+00 0.  1.
         22    1    3    3    0    0  0.93801434760E+02 -0.14311324875E+02 -0.11123482447E+02  0.95536668586E+02  0.00000000000E+00 0.  1.
</event>
<event>
 7    1  0.6330892E-006  0.7878620E+02  0.7818608E-02  0.1420805E+00
          2   -1    0    0  502    0  0.00000000000E+00  0.00000000000E+00  0.68695527622E+03  0.68695527622E+03  0.00000000000E+00 0. -1.
          1   -1    0    0  501    0 -0.00000000000E+00 -0.00000000000E+00 -0.49698713876E+03  0.49698713876E+03  0.00000000000E+00 0. -1.
         25    2    1    2    0    0 -0.12686153896E+02 -0.75872552786E+02 -0.48807641045E+02  0.15467579846E+03  0.12499933615E+03 0.  0.
          2    1    1    2  501    0 -0.35756787226E+02  0.13405736430E+02 -0.39184967057E+03  0.39370601460E+03  0.00000000000E+00 0. -1.
          1    1    1    2  502    0  0.48442941122E+02  0.62466816356E+02  0.63062544908E+03  0.63556060192E+03  0.00000000000E+00 0. -1.
         22    1    3    3    0    0  0.29046614615E+01 -0.89456308022E+02 -0.78122055861E+02  0.11880203582E+03  0.00000000000E+00 0.  1.
         22    1    3    3    0    0 -0.15590815357E+02  0.13583755237E+02  0.29314414816E+02  0.35873762639E+02  0.00000000000E+00 0.  1.
</event>
<event>
 7    1  0.6330892E-006  0.2681480E+02  0.7818608E-02  0.1687073E+00
          2   -1    0    0  502    0  0.00000000000E+00  0.00000000000E+00  0.16799798045E+03  0.16799798045E+03  0.00000000000E+00 0. -1.
          1   -1    0    0  501    0 -0.00000000000E+00 -0.00000000000E+00 -0.10803873173E+03  0.10803873173E+03  0.00000000000E+00 0. -1.
         25    2    1    2    0    0 -0.99273783534E+01  0.31930482316E+02  0.40811345686E+02  0.13570473149E+03  0.12502839545E+03 0.  0.
          2    1    1    2  501    0 -0.91268859937E+01 -0.25210743919E+02 -0.56228929225E+02  0.62294254460E+02  0.00000000000E+00 0. -1.
          1    1    1    2  502    0  0.19054264347E+02 -0.67197383965E+01  0.75376832262E+02  0.78037726234E+02  0.00000000000E+00 0. -1.
         22    1    3    3    0    0  0.45747283087E+02  0.11574363222E+02 -0.19572196417E+02  0.51086697549E+02  0.00000000000E+00 0. -1.
         22    1    3    3    0    0 -0.55674661441E+02  0.20356119094E+02  0.60383542102E+02  0.84618033940E+02  0.00000000000E+00 0. -1.
</event>
<event>
 7    1  0.6330892E-006  0.4203086E+02  0.7818608E-02  0.1556952E+00
          2   -1    0    0  502    0  0.00000000000E+00  0.00000000000E+00  0.62455950341E+03  0.62455950341E+03  0.00000000000E+00 0. -1.
          1   -1    0    0  501    0 -0.00000000000E+00 -0.00000000000E+00 -0.12942127033E+04  0.12942127033E+04  0.00000000000E+00 0. -1.
         25    2    1    2    0    0  0.12808864961E+02 -0.39411846789E+02 -0.80650071220E+02  0.15441762114E+03  0.12499202792E+03 0.  0.
          2    1    1    2  501    0  0.22341014346E+02  0.16254557311E+02 -0.11757626447E+04  0.11760872112E+04  0.00000000000E+00 0. -1.
          1    1    1    2  502    0 -0.35149879307E+02  0.23157289478E+02  0.58675951606E+03  0.58826737438E+03  0.00000000000E+00 0. -1.
         22    1    3    3    0    0 -0.37664593315E+02 -0.45186567110E+02  0.32370838167E+00  0.58826458537E+02  0.00000000000E+00 0.  1.
         22    1    3    3    0    0  0.50473458277E+02  0.57747203213E+01 -0.80973779602E+02  0.95591162605E+02  0.00000000000E+00 0.  1.
</event>
<event>
 7    1  0.6330892E-006  0.5088347E+02  0.7818608E-02  0.1443443E+00
          2   -1    0    0  502    0  0.00000000000E+00  0.00000000000E+00  0.11175042963E+04  0.11175042963E+04  0.00000000000E+00 0. -1.
          1   -1    0    0  501    0 -0.00000000000E+00 -0.00000000000E+00 -0.65129982642E+02  0.65129982642E+02  0.00000000000E+00 0. -1.
         25    2    1    2    0    0 -0.40388427408E+00  0.12612457560E+02  0.84821497171E+02  0.15158622128E+03  0.12499783555E+03 0.  0.
          2    1    1    2  501    0  0.41231472698E+02 -0.42980785260E+02 -0.25473400019E+01  0.59614353838E+02  0.00000000000E+00 0. -1.
          1    1    1    2  502    0 -0.40827588424E+02  0.30368327700E+02  0.97010015653E+03  0.97143370386E+03  0.00000000000E+00 0. -1.
         22    1    3    3    0    0  0.51116046865E+02 -0.17373692986E+02  0.83566507189E+01  0.54630843544E+02  0.00000000000E+00 0.  1.
         22    1    3    3    0    0 -0.51519931139E+02  0.29986150546E+02  0.76464846452E+02  0.96955377737E+02  0.00000000000E+00 0.  1.
</event>
<event>
 7    1  0.6330892E-006  0.8311590E+02  0.7818608E-02  0.1382551E+00
          2   -1    0    0  502    0  0.00000000000E+00  0.00000000000E+00  0.21723787442E+04  0.21723787442E+04  0.00000000000E+00 0. -1.
          1   -1    0    0  501    0 -0.00000000000E+00 -0.00000000000E+00 -0.47205022814E+02  0.47205022814E+02  0.00000000000E+00 0. -1.
         25    2    1    2    0    0  0.16960771225E+01 -0.80674402973E+02  0.11762187581E+04  0.11855911892E+04  0.12499866050E+03 0.  0.
          2    1    1    2  501    0 -0.48613976353E+02  0.58948189510E+01 -0.25729836875E+02  0.55318099144E+02  0.00000000000E+00 0. -1.
          1    1    1    2  502    0  0.46917899231E+02  0.74779584022E+02  0.97468480018E+03  0.97867447865E+03  0.00000000000E+00 0. -1.
         22    1    3    3    0    0 -0.47235224365E+02 -0.44557409044E+02  0.28517985484E+03  0.29247919367E+03  0.00000000000E+00 0. -1.
         22    1    3    3    0    0  0.48931301488E+02 -0.36116993929E+02  0.89103890326E+03  0.89311199557E+03  0.00000000000E+00 0. -1.
</event>
<event>
 7    1  0.6330892E-006  0.8111026E+02  0.7818608E-02  0.1374191E+00
          2   -1    0    0  502    0  0.00000000000E+00  0.00000000000E+00  0.39395581581E+02  0.39395581581E+02  0.00000000000E+00 0. -1.
          1   -1    0    0  501    0 -0.00000000000E+00 -0.00000000000E+00 -0.19939626010E+04  0.19939626010E+04  0.00000000000E+00 0. -1.
         25    2    1    2    0    0 -0.10326429892E+02 -0.75085596702E+01 -0.12145438150E+04  0.12210271938E+04  0.12501086344E+03 0.  0.
          2    1    1    2  501    0  0.91431676032E+02  0.84104194960E+01 -0.72381718245E+03  0.72961757116E+03  0.00000000000E+00 0. -1.
          1    1    1    2  502    0 -0.81105246139E+02 -0.90185982584E+00 -0.16206022022E+02  0.82713417607E+02  0.00000000000E+00 0. -1.
         22    1    3    3    0    0  0.29166251372E+02 -0.47816257938E+02 -0.87804225336E+03  0.87982683718E+03  0.00000000000E+00 0.  1.
         22    1    3    3    0    0 -0.39492681264E+02  0.40307698268E+02 -0.33650156162E+03  0.34120035666E+03  0.00000000000E+00 0.  1.
</event>
<event>
 7    1  0.6330892E-006  0.2608950E+03  0.7818608E-02  0.1240390E+00
          2   -1    0    0  502    0  0.00000000000E+00  0.00000000000E+00  0.58486663222E+03  0.58486663222E+03  0.00000000000E+00 0. -1.
          1   -1    0    0  501    0 -0.00000000000E+00 -0.00000000000E+00 -0.37186049444E+03  0.37186049444E+03  0.00000000000E+00 0. -1.
         25    2    1    2    0    0  0.21197508697E+03  0.15764491034E+03  0.57684245853E+02  0.29788910277E+03  0.12500036031E+03 0.  0.
          2    1    1    2  501    0  0.26288406821E+02 -0.50269636836E+02 -0.20557220641E+03  0.21325582939E+03  0.00000000000E+00 0. -1.
          1    1    1    2  502    0 -0.23826349380E+03 -0.10737527350E+03  0.36089409834E+03  0.44558219449E+03  0.00000000000E+00 0. -1.
         22    1    3    3    0    0  0.15483954079E+03  0.86087422704E+02 -0.19364221655E+02  0.17821700486E+03  0.00000000000E+00 0. -1.
         22    1    3    3    0    0  0.57135546181E+02  0.71557487635E+02  0.77048467508E+02  0.11967209791E+03  0.00000000000E+00 0. -1.
</event>
<event>
 7    1  0.8496461E-006  0.1223226E+03  0.7818608E-02  0.1306475E+00
          2   -1    0    0  502    0  0.00000000000E+00  0.00000000000E+00  0.65132963576E+03  0.65132963576E+03  0.00000000000E+00 0. -1.
          1   -1    0    0  501    0 -0.00000000000E+00 -0.00000000000E+00 -0.13991900149E+04  0.13991900149E+04  0.00000000000E+00 0. -1.
         25    2    1    2    0    0 -0.84035077212E+02  0.10729480727E+01 -0.25976126170E+03  0.30027471536E+03  0.12500378467E+03 0.  0.
          2    1    1    2  501    0 -0.24869723641E+02 -0.59034468891E+02 -0.11122122499E+04  0.11140555015E+04  0.00000000000E+00 0. -1.
          1    1    1    2  502    0  0.10890480085E+03  0.57961520818E+02  0.62411313246E+03  0.63618943378E+03  0.00000000000E+00 0. -1.
         22    1    3    3    0    0 -0.11072523156E+03  0.11114081086E+01 -0.14497059775E+03  0.18242200072E+03  0.00000000000E+00 0.  1.
         22    1    3    3    0    0  0.26690154350E+02 -0.38460035891E-01 -0.11479066395E+03  0.11785271464E+03  0.00000000000E+00 0.  1.
</event>
<event>
 7    1  0.6330892E-006  0.9164184E+02  0.7818608E-02  0.1421352E+00
          2   -1    0    0  502    0  0.00000000000E+00  0.00000000000E+00  0.55384013427E+03  0.55384013427E+03  0.00000000000E+00 0. -1.
          1   -1    0    0  501    0 -0.00000000000E+00 -0.00000000000E+00 -0.87360980002E+02  0.87360980002E+02  0.00000000000E+00 0. -1.
         25    2    1    2    0    0 -0.78527999870E+02  0.30925527245E+02  0.11830056203E+03  0.19168510315E+03  0.12500048317E+03 0.  0.
          2    1    1    2  501    0  0.94887858609E+02 -0.26207139799E+01 -0.47821662424E+01  0.95044426281E+02  0.00000000000E+00 0. -1.
          1    1    1    2  502    0 -0.16359858739E+02 -0.28304813265E+02  0.35296075848E+03  0.35447158484E+03  0.00000000000E+00 0. -1.
         22    1    3    3    0    0 -0.87868583848E+02  0.17697382019E+02  0.19711375454E+02  0.91774853201E+02  0.00000000000E+00 0.  1.
         22    1    3    3    0    0  0.93405839779E+01  0.13228145226E+02  0.98589186573E+02  0.99910249946E+02  0.00000000000E+00 0.  1.
</event>
<event>
 7    1  0.6330892E-006  0.9511493E+02  0.7818608E-02  0.1348567E+00
          2   -1    0    0  502    0  0.00000000000E+00  0.00000000000E+00  0.37655661747E+03  0.37655661747E+03  0.00000000000E+00 0. -1.
          1   -1    0    0  501    0 -0.00000000000E+00 -0.00000000000E+00 -0.59087092907E+03  0.59087092907E+03  0.00000000000E+00 0. -1.
         25    2    1    2    0    0 -0.68633090542E+02 -0.47840213771E+01 -0.43964825018E+02  0.14929945210E+03  0.12499613026E+03 0.  0.
          2    1    1    2  501    0 -0.81075638106E+01 -0.56221751572E+02 -0.48512522551E+03  0.48843945620E+03  0.00000000000E+00 0. -1.
          1    1    1    2  502    0  0.76740654353E+02  0.61005772949E+02  0.31477573894E+03  0.32968863825E+03  0.00000000000E+00 0. -1.
         22    1    3    3    0    0 -0.26916329370E+02 -0.64454219981E+02 -0.22896662590E+02  0.73505730510E+02  0.00000000000E+00 0.  1.
         22    1    3    3    0    0 -0.41716761172E+02  0.59670198604E+02 -0.21068162428E+02  0.75793721588E+02  0.00000000000E+00 0.  1.
</event>
<event>
 7    1  0.6330892E-006  0.1526230E+03  0.7818608E-02  0.1273884E+00
          2   -1    0    0  502    0  0.00000000000E+00  0.00000000000E+00  0.11999348561E+04  0.11999348561E+04  0.00000000000E+00 0. -1.
          1   -1    0    0  501    0 -0.00000000000E+00 -0.00000000000E+00 -0.94037221102E+03  0.94037221102E+03  0.00000000000E+00 0. -1.
         25    2    1    2    0    0 -0.22366931250E+01  0.11423036922E+03 -0.29455161846E+03  0.33976573748E+03  0.12500608138E+03 0.  0.
          2    1    1    2  501    0  0.64675169976E+02  0.25884624790E+02 -0.61624605974E+03  0.62017102282E+03  0.00000000000E+00 0. -1.
          1    1    1    2  502    0 -0.62438476851E+02 -0.14011499401E+03  0.11703603233E+04  0.11803703069E+04  0.00000000000E+00 0. -1.
         22    1    3    3    0    0  0.24665652563E+02  0.12850117401E+03 -0.27211599080E+03  0.30194048848E+03  0.00000000000E+00 0. -1.
         22    1    3    3    0    0 -0.26902345688E+02 -0.14270804795E+02 -0.22435627662E+02  0.37825248996E+02  0.00000000000E+00 0. -1.
</event>
<event>
 7    1  0.6330892E-006  0.7158612E+02  0.7818608E-02  0.1367060E+00
          2   -1    0    0  502    0  0.00000000000E+00  0.00000000000E+00  0.29758149480E+03  0.29758149480E+03  0.00000000000E+00 0. -1.
          1   -1    0    0  501    0 -0.00000000000E+00 -0.00000000000E+00 -0.95021749120E+03  0.95021749120E+03  0.00000000000E+00 0. -1.
         25    2    1    2    0    0 -0.97892042789E+02  0.34597116644E+02 -0.64593509011E+03  0.66606115712E+03  0.12500204744E+03 0.  0.
          2    1    1    2  501    0  0.36210139993E+02 -0.53715609114E+02 -0.28693635099E+03  0.29415813845E+03  0.00000000000E+00 0. -1.
          1    1    1    2  502    0  0.61681902797E+02  0.19118492470E+02  0.28023544469E+03  0.28757969043E+03  0.00000000000E+00 0. -1.
         22    1    3    3    0    0 -0.10175770359E+02  0.65636866927E+02 -0.20788949616E+03  0.21824249635E+03  0.00000000000E+00 0.  1.
         22    1    3    3    0    0 -0.87716272430E+02 -0.31039750283E+02 -0.43804559395E+03  0.44781866076E+03  0.00000000000E+00 0.  1.
</event>
<event>
 7    1  0.6330892E-006  0.3247132E+02  0.7818608E-02  0.1595998E+00
          2   -1    0    0  502    0  0.00000000000E+00  0.00000000000E+00  0.22564276619E+04  0.22564276619E+04  0.00000000000E+00 0. -1.
          1   -1    0    0  501    0 -0.00000000000E+00 -0.00000000000E+00 -0.86721216966E+02  0.86721216966E+02  0.00000000000E+00 0. -1.
         25    2    1    2    0    0  0.14423849910E+02 -0.56789205371E+01  0.90860455789E+02  0.15530249033E+03  0.12499177370E+03 0.  0.
          2    1    1    2  501    0  0.11248176830E+02  0.25716667634E+02 -0.50753367292E+02  0.57998041068E+02  0.00000000000E+00 0. -1.
          1    1    1    2  502    0 -0.25672026740E+02 -0.20037747097E+02  0.21295993565E+04  0.21298483475E+04  0.00000000000E+00 0. -1.
         22    1    3    3    0    0 -0.67038203499E+01  0.45966636049E+02 -0.25190675090E+01  0.46521162261E+02  0.00000000000E+00 0. -1.
         22    1    3    3    0    0  0.21127670260E+02 -0.51645556586E+02  0.93379523298E+02  0.10878132807E+03  0.00000000000E+00 0. -1.
</event>
<event>
 7    1  0.6330892E-006  0.1562594E+03  0.7818608E-02  0.1393349E+00
          2   -1    0    0  502    0  0.00000000000E+00  0.00000000000E+00  0.19035044045E+04  0.19035044045E+04  0.00000000000E+00 0. -1.
          1   -1    0    0  501    0 -0.00000000000E+00 -0.00000000000E+00 -0.38394708453E+02  0.38394708453E+02  0.00000000000E+00 0. -1.
         25    2    1    2    0    0  0.10210013987E+03 -0.13320642064E+03  0.93997555767E+03  0.96298883572E+03  0.12500023853E+03 0.  0.
          2    1    1    2  501    0  0.13276252132E+01  0.23839600324E+02 -0.14074199234E+02  0.27715919909E+02  0.00000000000E+00 0. -1.
          1    1    1    2  502    0 -0.10342776509E+03  0.10936682032E+03  0.93920833765E+03  0.95119435736E+03  0.00000000000E+00 0. -1.
         22    1    3    3    0    0  0.59910296997E+00 -0.97470878705E+01  0.39348573637E+03  0.39360689701E+03  0.00000000000E+00 0. -1.
         22    1    3    3    0    0  0.10150103690E+03 -0.12345933277E+03  0.54648982130E+03  0.56938193871E+03  0.00000000000E+00 0. -1.
</event>
<event>
 7    1  0.6330892E-006  0.1814139E+03  0.7818608E-02  0.1274276E+00
          2   -1    0    0  502    0  0.00000000000E+00  0.00000000000E+00  0.66907008892E+03  0.66907008892E+03  0.00000000000E+00 0. -1.
          1   -1    0    0  501    0 -0.00000000000E+00 -0.00000000000E+00 -0.25421395022E+04  0.25421395022E+04  0.00000000000E+00 0. -1.
         25    2    1    2    0    0 -0.59005607271E+02  0.13179425962E+03 -0.43119908869E+03  0.47160145300E+03  0.12499555123E+03 0.  0.
          2    1    1    2  501    0  0.11372070674E+03 -0.15217351548E+03 -0.20850988790E+04  0.20937350628E+04  0.00000000000E+00 0. -1.
          1    1    1    2  502    0 -0.54715099466E+02  0.20379255866E+02  0.64322855443E+03  0.64587307531E+03  0.00000000000E+00 0. -1.
         22    1    3    3    0    0 -0.91838271853E+02  0.53979715626E+02 -0.24068860308E+03  0.26320919727E+03  0.00000000000E+00 0. -1.
         22    1    3    3    0    0  0.32832664582E+02  0.77814543990E+02 -0.19051048561E+03  0.20839225573E+03  0.00000000000E+00 0. -1.
</event>
<event>
 7    1  0.6330892E-006  0.9891592E+02  0.7818608E-02  0.1325272E+00
          2   -1    0    0  502    0  0.00000000000E+00  0.00000000000E+00  0.17165397942E+04  0.17165397942E+04  0.00000000000E+00 0. -1.
          1   -1    0    0  501    0 -0.00000000000E+00 -0.00000000000E+00 -0.12194793461E+03  0.12194793461E+03  0.00000000000E+00 0. -1.
         25    2    1    2    0    0 -0.48278987878E+02 -0.61688211128E+02  0.74249983709E+02  0.16514961492E+03  0.12500015666E+03 0.  0.
          2    1    1    2  501    0  0.10636025692E+03  0.28492323425E+02 -0.35780757292E+02  0.11577814707E+03  0.00000000000E+00 0. -1.
          1    1    1    2  502    0 -0.58081269040E+02  0.33195887703E+02  0.15561226331E+04  0.15575599668E+04  0.00000000000E+00 0. -1.
         22    1    3    3    0    0 -0.26493857697E+02 -0.56351646794E+02  0.10797709034E+03  0.12464543566E+03  0.00000000000E+00 0.  1.
         22    1    3    3    0    0 -0.21785130180E+02 -0.53365643332E+01 -0.33727106630E+02  0.40504179260E+02  0.00000000000E+00 0.  1.
</event>
<event>
 7    1  0.6330892E-006  0.9940061E+02  0.7818608E-02  0.1367615E+00
          2   -1    0    0  502    0  0.00000000000E+00  0.00000000000E+00  0.16709768396E+04  0.16709768396E+04  0.00000000000E+00 0. -1.
          1   -1    0    0  501    0 -0.00000000000E+00 -0.00000000000E+00 -0.25734192182E+03  0.25734192182E+03  0.00000000000E+00 0. -1.
         25    2    1    2    0    0  0.23803995569E+01  0.10477155082E+03  0.65129981472E+02  0.17564039449E+03  0.12499955811E+03 0.  0.
          2    1    1    2  501    0 -0.44012148981E+02 -0.14352108032E+02 -0.19781404412E+03  0.20315867767E+03  0.00000000000E+00 0. -1.
          1    1    1    2  502    0  0.41631749424E+02 -0.90419442792E+02  0.15463189804E+04  0.15495196893E+04  0.00000000000E+00 0. -1.
         22    1    3    3    0    0  0.23848940897E+02  0.11746374738E+03  0.16503377288E+02  0.12099117899E+03  0.00000000000E+00 0.  1.
         22    1    3    3    0    0 -0.21468541340E+02 -0.12692196560E+02  0.48626604184E+02  0.54649215504E+02  0.00000000000E+00 0.  1.
</event>
<event>
 7    1  0.8839615E-006  0.1040062E+03  0.7818608E-02  0.1335274E+00
          2   -1    0    0  502    0  0.00000000000E+00  0.00000000000E+00  0.94768558441E+03  0.94768558441E+03  0.00000000000E+00 0. -1.
          1   -1    0    0  501    0 -0.00000000000E+00 -0.00000000000E+00 -0.17193082875E+04  0.17193082875E+04  0.00000000000E+00 0. -1.
         25    2    1    2    0    0  0.24879169922E+02 -0.15246149463E+03 -0.10499008653E+04  0.10685417627E+04  0.12500476556E+03 0.  0.
          2    1    1    2  501    0  0.14648683391E+02  0.56396033940E+02 -0.65591657323E+03  0.65849954260E+03  0.00000000000E+00 0. -1.
          1    1    1    2  502    0 -0.39527853313E+02  0.96065460687E+02  0.93419473535E+03  0.93995256661E+03  0.00000000000E+00 0. -1.
         22    1    3    3    0    0 -0.33241242689E+02 -0.45989224564E+02 -0.14774633653E+03  0.15826866067E+03  0.00000000000E+00 0. -1.
         22    1    3    3    0    0  0.58120412611E+02 -0.10647227006E+03 -0.90215452872E+03  0.91027310206E+03  0.00000000000E+00 0. -1.
</event>
<event>
 7    1  0.6330892E-006  0.2077283E+03  0.7818608E-02  0.1151086E+00
          2   -1    0    0  502    0  0.00000000000E+00  0.00000000000E+00  0.59625936887E+03  0.59625936887E+03  0.00000000000E+00 0. -1.
          1   -1    0    0  501    0 -0.00000000000E+00 -0.00000000000E+00 -0.83922099995E+03  0.83922099995E+03  0.00000000000E+00 0. -1.
         25    2    1    2    0    0  0.13512443714E+03 -0.11947557751E+02  0.85509689052E+02  0.20331880357E+03  0.12500108525E+03 0.  0.
          2    1    1    2  501    0  0.67483375274E+02 -0.17708965640E+03 -0.72446606967E+03  0.74884299986E+03  0.00000000000E+00 0. -1.
          1    1    1    2  502    0 -0.20260781241E+03  0.18903721415E+03  0.39599474954E+03  0.48331856538E+03  0.00000000000E+00 0. -1.
         22    1    3    3    0    0  0.71320602581E+02 -0.20307172363E+02  0.11150954224E+03  0.13391559884E+03  0.00000000000E+00 0.  1.
         22    1    3    3    0    0  0.63803834557E+02  0.83596146119E+01 -0.25999853190E+02  0.69403204728E+02  0.00000000000E+00 0.  1.
</event>
<event>
 7    1  0.6330892E-006  0.1303179E+03  0.7818608E-02  0.1244568E+00
          2   -1    0    0  502    0  0.00000000000E+00  0.00000000000E+00  0.55998320815E+03  0.55998320815E+03  0.00000000000E+00 0. -1.
          1   -1    0    0  501    0 -0.00000000000E+00 -0.00000000000E+00 -0.29440689741E+03  0.29440689741E+03  0.00000000000E+00 0. -1.
         25    2    1    2    0    0  0.50773419013E+02  0.99453646645E+01 -0.94739762903E+02  0.16515981038E+03  0.12500115972E+03 0.  0.
          2    1    1    2  501    0  0.21100021690E+02  0.10680669699E+03 -0.13606686197E+03  0.17426150569E+03  0.00000000000E+00 0. -1.
          1    1    1    2  502    0 -0.71873440702E+02 -0.11675206165E+03  0.49638293562E+03  0.51496878949E+03  0.00000000000E+00 0. -1.
         22    1    3    3    0    0  0.73202457382E+02  0.17045674422E+01 -0.11330130525E+03  0.13490252439E+03  0.00000000000E+00 0.  1.
         22    1    3    3    0    0 -0.22429038369E+02  0.82407972223E+01  0.18561542344E+02  0.30257285985E+02  0.00000000000E+00 0.  1.
</event>
<event>
 7    1  0.6330892E-006  0.1258624E+03  0.7818608E-02  0.1330383E+00
          2   -1    0    0  502    0  0.00000000000E+00  0.00000000000E+00  0.95488940686E+03  0.95488940686E+03  0.00000000000E+00 0. -1.
          1   -1    0    0  501    0 -0.00000000000E+00 -0.00000000000E+00 -0.51344477027E+03  0.51344477027E+03  0.00000000000E+00 0. -1.
         25    2    1    2    0    0 -0.50553349619E+02 -0.14395230731E+03 -0.52270567086E+02  0.20404618227E+03  0.12499889751E+03 0.  0.
          2    1    1    2  501    0 -0.24575836575E+02  0.43837820623E+02 -0.37916390440E+03  0.38248005524E+03  0.00000000000E+00 0. -1.
          1    1    1    2  502    0  0.75129186194E+02  0.10011448669E+03  0.87287910807E+03  0.88180793962E+03  0.00000000000E+00 0. -1.
         22    1    3    3    0    0 -0.54557560807E+02 -0.96620326766E+01  0.94337916934E+01  0.56203903266E+02  0.00000000000E+00 0. -1.
         22    1    3    3    0    0  0.40042111878E+01 -0.13429027463E+03 -0.61704358779E+02  0.14784227900E+03  0.00000000000E+00 0. -1.
</event>
<event>
 7    1  0.6330892E-006  0.1649449E+03  0.7818608E-02  0.1323144E+00
          2   -1    0    0  502    0  0.00000000000E+00  0.00000000000E+00  0.12587438575E+04  0.12587438575E+04  0.00000000000E+00 0. -1.
          1   -1    0    0  501    0 -0.00000000000E+00 -0.00000000000E+00 -0.94175693676E+03  0.94175693676E+03  0.00000000000E+00 0. -1.
         25    2    1    2    0    0 -0.69073118566E+02 -0.14820047216E+03 -0.74351479463E+03  0.77147515354E+03  0.12500074813E+03 0.  0.
          2    1    1    2  501    0 -0.35381531928E+02  0.20484087466E+02 -0.17644708030E+03  0.18112156908E+03  0.00000000000E+00 0. -1.
          1    1    1    2  502    0  0.10445465049E+03  0.12771638469E+03  0.12369487957E+04  0.12479040717E+04  0.00000000000E+00 0. -1.
         22    1    3    3    0    0  0.17134023067E+02  0.12413266335E+02 -0.12038118964E+03  0.12222640773E+03  0.00000000000E+00 0.  1.
         22    1    3    3    0    0 -0.86207141634E+02 -0.16061373849E+03 -0.62313360499E+03  0.64924874581E+03  0.00000000000E+00 0.  1.
</event>
<event>
 7    1  0.6330892E-006  0.1751765E+03  0.7818608E-02  0.1265057E+00
          2   -1    0    0  502    0  0.00000000000E+00  0.00000000000E+00  0.15315002009E+04  0.15315002009E+04  0.00000000000E+00 0. -1.
          1   -1    0    0  501    0 -0.00000000000E+00 -0.00000000000E+00 -0.12364792363E+03  0.12364792363E+03  0.00000000000E+00 0. -1.
         25    2    1    2    0    0  0.92255573901E+02 -0.76474120334E+02  0.42397153925E+03  0.45796730243E+03  0.12499120771E+03 0.  0.
          2    1    1    2  501    0 -0.14905321899E+03  0.11029926794E+03 -0.24143564725E+02  0.18699118246E+03  0.00000000000E+00 0. -1.
          1    1    1    2  502    0  0.56797645087E+02 -0.33825147609E+02  0.10080243027E+04  0.10101896396E+04  0.00000000000E+00 0. -1.
         22    1    3    3    0    0  0.63787836438E+02 -0.16191138416E+02  0.63736599160E+02  0.91615474201E+02  0.00000000000E+00 0.  1.
         22    1    3    3    0    0  0.28467737463E+02 -0.60282981919E+02  0.36023494009E+03  0.36635182823E+03  0.00000000000E+00 0.  1.
</event>
<event>
 7    1  0.6330892E-006  0.6825194E+02  0.7818608E-02  0.1511468E+00
          2   -1    0    0  502    0  0.00000000000E+00  0.00000000000E+00  0.23634631303E+03  0.23634631303E+03  0.00000000000E+00 0. -1.
          1   -1    0    0  501    0 -0.00000000000E+00 -0.00000000000E+00 -0.10046864252E+04  0.10046864252E+04  0.00000000000E+00 0. -1.
         25    2    1    2    0    0 -0.10396189229E+02  0.50589588822E+02 -0.15965401655E+03  0.20923487995E+03  0.12498977053E+03 0.  0.
          2    1    1    2  501    0 -0.20060291805E+02  0.11108516958E+02 -0.81448177685E+03  0.81480450372E+03  0.00000000000E+00 0. -1.
          1    1    1    2  502    0  0.30456481034E+02 -0.61698105779E+02  0.20579568125E+03  0.21699335454E+03  0.00000000000E+00 0. -1.
         22    1    3    3    0    0 -0.48595715951E+02  0.73073255848E+02 -0.83578741468E+02  0.12118849101E+03  0.00000000000E+00 0.  1.
         22    1    3    3    0    0  0.38199526722E+02 -0.22483667026E+02 -0.76075275084E+02  0.88046388931E+02  0.00000000000E+00 0.  1.
</event>
<event>
 7    1  0.6330892E-006  0.2453618E+03  0.7818608E-02  0.1202088E+00
          2   -1    0    0  502    0  0.00000000000E+00  0.00000000000E+00  0.52731435542E+03  0.52731435542E+03  0.00000000000E+00 0. -1.
          1   -1    0    0  501    0 -0.00000000000E+00 -0.00000000000E+00 -0.11231717960E+04  0.11231717960E+04  0.00000000000E+00 0. -1.
         25    2    1    2    0    0 -0.19145617510E+03  0.16081885159E+03 -0.23777512382E+03  0.36698728105E+03  0.12499793972E+03 0.  0.
          2    1    1    2  501    0 -0.41401765590E+02 -0.80035722664E+02 -0.78520762050E+03  0.79036120248E+03  0.00000000000E+00 0. -1.
          1    1    1    2  502    0  0.23285794069E+03 -0.80783128925E+02  0.42712530370E+03  0.49313766792E+03  0.00000000000E+00 0. -1.
         22    1    3    3    0    0 -0.57211824937E+02  0.12147244295E+03 -0.15235331136E+03  0.20307702674E+03  0.00000000000E+00 0. -1.
         22    1    3    3    0    0 -0.13424435016E+03  0.39346408641E+02 -0.85421812464E+02  0.16391025431E+03  0.00000000000E+00 0. -1.
</event>
<event>
 7    1  0.6330892E-006  0.7849862E+02  0.7818608E-02  0.1469366E+00
          2   -1    0    0  502    0  0.00000000000E+00  0.00000000000E+00  0.54750655299E+03  0.54750655299E+03  0.00000000000E+00 0. -1.
          1   -1    0    0  501    0 -0.00000000000E+00 -0.00000000000E+00 -0.45684392781E+03  0.45684392781E+03  0.00000000000E+00 0. -1.
         25    2    1    2    0    0 -0.52463113483E+02  0.21275083582E+00 -0.90766449116E+02  0.16314476840E+03  0.12500097453E+03 0.  0.
          2    1    1    2  501    0 -0.26639574743E+02 -0.21985739462E+01 -0.32627719682E+03  0.32737029467E+03  0.00000000000E+00 0. -1.
          1    1    1    2  502    0  0.79102688226E+02  0.19858231104E+01  0.50770627112E+03  0.51383541773E+03  0.00000000000E+00 0. -1.
         22    1    3    3    0    0  0.28172027602E+01  0.51852897565E+02 -0.65070741924E+02  0.83251793205E+02  0.00000000000E+00 0.  1.
         22    1    3    3    0    0 -0.55280316243E+02 -0.51640146729E+02 -0.25695707192E+02  0.79892975200E+02  0.00000000000E+00 0.  1.
</event>
<event>
 7    1  0.6330892E-006  0.7691423E+02  0.7818608E-02  0.1377954E+00
          2   -1    0    0  502    0  0.00000000000E+00  0.00000000000E+00  0.17209439516E+04  0.17209439516E+04  0.00000000000E+00 0. -1.
          1   -1    0    0  501    0 -0.00000000000E+00 -0.00000000000E+00 -0.38075980289E+03  0.38075980289E+03  0.00000000000E+00 0. -1.
         25    2    1    2    0    0  0.10346722008E+03 -0.67834559453E+02  0.10587975655E+03  0.20528712046E+03  0.12500114356E+03 0.  0.
          2    1    1    2  501    0 -0.54033276269E+02  0.99364153506E+01 -0.32784339909E+03  0.33241483364E+03  0.00000000000E+00 0. -1.
          1    1    1    2  502    0 -0.49433943809E+02  0.57898144102E+02  0.15621477912E+04  0.15640018004E+04  0.00000000000E+00 0. -1.
         22    1    3    3    0    0  0.23762560513E+02 -0.34982154361E+02 -0.24581597186E+02  0.48914878371E+02  0.00000000000E+00 0. -1.
         22    1    3    3    0    0  0.79704659565E+02 -0.32852405092E+02  0.13046135374E+03  0.15637224209E+03  0.00000000000E+00 0. -1.
</event>
<event>
 7    1  0.6330892E-006  0.1222695E+03  0.7818608E-02  0.1286996E+00
          2   -1    0    0  502    0  0.00000000000E+00  0.00000000000E+00  0.10379881710E+04  0.10379881710E+04  0.00000000000E+00 0. -1.
          1   -1    0    0  501    0 -0.00000000000E+00 -0.00000000000E+00 -0.76723898829E+03  0.76723898829E+03  0.00000000000E+00 0. -1.
         25    2    1    2    0    0 -0.41247724332E+02 -0.62953995703E+02  0.42223503137E+03  0.44673522265E+03  0.12500142840E+03 0.  0.
          2    1    1    2  501    0  0.11530798111E+03  0.42762643216E+02 -0.74750280282E+03  0.75755198791E+03  0.00000000000E+00 0. -1.
          1    1    1    2  502    0 -0.74060256775E+02  0.20191352487E+02  0.59601695420E+03  0.60093994879E+03  0.00000000000E+00 0. -1.
         22    1    3    3    0    0 -0.68152903272E+02 -0.73713979234E+02  0.21265016879E+03  0.23515667808E+03  0.00000000000E+00 0. -1.
         22    1    3    3    0    0  0.26905178940E+02  0.10759983531E+02  0.20958486258E+03  0.21157854457E+03  0.00000000000E+00 0. -1.
</event>
<event>
 7    1  0.6330892E-006  0.3239134E+02  0.7818608E-02  0.1599025E+00
          2   -1    0    0  502    0  0.00000000000E+00  0.00000000000E+00  0.84857020748E+01  0.84857020748E+01  0.00000000000E+00 0. -1.
          1   -1    0    0  501    0 -0.00000000000E+00 -0.00000000000E+00 -0.18266908692E+04  0.18266908692E+04  0.00000000000E+00 0. -1.
         25    2    1    2    0    0 -0.13065949671E+02 -0.40418431870E+02 -0.14706404795E+04  0.14765541819E+04  0.12499785376E+03 0.  0.
          2    1    1    2  501    0 -0.12220431317E+02  0.29284986133E+02 -0.31188900849E+03  0.31349912754E+03  0.00000000000E+00 0. -1.
          1    1    1    2  502    0  0.25286380988E+02  0.11133445737E+02 -0.35675679153E+02  0.45123261855E+02  0.00000000000E+00 0. -1.
         22    1    3    3    0    0  0.42051844757E+02  0.23044407444E+02 -0.54283412596E+03  0.54494797060E+03  0.00000000000E+00 0.  1.
         22    1    3    3    0    0 -0.55117794428E+02 -0.63462839313E+02 -0.92780635351E+03  0.93160621126E+03  0.00000000000E+00 0.  1.
</event>
<event>
 7    1  0.6330892E-006  0.1216608E+03  0.7818608E-02  0.1333860E+00
          2   -1    0    0  502    0  0.00000000000E+00  0.00000000000E+00  0.30532679973E+03  0.30532679973E+03  0.00000000000E+00 0. -1.
          1   -1    0    0  501    0 -0.00000000000E+00 -0.00000000000E+00 -0.98792523078E+03  0.98792523078E+03  0.00000000000E+00 0. -1.
         25    2    1    2    0    0  0.51150099816E+02  0.50713984142E+02  0.24253356181E+03  0.28220130200E+03  0.12500722119E+03 0.  0.
          2    1    1    2  501    0 -0.89058661708E+02 -0.83974300398E+02 -0.94786260631E+03  0.95573356580E+03  0.00000000000E+00 0. -1.
          1    1    1    2  502    0  0.37908561892E+02  0.33260316256E+02  0.22730613458E+02  0.55317162710E+02  0.00000000000E+00 0. -1.
         22    1    3    3    0    0  0.26458505883E+02  0.33709291470E+02  0.24804404117E+03  0.25171852380E+03  0.00000000000E+00 0.  1.
         22    1    3    3    0    0  0.24691593932E+02  0.17004692672E+02 -0.55104793671E+01  0.30482778197E+02  0.00000000000E+00 0.  1.
</event>
<event>
 7    1  0.6330892E-006  0.2002898E+03  0.7818608E-02  0.1239527E+00
          2   -1    0    0  502    0  0.00000000000E+00  0.00000000000E+00  0.21619903888E+04  0.21619903888E+04  0.00000000000E+00 0. -1.
          1   -1    0    0  501    0 -0.00000000000E+00 -0.00000000000E+00 -0.88499316660E+03  0.88499316660E+03  0.00000000000E+00 0. -1.
         25    2    1    2    0    0  0.18229939395E+03  0.84890792165E+02  0.96478890649E+03  0.99341961379E+03  0.12500151735E+03 0.  0.
          2    1    1    2  501    0 -0.20005235776E+03 -0.12491461695E+02 -0.85793995080E+03  0.88104366614E+03  0.00000000000E+00 0. -1.
          1    1    1    2  502    0  0.17752963809E+02 -0.72399330469E+02  0.11701482665E+04  0.11725202755E+04  0.00000000000E+00 0. -1.
         22    1    3    3    0    0  0.11665951478E+03  0.10631015448E+03  0.52395487912E+03  0.54721111710E+03  0.00000000000E+00 0.  1.
         22    1    3    3    0    0  0.65639879170E+02 -0.21419362316E+02  0.44083402738E+03  0.44620849669E+03  0.00000000000E+00 0.  1.
</event>
<event>
 7    1  0.6330892E-006  0.8133086E+02  0.7818608E-02  0.1396713E+00
          2   -1    0    0  502    0  0.00000000000E+00  0.00000000000E+00  0.28911630696E+03  0.28911630696E+03  0.00000000000E+00 0. -1.
          1   -1    0    0  501    0 -0.00000000000E+00 -0.00000000000E+00 -0.13735851550E+03  0.13735851550E+03  0.00000000000E+00 0. -1.
         25    2    1    2    0    0 -0.46957304466E+02  0.23067284132E+02  0.23046085810E+03  0.26734600440E+03  0.12499836364E+03 0.  0.
          2    1    1    2  501    0  0.49597571886E+02 -0.67648087186E+02 -0.77880953052E+02  0.11446233304E+03  0.00000000000E+00 0. -1.
          1    1    1    2  502    0 -0.26402674197E+01  0.44580803054E+02 -0.82211358481E+00  0.44666485017E+02  0.00000000000E+00 0. -1.
         22    1    3    3    0    0  0.25148605418E+02  0.81958890121E+00  0.33522047718E+00  0.25164189898E+02  0.00000000000E+00 0.  1.
         22    1    3    3    0    0 -0.72105909884E+02  0.22247695231E+02  0.23012563763E+03  0.24218181450E+03  0.00000000000E+00 0.  1.
</event>
<event>
 7    1  0.6330892E-006  0.7029680E+02  0.7818608E-02  0.1480273E+00
          2   -1    0    0  502    0  0.00000000000E+00  0.00000000000E+00  0.35249445147E+04  0.35249445147E+04  0.00000000000E+00 0. -1.
          1   -1    0    0  501    0 -0.00000000000E+00 -0.00000000000E+00 -0.68949651672E+02  0.68949651672E+02  0.00000000000E+00 0. -1.
         25    2    1    2    0    0  0.42836140014E+02  0.26689109546E+02  0.26446554644E+04  0.26480888284E+04  0.12499869592E+03 0.  0.
          2    1    1    2  501    0 -0.44980625063E+02 -0.54225814399E+02 -0.48493068244E+02  0.85529370663E+02  0.00000000000E+00 0. -1.
          1    1    1    2  502    0  0.21444850488E+01  0.27536704853E+02  0.85983246681E+03  0.86027596729E+03  0.00000000000E+00 0. -1.
         22    1    3    3    0    0 -0.12635015945E+02  0.30609060572E+02  0.21599460290E+04  0.21601998534E+04  0.00000000000E+00 0. -1.
         22    1    3    3    0    0  0.55471155959E+02 -0.39199510262E+01  0.48470943540E+03  0.48788897500E+03  0.00000000000E+00 0. -1.
</event>
<event>
 7    1  0.6407701E-006  0.4239038E+02  0.7818608E-02  0.1502724E+00
          2   -1    0    0  502    0  0.00000000000E+00  0.00000000000E+00  0.81284954678E+03  0.81284954678E+03  0.00000000000E+00 0. -1.
          1   -1    0    0  501    0 -0.00000000000E+00 -0.00000000000E+00 -0.12308125097E+04  0.12308125097E+04  0.00000000000E+00 0. -1.
         25    2    1    2    0    0 -0.22012750379E+02 -0.41259309248E+02 -0.29832990775E+03  0.32682159142E+03  0.12499890793E+03 0.  0.
          2    1    1    2  501    0  0.42152463773E+02  0.76475413884E+01 -0.91725587402E+03  0.91825576693E+03  0.00000000000E+00 0. -1.
          1    1    1    2  502    0 -0.20139713394E+02  0.33611767860E+02  0.79762281883E+03  0.79858469815E+03  0.00000000000E+00 0. -1.
         22    1    3    3    0    0 -0.15075392029E+02  0.12946179305E+02 -0.25834430035E+03  0.25910740732E+03  0.00000000000E+00 0.  1.
         22    1    3    3    0    0 -0.69373583496E+01 -0.54205488553E+02 -0.39985607398E+02  0.67714184107E+02  0.00000000000E+00 0.  1.
</event>
<event>
 7    1  0.6330892E-006  0.1852452E+03  0.7818608E-02  0.1341332E+00
          2   -1    0    0  502    0  0.00000000000E+00  0.00000000000E+00  0.21961927070E+03  0.21961927070E+03  0.00000000000E+00 0. -1.
          1   -1    0    0  501    0 -0.00000000000E+00 -0.00000000000E+00 -0.28649601109E+04  0.28649601109E+04  0.00000000000E+00 0. -1.
         25    2    1    2    0    0 -0.82127045082E+01 -0.15699270681E+03 -0.24708765958E+03  0.31841939868E+03  0.12499777372E+03 0.  0.
          2    1    1    2  501    0  0.50713429718E+01  0.18787092884E+03 -0.25774511219E+04  0.25842940023E+04  0.00000000000E+00 0. -1.
          1    1    1    2  502    0  0.31413615364E+01 -0.30878222030E+02  0.17919794129E+03  0.18186598063E+03  0.00000000000E+00 0. -1.
         22    1    3    3    0    0  0.55393362722E+02 -0.81930622550E+02 -0.15368920936E+03  0.18276056637E+03  0.00000000000E+00 0.  1.
         22    1    3    3    0    0 -0.63606067230E+02 -0.75062084255E+02 -0.93398450218E+02  0.13565883231E+03  0.00000000000E+00 0.  1.
</event>
<event>
 7    1  0.6330892E-006  0.7770944E+02  0.7818608E-02  0.1345230E+00
          2   -1    0    0  502    0  0.00000000000E+00  0.00000000000E+00  0.17579886297E+04  0.17579886297E+04  0.00000000000E+00 0. -1.
          1   -1    0    0  501    0 -0.00000000000E+00 -0.00000000000E+00 -0.78654339794E+02  0.78654339794E+02  0.00000000000E+00 0. -1.
         25    2    1    2    0    0 -0.29834451990E+01  0.15988687669E+02  0.41234210805E+03  0.43118171892E+03  0.12500848605E+03 0.  0.
          2    1    1    2  501    0 -0.33620837274E+02  0.63151933766E+02 -0.48915705807E+02  0.86667604744E+02  0.00000000000E+00 0. -1.
          1    1    1    2  502    0  0.36604282473E+02 -0.79140621435E+02  0.13159078876E+04  0.13187936458E+04  0.00000000000E+00 0. -1.
         22    1    3    3    0    0  0.23920961975E+02  0.21867220884E+02  0.39947036701E+03  0.40078293613E+03  0.00000000000E+00 0. -1.
         22    1    3    3    0    0 -0.26904407174E+02 -0.58785332151E+01  0.12871741037E+02  0.30398782796E+02  0.00000000000E+00 0. -1.
</event>
<event>
 7    1  0.6330892E-006  0.5122107E+02  0.7818608E-02  0.1503088E+00
          2   -1    0    0  502    0  0.00000000000E+00  0.00000000000E+00  0.18187894824E+04  0.18187894824E+04  0.00000000000E+00 0. -1.
          1   -1    0    0  501    0 -0.00000000000E+00 -0.00000000000E+00 -0.63324425985E+03  0.63324425985E+03  0.00000000000E+00 0. -1.
         25    2    1    2    0    0 -0.34933774258E+02  0.21509881313E+02  0.94418502526E+02  0.16193463391E+03  0.12499971384E+03 0.  0.
          2    1    1    2  501    0  0.50962792935E+02  0.65871089543E+01 -0.59822988496E+03  0.60043283682E+03  0.00000000000E+00 0. -1.
          1    1    1    2  502    0 -0.16029018676E+02 -0.28096990267E+02  0.16893566050E+04  0.16896662715E+04  0.00000000000E+00 0. -1.
         22    1    3    3    0    0 -0.33232976327E+02 -0.17271075878E+00 -0.24344829652E+02  0.41196253171E+02  0.00000000000E+00 0. -1.
         22    1    3    3    0    0 -0.17007979317E+01  0.21682592072E+02  0.11876333218E+03  0.12073838074E+03  0.00000000000E+00 0. -1.
</event>
<event>
 7    1  0.6330892E-006  0.1360011E+03  0.7818608E-02  0.1331994E+00
          2   -1    0    0  502    0  0.00000000000E+00  0.00000000000E+00  0.48517724184E+03  0.48517724184E+03  0.00000000000E+00 0. -1.
          1   -1    0    0  501    0 -0.00000000000E+00 -0.00000000000E+00 -0.49078092282E+03  0.49078092282E+03  0.00000000000E+00 0. -1.
         25    2    1    2    0    0 -0.12483483060E+03 -0.94877929656E+02  0.17853614405E+03  0.26848669480E+03  0.12499757632E+03 0.  0.
          2    1    1    2  501    0  0.46902714135E+01  0.45616337583E+02 -0.42839660165E+03  0.43084393602E+03  0.00000000000E+00 0. -1.
          1    1    1    2  502    0  0.12014455919E+03  0.49261592073E+02  0.24425677662E+03  0.27662753384E+03  0.00000000000E+00 0. -1.
         22    1    3    3    0    0  0.91098832243E+01  0.17388123658E+02  0.43170776808E+02  0.47424179349E+02  0.00000000000E+00 0. -1.
         22    1    3    3    0    0 -0.13394471382E+03 -0.11226605331E+03  0.13536536724E+03  0.22106251545E+03  0.00000000000E+00 0. -1.
</event>
<event>
 7    1  0.6330892E-006  0.7533431E+02  0.7818608E-02  0.1487543E+00
          2   -1    0    0  502    0  0.00000000000E+00  0.00000000000E+00  0.15869779742E+04  0.15869779742E+04  0.00000000000E+00 0. -1.
          1   -1    0    0  501    0 -0.00000000000E+00 -0.00000000000E+00 -0.11716199721E+03  0.11716199721E+03  0.00000000000E+00 0. -1.
         25    2    1    2    0    0 -0.61859229445E+02  0.65037638267E+02  0.52371543152E+03  0.54585717399E+03  0.12500297006E+03 0.  0.
          2    1    1    2  501    0  0.24454293714E+02 -0.13214711367E+01 -0.10336150705E+03  0.10622316087E+03  0.00000000000E+00 0. -1.
          1    1    1    2  502    0  0.37404935731E+02 -0.63716167131E+02  0.10494620525E+04  0.10520596366E+04  0.00000000000E+00 0. -1.
         22    1    3    3    0    0 -0.98354765775E+02  0.53035490846E+02  0.33109723626E+03  0.34944499295E+03  0.00000000000E+00 0. -1.
         22    1    3    3    0    0  0.36495536329E+02  0.12002147421E+02  0.19261819526E+03  0.19641218104E+03  0.00000000000E+00 0. -1.
</event>
<event>
 7    1  0.6330892E-006  0.2019732E+03  0.7818608E-02  0.1200017E+00
          2   -1    0    0  502    0  0.00000000000E+00  0.00000000000E+00  0.21592987717E+03  0.21592987717E+03  0.00000000000E+00 0. -1.
          1   -1    0    0  501    0 -0.00000000000E+00 -0.00000000000E+00 -0.27405591866E+04  0.27405591866E+04  0.00000000000E+00 0. -1.
         25    2    1    2    0    0 -0.46948641116E+02  0.24569393801E+03 -0.64662685740E+03  0.70450093639E+03  0.12500236234E+03 0.  0.
          2    1    1    2  501    0 -0.50641726461E+02 -0.19083335203E+03 -0.20430419458E+04  0.20525599492E+04  0.00000000000E+00 0. -1.
          1    1    1    2  502    0  0.97590367577E+02 -0.54860585980E+02  0.16503949379E+03  0.19942817817E+03  0.00000000000E+00 0. -1.
         22    1    3    3    0    0 -0.67312030466E+02  0.63589723592E+02 -0.16521679451E+03  0.18939680985E+03  0.00000000000E+00 0. -1.
         22    1    3    3    0    0  0.20363389350E+02  0.18210421442E+03 -0.48141006289E+03  0.51510412655E+03  0.00000000000E+00 0. -1.
</event>
<event>
 7    1  0.6330892E-006  0.1074532E+03  0.7818608E-02  0.1308714E+00
          2   -1    0    0  502    0  0.00000000000E+00  0.00000000000E+00  0.14337807640E+04  0.14337807640E+04  0.00000000000E+00 0. -1.
          1   -1    0    0  501    0 -0.00000000000E+00 -0.00000000000E+00 -0.21662879215E+03  0.21662879215E+03  0.00000000000E+00 0. -1.
         25    2    1    2    0    0 -0.87789860055E+02 -0.90748981400E+02  0.10810279097E+03  0.20796898091E+03  0.12498978539E+03 0.  0.
          2    1    1    2  501    0 -0.17596129337E+02  0.69250429466E+02 -0.15665207885E+03  0.17217758146E+03  0.00000000000E+00 0. -1.
          1    1    1    2  502    0  0.10538598939E+03  0.21498551934E+02  0.12657012598E+04  0.12702629938E+04  0.00000000000E+00 0. -1.
         22    1    3    3    0    0 -0.13110939545E+01 -0.70416455731E+02  0.31960803551E+01  0.70501142790E+02  0.00000000000E+00 0. -1.
         22    1    3    3    0    0 -0.86478766101E+02 -0.20332525669E+02  0.10490671061E+03  0.13746783812E+03  0.00000000000E+00 0. -1.
</event>
<event>
 7    1  0.6330892E-006  0.2067636E+03  0.7818608E-02  0.1215098E+00
          2   -1    0    0  502    0  0.00000000000E+00  0.00000000000E+00  0.79567055714E+03  0.79567055714E+03  0.00000000000E+00 0. -1.
          1   -1    0    0  501    0 -0.00000000000E+00 -0.00000000000E+00 -0.81150855894E+03  0.81150855894E+03  0.00000000000E+00 0. -1.
         25    2    1    2    0    0  0.50256668690E+02 -0.21426386512E+03  0.44312425066E+03  0.51031139215E+03  0.12499551508E+03 0.  0.
          2    1    1    2  501    0  0.42047360611E+02  0.20263924469E+03 -0.75693079709E+03  0.78471324419E+03  0.00000000000E+00 0. -1.
          1    1    1    2  502    0 -0.92304029301E+02  0.11624620434E+02  0.29796854464E+03  0.31215447974E+03  0.00000000000E+00 0. -1.
         22    1    3    3    0    0 -0.36402537141E+01 -0.17178613299E+03  0.23465595013E+03  0.29083868702E+03  0.00000000000E+00 0. -1.
         22    1    3    3    0    0  0.53896922404E+02 -0.42477732131E+02  0.20846830053E+03  0.21947270513E+03  0.00000000000E+00 0. -1.
</event>
<event>
 7    1  0.6330892E-006  0.5931744E+02  0.7818608E-02  0.1480094E+00
          2   -1    0    0  502    0  0.00000000000E+00  0.00000000000E+00  0.33331961213E+03  0.33331961213E+03  0.00000000000E+00 0. -1.
          1   -1    0    0  501    0 -0.00000000000E+00 -0.00000000000E+00 -0.19506853175E+04  0.19506853175E+04  0.00000000000E+00 0. -1.
         25    2    1    2    0    0 -0.56566761450E+02 -0.31557597069E+02 -0.75136403127E+03  0.76444067494E+03  0.12500383027E+03 0.  0.
          2    1    1    2  501    0  0.30381089071E+02  0.51266576449E+02 -0.11912144953E+04  0.11927041739E+04  0.00000000000E+00 0. -1.
          1    1    1    2  502    0  0.26185672379E+02 -0.19708979380E+02  0.32521282127E+03  0.32686008080E+03  0.00000000000E+00 0. -1.
         22    1    3    3    0    0 -0.28006126522E+02 -0.78186098332E+02 -0.52735199134E+03  0.53385160098E+03  0.00000000000E+00 0. -1.
         22    1    3    3    0    0 -0.28560634929E+02  0.46628501263E+02 -0.22401203992E+03  0.23058907396E+03  0.00000000000E+00 0. -1.
</event>
<event>
 7    1  0.6330892E-006  0.6623259E+02  0.7818608E-02  0.1421182E+00
          2   -1    0    0  502    0  0.00000000000E+00  0.00000000000E+00  0.17308570420E+04  0.17308570420E+04  0.00000000000E+00 0. -1.
          1   -1    0    0  501    0 -0.00000000000E+00 -0.00000000000E+00 -0.17473744155E+03  0.17473744155E+03  0.00000000000E+00 0. -1.
         25    2    1    2    0    0  0.43325346717E+02 -0.34441267017E+02  0.36354057317E+03  0.38839384092E+03  0.12499896313E+03 0.  0.
          2    1    1    2  501    0 -0.31617199342E+02 -0.32433023060E+02 -0.15828173341E+03  0.16463491552E+03  0.00000000000E+00 0. -1.
          1    1    1    2  502    0 -0.11708147375E+02  0.66874290077E+02  0.13508607606E+04  0.13525657271E+04  0.00000000000E+00 0. -1.
         22    1    3    3    0    0  0.26449737042E+02  0.34154287807E+02  0.46053617689E+02  0.63143009648E+02  0.00000000000E+00 0.  1.
         22    1    3    3    0    0  0.16875609675E+02 -0.68595554824E+02  0.31748695548E+03  0.32525083128E+03  0.00000000000E+00 0.  1.
</event>
<event>
 7    1  0.6330892E-006  0.1114255E+03  0.7818608E-02  0.1283404E+00
          2   -1    0    0  502    0  0.00000000000E+00  0.00000000000E+00  0.27277431135E+04  0.27277431135E+04  0.00000000000E+00 0. -1.
          1   -1    0    0  501    0 -0.00000000000E+00 -0.00000000000E+00 -0.11785988417E+04  0.11785988417E+04  0.00000000000E+00 0. -1.
         25    2    1    2    0    0 -0.74075435141E+02 -0.60816884329E+02  0.10302089197E+04  0.10421816547E+04  0.12500527893E+03 0.  0.
          2    1    1    2  501    0 -0.51296991414E+02  0.70439723964E+02 -0.11686514033E+04  0.11718955749E+04  0.00000000000E+00 0. -1.
          1    1    1    2  502    0  0.12537242656E+03 -0.96228396354E+01  0.16875867554E+04  0.16922647256E+04  0.00000000000E+00 0. -1.
         22    1    3    3    0    0 -0.72195163869E+02 -0.64252385002E+02  0.38448111687E+03  0.39644197544E+03  0.00000000000E+00 0. -1.
         22    1    3    3    0    0 -0.18802712721E+01  0.34355006733E+01  0.64572780279E+03  0.64573967926E+03  0.00000000000E+00 0. -1.
</event>
<event>
 7    1  0.6330892E-006  0.3114311E+03  0.7818608E-02  0.1087086E+00
          2   -1    0    0  502    0  0.00000000000E+00  0.00000000000E+00  0.92950209564E+03  0.92950209564E+03  0.00000000000E+00 0. -1.
          1   -1    0    0  501    0 -0.00000000000E+00 -0.00000000000E+00 -0.44274075143E+03  0.44274075143E+03  0.00000000000E+00 0. -1.
         25    2    1    2    0    0  0.13026961357E+03  0.25252633827E+03  0.15101232658E+03  0.34520867568E+03  0.12499833296E+03 0.  0.
          2    1    1    2  501    0 -0.31034224440E+03  0.26020076839E+02 -0.21897668927E+03  0.38071005175E+03  0.00000000000E+00 0. -1.
          1    1    1    2  502    0  0.18007263083E+03 -0.27854641511E+03  0.55472570690E+03  0.64632411965E+03  0.00000000000E+00 0. -1.
         22    1    3    3    0    0  0.24365081483E+02  0.14020561161E+02  0.64369455352E+02  0.70240017890E+02  0.00000000000E+00 0. -1.
         22    1    3    3    0    0  0.10590453208E+03  0.23850577711E+03  0.86642871233E+02  0.27496865779E+03  0.00000000000E+00 0. -1.
</event>
<event>
 7    1  0.6330892E-006  0.2135190E+03  0.7818608E-02  0.1217175E+00
          2   -1    0    0  502    0  0.00000000000E+00  0.00000000000E+00  0.91575709794E+03  0.91575709794E+03  0.00000000000E+00 0. -1.
          1   -1    0    0  501    0 -0.00000000000E+00 -0.00000000000E+00 -0.14819327108E+04  0.14819327108E+04  0.00000000000E+00 0. -1.
         25    2    1    2    0    0  0.13463900211E+03 -0.21123685372E+03  0.28703894321E+03  0.40095503894E+03  0.12499967630E+03 0.  0.
          2    1    1    2  501    0  0.26017563006E+02  0.84206360692E+02 -0.14052083976E+04  0.14079695541E+04  0.00000000000E+00 0. -1.
          1    1    1    2  502    0 -0.16065656512E+03  0.12703049303E+03  0.55199384152E+03  0.58876521564E+03  0.00000000000E+00 0. -1.
         22    1    3    3    0    0 -0.97922469598E+01 -0.44807061831E+02  0.99620314574E+01  0.46934027754E+02  0.00000000000E+00 0. -1.
         22    1    3    3    0    0  0.14443124907E+03 -0.16642979189E+03  0.27707691175E+03  0.35402101119E+03  0.00000000000E+00 0. -1.
</event>
<event>
 7    1  0.6330892E-006  0.7582457E+02  0.7818608E-02  0.1454224E+00
          2   -1    0    0  502    0  0.00000000000E+00  0.00000000000E+00  0.11463051207E+04  0.11463051207E+04  0.00000000000E+00 0. -1.
          1   -1    0    0  501    0 -0.00000000000E+00 -0.00000000000E+00 -0.17310423029E+04  0.17310423029E+04  0.00000000000E+00 0. -1.
         25    2    1    2    0    0  0.73973592605E+02  0.35950838050E+02 -0.29428577763E+03  0.33014175503E+03  0.12499961734E+03 0.  0.
          2    1    1    2  501    0 -0.50737208062E+02 -0.56291664864E+02 -0.14176049726E+04  0.14196291326E+04  0.00000000000E+00 0. -1.
          1    1    1    2  502    0 -0.23236384543E+02  0.20340826814E+02  0.11271535679E+04  0.11275765360E+04  0.00000000000E+00 0. -1.
         22    1    3    3    0    0  0.10475687424E+03  0.13049756925E+02 -0.25101808815E+03  0.27231301738E+03  0.00000000000E+00 0. -1.
         22    1    3    3    0    0 -0.30783281633E+02  0.22901081126E+02 -0.43267689486E+02  0.57828737651E+02  0.00000000000E+00 0. -1.
</event>
<event>
 7    1  0.6330892E-006  0.5181777E+02  0.7818608E-02  0.1533992E+00
          2   -1    0    0  502    0  0.00000000000E+00  0.00000000000E+00  0.93557568861E+03  0.93557568861E+03  0.00000000000E+00 0. -1.
          1   -1    0    0  501    0 -0.00000000000E+00 -0.00000000000E+00 -0.95725861203E+02  0.95725861203E+02  0.00000000000E+00 0. -1.
         25    2    1    2    0    0  0.41822720761E+02 -0.21201009872E+01  0.37648099598E+03  0.39889385959E+03  0.12499894434E+03 0.  0.
          2    1    1    2  501    0 -0.46572099616E+02 -0.23436913417E+02 -0.76136302279E+02  0.92276681225E+02  0.00000000000E+00 0. -1.
          1    1    1    2  502    0  0.47493788551E+01  0.25557014404E+02  0.53950513371E+03  0.54013100900E+03  0.00000000000E+00 0. -1.
         22    1    3    3    0    0  0.75187844010E+01  0.59963646954E+02  0.18995608236E+03  0.19933761386E+03  0.00000000000E+00 0. -1.
         22    1    3    3    0    0  0.34303936360E+02 -0.62083747941E+02  0.18652491362E+03  0.19955624573E+03  0.00000000000E+00 0. -1.
</event>
<event>
 7    1  0.6330892E-006  0.4785496E+02  0.7818608E-02  0.1546440E+00
          2   -1    0    0  502    0  0.00000000000E+00  0.00000000000E+00  0.12839317968E+04  0.12839317968E+04  0.00000000000E+00 0. -1.
          1   -1    0    0  501    0 -0.00000000000E+00 -0.00000000000E+00 -0.66391105777E+03  0.66391105777E+03  0.00000000000E+00 0. -1.
         25    2    1    2    0    0  0.36590789332E+02  0.51511694621E+02 -0.61290946222E+02  0.15288880339E+03  0.12500426219E+03 0.  0.
          2    1    1    2  501    0 -0.11165475794E+02 -0.46284362771E+02 -0.55566698530E+03  0.55770306494E+03  0.00000000000E+00 0. -1.
          1    1    1    2  502    0 -0.25425313538E+02 -0.52273318497E+01  0.12369786705E+04  0.12372509862E+04  0.00000000000E+00 0. -1.
         22    1    3    3    0    0  0.27488790107E+01  0.75930729081E+02  0.32287027891E+01  0.76049039943E+02  0.00000000000E+00 0.  1.
         22    1    3    3    0    0  0.33841910321E+02 -0.24419034460E+02 -0.64519649012E+02  0.76839763448E+02  0.00000000000E+00 0.  1.
</event>
<event>
 7    1  0.6330892E-006  0.1006114E+03  0.7818608E-02  0.1465386E+00
          2   -1    0    0  502    0  0.00000000000E+00  0.00000000000E+00  0.77955173268E+03  0.77955173268E+03  0.00000000000E+00 0. -1.
          1   -1    0    0  501    0 -0.00000000000E+00 -0.00000000000E+00 -0.60188530838E+03  0.60188530838E+03  0.00000000000E+00 0. -1.
         25    2    1    2    0    0 -0.65431624246E+02  0.68203693234E+02 -0.25108426182E+03  0.29597509125E+03  0.12499962752E+03 0.  0.
          2    1    1    2  501    0  0.12476208606E+02  0.17461492590E+02 -0.32465059329E+03  0.32535913577E+03  0.00000000000E+00 0. -1.
          1    1    1    2  502    0  0.52955415639E+02 -0.85665185824E+02  0.75340127941E+03  0.76010281405E+03  0.00000000000E+00 0. -1.
         22    1    3    3    0    0  0.15740613060E+01  0.35957437739E+02 -0.20577184476E+03  0.20889582833E+03  0.00000000000E+00 0.  1.
         22    1    3    3    0    0 -0.67005685552E+02  0.32246255495E+02 -0.45312417060E+02  0.87079262913E+02  0.00000000000E+00 0.  1.
</event>
<event>
 7    1  0.6330892E-006  0.5062148E+02  0.7818608E-02  0.1470230E+00
          2   -1    0    0  502    0  0.00000000000E+00  0.00000000000E+00  0.77595051964E+03  0.77595051964E+03  0.00000000000E+00 0. -1.
          1   -1    0    0  501    0 -0.00000000000E+00 -0.00000000000E+00 -0.95079792531E+02  0.95079792531E+02  0.00000000000E+00 0. -1.
         25    2    1    2    0    0 -0.26355394736E+02  0.53465440300E+02  0.10017275917E+03  0.17091331635E+03  0.12499447943E+03 0.  0.
          2    1    1    2  501    0  0.40915381375E+02 -0.47876550606E+01 -0.51461657663E+02  0.65918831023E+02  0.00000000000E+00 0. -1.
          1    1    1    2  502    0 -0.14559986638E+02 -0.48677785239E+02  0.63215962561E+03  0.63419816480E+03  0.00000000000E+00 0. -1.
         22    1    3    3    0    0  0.66162874776E+01  0.43941458384E+02  0.12227040807E+03  0.13009488734E+03  0.00000000000E+00 0. -1.
         22    1    3    3    0    0 -0.32971682214E+02  0.95239819161E+01 -0.22097648899E+02  0.40818429005E+02  0.00000000000E+00 0. -1.
</event>
<event>
 7    1  0.6330892E-006  0.5891033E+02  0.7818608E-02  0.1415370E+00
          2   -1    0    0  502    0  0.00000000000E+00  0.00000000000E+00  0.16146648372E+02  0.16146648372E+02  0.00000000000E+00 0. -1.
          1   -1    0    0  501    0 -0.00000000000E+00 -0.00000000000E+00 -0.14467535707E+04  0.14467535707E+04  0.00000000000E+00 0. -1.
         25    2    1    2    0    0  0.11559501403E+02  0.36633839417E+02 -0.34159228018E+03  0.36576769864E+03  0.12500025291E+03 0.  0.
          2    1    1    2  501    0 -0.60510515024E+02 -0.15654170445E+02 -0.84816952327E+03  0.85046935024E+03  0.00000000000E+00 0. -1.
          1    1    1    2  502    0  0.48951013621E+02 -0.20979668972E+02 -0.24084511889E+03  0.24666317021E+03  0.00000000000E+00 0. -1.
         22    1    3    3    0    0  0.52483112832E+02 -0.15010557356E+02 -0.86351102927E+02  0.10215824461E+03  0.00000000000E+00 0.  1.
         22    1    3    3    0    0 -0.40923611429E+02  0.51644396773E+02 -0.25524117725E+03  0.26360945403E+03  0.00000000000E+00 0.  1.
</event>
<event>
 7    1  0.6330892E-006  0.5354133E+02  0.7818608E-02  0.1434538E+00
          2   -1    0    0  502    0  0.00000000000E+00  0.00000000000E+00  0.54724827989E+02  0.54724827989E+02  0.00000000000E+00 0. -1.
          1   -1    0    0  501    0 -0.00000000000E+00 -0.00000000000E+00 -0.92262448387E+03  0.92262448387E+03  0.00000000000E+00 0. -1.
         25    2    1    2    0    0 -0.16868534911E+02  0.26211885219E+02 -0.10825454726E+03  0.16826975832E+03  0.12499621661E+03 0.  0.
          2    1    1    2  501    0 -0.29644867958E+02 -0.46182266041E+02 -0.75636592204E+03  0.75835415732E+03  0.00000000000E+00 0. -1.
          1    1    1    2  502    0  0.46513402869E+02  0.19970380821E+02 -0.32791865751E+01  0.50725396215E+02  0.00000000000E+00 0. -1.
         22    1    3    3    0    0 -0.76569974506E+01 -0.24378828171E+02  0.18456859483E+02  0.31521620119E+02  0.00000000000E+00 0. -1.
         22    1    3    3    0    0 -0.92115374604E+01  0.50590713390E+02 -0.12671140674E+03  0.13674813820E+03  0.00000000000E+00 0. -1.
</event>
<event>
 7    1  0.6330892E-006  0.7397257E+02  0.7818608E-02  0.1375798E+00
          2   -1    0    0  502    0  0.00000000000E+00  0.00000000000E+00  0.46319321844E+03  0.46319321844E+03  0.00000000000E+00 0. -1.
          1   -1    0    0  501    0 -0.00000000000E+00 -0.00000000000E+00 -0.59672505773E+03  0.59672505773E+03  0.00000000000E+00 0. -1.
         25    2    1    2    0    0  0.61041030709E+02 -0.23476217224E+02 -0.19649566313E+03  0.24189283095E+03  0.12499782330E+03 0.  0.
          2    1    1    2  501    0  0.49123158088E+01  0.57934006847E+02 -0.37211459505E+03  0.37662946226E+03  0.00000000000E+00 0. -1.
          1    1    1    2  502    0 -0.65953346518E+02 -0.34457789624E+02  0.43507841890E+03  0.44139598296E+03  0.00000000000E+00 0. -1.
         22    1    3    3    0    0  0.35141122752E+02 -0.12844918465E+02  0.56309570046E+01  0.37836465419E+02  0.00000000000E+00 0.  1.
         22    1    3    3    0    0  0.25899907958E+02 -0.10631298758E+02 -0.20212662014E+03  0.20405636553E+03  0.00000000000E+00 0.  1.
</event>
<event>
 7    1  0.6330892E-006  0.4829215E+02  0.7818608E-02  0.1457529E+00
          2   -1    0    0  502    0  0.00000000000E+00  0.00000000000E+00  0.46187323494E+03  0.46187323494E+03  0.00000000000E+00 0. -1.
          1   -1    0    0  501    0 -0.00000000000E+00 -0.00000000000E+00 -0.58590569050E+03  0.58590569050E+03  0.00000000000E+00 0. -1.
         25    2    1    2    0    0 -0.16684717316E+02  0.33248015393E+02 -0.16881959978E+02  0.13149814887E+03  0.12499180878E+03 0.  0.
          2    1    1    2  501    0 -0.32234041749E+02 -0.34658562742E+02 -0.50913394105E+03  0.51132926706E+03  0.00000000000E+00 0. -1.
          1    1    1    2  502    0  0.48918759065E+02  0.14105473497E+01  0.40198344546E+03  0.40495150952E+03  0.00000000000E+00 0. -1.
         22    1    3    3    0    0 -0.20638837462E+02  0.79340435897E+02  0.76621316824E+00  0.81984470863E+02  0.00000000000E+00 0. -1.
         22    1    3    3    0    0  0.39541201458E+01 -0.46092420504E+02 -0.17648173146E+02  0.49513678004E+02  0.00000000000E+00 0. -1.
</event>
<event>
 7    1  0.6330892E-006  0.9024956E+02  0.7818608E-02  0.1341256E+00
          2   -1    0    0  502    0  0.00000000000E+00  0.00000000000E+00  0.19052816242E+04  0.19052816242E+04  0.00000000000E+00 0. -1.
          1   -1    0    0  501    0 -0.00000000000E+00 -0.00000000000E+00 -0.58630901165E+03  0.58630901165E+03  0.00000000000E+00 0. -1.
         25    2    1    2    0    0 -0.73703585881E+02  0.27047587292E+02  0.99062077601E+02  0.17777026174E+03  0.12500072076E+03 0.  0.
          2    1    1    2  501    0  0.83780635838E+02  0.35900246261E+02 -0.54257725004E+03  0.55018005678E+03  0.00000000000E+00 0. -1.
          1    1    1    2  502    0 -0.10077049957E+02 -0.62947833554E+02  0.17624877850E+04  0.17636403173E+04  0.00000000000E+00 0. -1.
         22    1    3    3    0    0  0.17449199003E+00  0.51970295551E+02  0.33939942506E+00  0.51971696711E+02  0.00000000000E+00 0. -1.
         22    1    3    3    0    0 -0.73878077871E+02 -0.24922708259E+02  0.98722678176E+02  0.12579856503E+03  0.00000000000E+00 0. -1.
</event>
<event>
 7    1  0.6330892E-006  0.1466706E+03  0.7818608E-02  0.1272773E+00
          2   -1    0    0  502    0  0.00000000000E+00  0.00000000000E+00  0.42636147769E+02  0.42636147769E+02  0.00000000000E+00 0. -1.
          1   -1    0    0  501    0 -0.00000000000E+00 -0.00000000000E+00 -0.43640388966E+04  0.43640388966E+04  0.00000000000E+00 0. -1.
         25    2    1    2    0    0  0.76406965287E+02  0.19162034033E+03 -0.18456335665E+04  0.18613287030E+04  0.12499959830E+03 0.  0.
          2    1    1    2  501    0 -0.47578887872E+02 -0.12426149501E+03 -0.24680926970E+04  0.24716768055E+04  0.00000000000E+00 0. -1.
          1    1    1    2  502    0 -0.28828077415E+02 -0.67358845316E+02 -0.76764852868E+01  0.73669535876E+02  0.00000000000E+00 0. -1.
         22    1    3    3    0    0  0.98837214714E+02  0.19364116925E+03 -0.16080337872E+04  0.16226639696E+04  0.00000000000E+00 0. -1.
         22    1    3    3    0    0 -0.22430249427E+02 -0.20208289231E+01 -0.23759977938E+03  0.23866473346E+03  0.00000000000E+00 0. -1.
</event>
<event>
 7    1  0.6330892E-006  0.1685473E+03  0.7818608E-02  0.1318185E+00
          2   -1    0    0  502    0  0.00000000000E+00  0.00000000000E+00  0.32491313657E+04  0.32491313657E+04  0.00000000000E+00 0. -1.
          1   -1    0    0  501    0 -0.00000000000E+00 -0.00000000000E+00 -0.13646063942E+03  0.13646063942E+03  0.00000000000E+00 0. -1.
         25    2    1    2    0    0 -0.15426528273E+03 -0.13028139470E+03  0.24595521109E+03  0.34189120755E+03  0.12499845070E+03 0.  0.
          2    1    1    2  501    0  0.12007399492E+03  0.10620091146E+03 -0.15621578498E+02  0.16106033517E+03  0.00000000000E+00 0. -1.
          1    1    1    2  502    0  0.34191287814E+02  0.24080483234E+02  0.28823370937E+04  0.28826404624E+04  0.00000000000E+00 0. -1.
         22    1    3    3    0    0 -0.65189596136E+02 -0.89650686251E+00  0.22952270416E+02  0.69117970790E+02  0.00000000000E+00 0.  1.
         22    1    3    3    0    0 -0.89075686597E+02 -0.12938488783E+03  0.22300294067E+03  0.27277323676E+03  0.00000000000E+00 0.  1.
</event>
<event>
 7    1  0.6330892E-006  0.4372302E+02  0.7818608E-02  0.1527466E+00
          2   -1    0    0  502    0  0.00000000000E+00  0.00000000000E+00  0.22488543937E+03  0.22488543937E+03  0.00000000000E+00 0. -1.
          1   -1    0    0  501    0 -0.00000000000E+00 -0.00000000000E+00 -0.57438431562E+03  0.57438431562E+03  0.00000000000E+00 0. -1.
         25    2    1    2    0    0 -0.53771495923E+02 -0.12448070822E+02 -0.17370204672E+03  0.22100665417E+03  0.12500084764E+03 0.  0.
          2    1    1    2  501    0  0.13414166589E+02  0.29229891403E+02 -0.37395830280E+03  0.37533869858E+03  0.00000000000E+00 0. -1.
          1    1    1    2  502    0  0.40357329334E+02 -0.16781820581E+02  0.19816147328E+03  0.20292440224E+03  0.00000000000E+00 0. -1.
         22    1    3    3    0    0 -0.50600102613E+02 -0.64525604395E+02 -0.85052861820E+02  0.11814361308E+03  0.00000000000E+00 0. -1.
         22    1    3    3    0    0 -0.31713933106E+01  0.52077533573E+02 -0.88649184904E+02  0.10286304109E+03  0.00000000000E+00 0. -1.
</event>
<event>
 7    1  0.6867697E-006  0.1460194E+03  0.7818608E-02  0.1337533E+00
          2   -1    0    0  502    0  0.00000000000E+00  0.00000000000E+00  0.16925043518E+04  0.16925043518E+04  0.00000000000E+00 0. -1.
          1   -1    0    0  501    0 -0.00000000000E+00 -0.00000000000E+00 -0.86217722767E+03  0.86217722767E+03  0.00000000000E+00 0. -1.
         25    2    1    2    0    0  0.26255738153E+01 -0.15405778251E+03 -0.21047985751E+03  0.28925375237E+03  0.12500107539E+03 0.  0.
          2    1    1    2  501    0  0.38242819288E+02  0.13910332978E+02 -0.60840645491E+03  0.60976587717E+03  0.00000000000E+00 0. -1.
          1    1    1    2  502    0 -0.40868393103E+02  0.14014744953E+03  0.16492134365E+04  0.16556619499E+04  0.00000000000E+00 0. -1.
         22    1    3    3    0    0 -0.44202126453E+02 -0.65736516634E+02 -0.33533209231E+02  0.86020891204E+02  0.00000000000E+00 0.  1.
         22    1    3    3    0    0  0.46827700269E+02 -0.88321265878E+02 -0.17694664828E+03  0.20323286116E+03  0.00000000000E+00 0.  1.
</event>
<event>
 7    1  0.6330892E-006  0.1467885E+03  0.7818608E-02  0.1413866E+00
          2   -1    0    0  502    0  0.00000000000E+00  0.00000000000E+00  0.39140055985E+03  0.39140055985E+03  0.00000000000E+00 0. -1.
          1   -1    0    0  501    0 -0.00000000000E+00 -0.00000000000E+00 -0.12172729736E+03  0.12172729736E+03  0.00000000000E+00 0. -1.
         25    2    1    2    0    0 -0.12394246829E+03  0.81496836630E+02  0.20911856749E+03  0.28523746021E+03  0.12500545433E+03 0.  0.
          2    1    1    2  501    0  0.14910154315E+02  0.15661977993E+02 -0.43495341440E+02  0.48574221387E+02  0.00000000000E+00 0. -1.
          1    1    1    2  502    0  0.10903231398E+03 -0.97158814623E+02  0.10405003644E+03  0.17931617560E+03  0.00000000000E+00 0. -1.
         22    1    3    3    0    0  0.87841180548E+01 -0.64783516543E+01 -0.97075018171E+01  0.14607031241E+02  0.00000000000E+00 0.  1.
         22    1    3    3    0    0 -0.13272658634E+03  0.87975188284E+02  0.21882606931E+03  0.27063042897E+03  0.00000000000E+00 0.  1.
</event>
<event>
 7    1  0.6330892E-006  0.1046393E+03  0.7818608E-02  0.1380365E+00
          2   -1    0    0  502    0  0.00000000000E+00  0.00000000000E+00  0.22166562654E+03  0.22166562654E+03  0.00000000000E+00 0. -1.
          1   -1    0    0  501    0 -0.00000000000E+00 -0.00000000000E+00 -0.99506192298E+03  0.99506192298E+03  0.00000000000E+00 0. -1.
         25    2    1    2    0    0 -0.14159466271E+03 -0.17848054744E+02  0.11132065579E+03  0.21996537171E+03  0.12499949913E+03 0.  0.
          2    1    1    2  501    0  0.10380418109E+03  0.60294418514E+01 -0.93046602884E+03  0.93625781332E+03  0.00000000000E+00 0. -1.
          1    1    1    2  502    0  0.37790481625E+02  0.11818612892E+02  0.45749076603E+02  0.60504364489E+02  0.00000000000E+00 0. -1.
         22    1    3    3    0    0 -0.34758696011E+02  0.25207139034E+02  0.94187706666E+02  0.10351275715E+03  0.00000000000E+00 0.  1.
         22    1    3    3    0    0 -0.10683596670E+03 -0.43055193778E+02  0.17132949120E+02  0.11645261456E+03  0.00000000000E+00 0.  1.
</event>
<event>
 7    1  0.6330892E-006  0.6899713E+02  0.7818608E-02  0.1438400E+00
          2   -1    0    0  502    0  0.00000000000E+00  0.00000000000E+00  0.14328900729E+04  0.14328900729E+04  0.00000000000E+00 0. -1.
          1   -1    0    0  501    0 -0.00000000000E+00 -0.00000000000E+00 -0.14596687156E+04  0.14596687156E+04  0.00000000000E+00 0. -1.
         25    2    1    2    0    0 -0.11718412037E+02  0.84661532010E+02  0.26184752689E+03  0.30247984263E+03  0.12500012669E+03 0.  0.
          2    1    1    2  501    0 -0.21332242673E+02 -0.65592222956E+02 -0.14382095203E+04  0.14398625034E+04  0.00000000000E+00 0. -1.
          1    1    1    2  502    0  0.33050654710E+02 -0.19069309054E+02  0.11495833507E+04  0.11502164425E+04  0.00000000000E+00 0. -1.
         22    1    3    3    0    0  0.11967727236E+02  0.11330196856E+03  0.18857540785E+03  0.22032078209E+03  0.00000000000E+00 0. -1.
         22    1    3    3    0    0 -0.23686139273E+02 -0.28640436550E+02  0.73272119038E+02  0.82159060534E+02  0.00000000000E+00 0. -1.
</event>
<event>
 7    1  0.6330892E-006  0.7488253E+02  0.7818608E-02  0.1389492E+00
          2   -1    0    0  502    0  0.00000000000E+00  0.00000000000E+00  0.75617761878E+03  0.75617761878E+03  0.00000000000E+00 0. -1.
          1   -1    0    0  501    0 -0.00000000000E+00 -0.00000000000E+00 -0.43170989179E+02  0.43170989179E+02  0.00000000000E+00 0. -1.
         25    2    1    2    0    0 -0.69466672743E+02  0.66095351468E+02  0.57675975040E+03  0.59788864542E+03  0.12499923417E+03 0.  0.
          2    1    1    2  501    0  0.72716294225E+02 -0.14809236326E+02  0.23974418432E+02  0.77985547799E+02  0.00000000000E+00 0. -1.
          1    1    1    2  502    0 -0.32496214818E+01 -0.51286115142E+02  0.11227246077E+03  0.12347441474E+03  0.00000000000E+00 0. -1.
         22    1    3    3    0    0 -0.87117679259E+02  0.39935092244E+01  0.40764904058E+03  0.41687309632E+03  0.00000000000E+00 0.  1.
         22    1    3    3    0    0  0.17651006515E+02  0.62101842243E+02  0.16911070982E+03  0.18101554910E+03  0.00000000000E+00 0.  1.
</event>
<event>
 7    1  0.6330892E-006  0.3974770E+02  0.7818608E-02  0.1577161E+00
          2   -1    0    0  502    0  0.00000000000E+00  0.00000000000E+00  0.12694397040E+03  0.12694397040E+03  0.00000000000E+00 0. -1.
          1   -1    0    0  501    0 -0.00000000000E+00 -0.00000000000E+00 -0.23946996021E+03  0.23946996021E+03  0.00000000000E+00 0. -1.
         25    2    1    2    0    0  0.28515094141E+02  0.42432618840E+02 -0.12530789915E+02  0.13564305948E+03  0.12501352389E+03 0.  0.
          2    1    1    2  501    0 -0.29560813808E+01 -0.39441924491E+02 -0.16035158509E+03  0.16515760554E+03  0.00000000000E+00 0. -1.
          1    1    1    2  502    0 -0.25559012760E+02 -0.29906943495E+01  0.60356385203E+02  0.65613265585E+02  0.00000000000E+00 0. -1.
         22    1    3    3    0    0 -0.35568181049E+02 -0.16626418785E+02  0.18147770551E+02  0.43253611187E+02  0.00000000000E+00 0.  1.
         22    1    3    3    0    0  0.64083275190E+02  0.59059037626E+02 -0.30678560465E+02  0.92389448296E+02  0.00000000000E+00 0.  1.
</event>
<event>
 7    1  0.6330892E-006  0.7956996E+02  0.7818608E-02  0.1431648E+00
          2   -1    0    0  502    0  0.00000000000E+00  0.00000000000E+00  0.22831448613E+04  0.22831448613E+04  0.00000000000E+00 0. -1.
          1   -1    0    0  501    0 -0.00000000000E+00 -0.00000000000E+00 -0.12906302813E+04  0.12906302813E+04  0.00000000000E+00 0. -1.
         25    2    1    2    0    0 -0.29423001595E+02  0.55999325477E+02  0.15279970997E+04  0.15344059429E+04  0.12499929435E+03 0.  0.
          2    1    1    2  501    0 -0.28514161831E+02  0.19970062546E+02 -0.12841542008E+04  0.12846259659E+04  0.00000000000E+00 0. -1.
          1    1    1    2  502    0  0.57937163426E+02 -0.75969388023E+02  0.74867168107E+03  0.75474323373E+03  0.00000000000E+00 0. -1.
         22    1    3    3    0    0 -0.78428911714E+01 -0.12323016170E+02  0.20309763331E+02  0.25017077288E+02  0.00000000000E+00 0.  1.
         22    1    3    3    0    0 -0.21580110424E+02  0.68322341647E+02  0.15076873364E+04  0.15093888657E+04  0.00000000000E+00 0.  1.
</event>
<event>
 7    1  0.6330892E-006  0.9008845E+02  0.7818608E-02  0.1306868E+00
          2   -1    0    0  502    0  0.00000000000E+00  0.00000000000E+00  0.81913557619E+03  0.81913557619E+03  0.00000000000E+00 0. -1.
          1   -1    0    0  501    0 -0.00000000000E+00 -0.00000000000E+00 -0.62007466448E+03  0.62007466448E+03  0.00000000000E+00 0. -1.
         25    2    1    2    0    0 -0.54385313837E+02  0.22904541955E+02  0.10575997595E+02  0.13862428465E+03  0.12498984025E+03 0.  0.
          2    1    1    2  501    0  0.51012073912E+02  0.70065376421E+02 -0.54973616626E+03  0.55652604715E+03  0.00000000000E+00 0. -1.
          1    1    1    2  502    0  0.33732399255E+01 -0.92969918376E+02  0.73822108038E+03  0.74405990887E+03  0.00000000000E+00 0. -1.
         22    1    3    3    0    0  0.15668444365E+02  0.56105045983E+02 -0.82900091030E+01  0.58838767700E+02  0.00000000000E+00 0. -1.
         22    1    3    3    0    0 -0.70053758202E+02 -0.33200504028E+02  0.18866006698E+02  0.79785516948E+02  0.00000000000E+00 0. -1.
</event>
<event>
 7    1  0.6330892E-006  0.9169277E+02  0.7818608E-02  0.1468998E+00
          2   -1    0    0  502    0  0.00000000000E+00  0.00000000000E+00  0.22301570696E+04  0.22301570696E+04  0.00000000000E+00 0. -1.
          1   -1    0    0  501    0 -0.00000000000E+00 -0.00000000000E+00 -0.57587670671E+03  0.57587670671E+03  0.00000000000E+00 0. -1.
         25    2    1    2    0    0  0.63934921925E+02 -0.84192936700E+02  0.58211141436E+03  0.60469130204E+03  0.12498698813E+03 0.  0.
          2    1    1    2  501    0  0.23121788813E+01  0.22827424620E+02 -0.56310744881E+03  0.56357469459E+03  0.00000000000E+00 0. -1.
          1    1    1    2  502    0 -0.66247100806E+02  0.61365512080E+02  0.16352763974E+04  0.16377677797E+04  0.00000000000E+00 0. -1.
         22    1    3    3    0    0  0.27158480236E+01  0.30937246279E+02  0.15656678411E+03  0.15961718869E+03  0.00000000000E+00 0. -1.
         22    1    3    3    0    0  0.61219073902E+02 -0.11513018298E+03  0.42554463025E+03  0.44507411335E+03  0.00000000000E+00 0. -1.
</event>
<event>
 7    1  0.6330892E-006  0.1105623E+03  0.7818608E-02  0.1269024E+00
          2   -1    0    0  502    0  0.00000000000E+00  0.00000000000E+00  0.15836329127E+03  0.15836329127E+03  0.00000000000E+00 0. -1.
          1   -1    0    0  501    0 -0.00000000000E+00 -0.00000000000E+00 -0.26523202933E+04  0.26523202933E+04  0.00000000000E+00 0. -1.
         25    2    1    2    0    0  0.24846463035E+02  0.53257857643E+02 -0.73913881056E+02  0.15662403753E+03  0.12495631714E+03 0.  0.
          2    1    1    2  501    0 -0.71424171065E+02  0.71100037489E+02 -0.24980276088E+04  0.25000597117E+04  0.00000000000E+00 0. -1.
          1    1    1    2  502    0  0.46577708030E+02 -0.12435789513E+03  0.77984487794E+02  0.15399983540E+03  0.00000000000E+00 0. -1.
         22    1    3    3    0    0 -0.45685989126E+01  0.59753695827E+02  0.15809843539E+02  0.61978443137E+02  0.00000000000E+00 0.  1.
         22    1    3    3    0    0  0.29415061948E+02 -0.64958381836E+01 -0.89723724596E+02  0.94645594395E+02  0.00000000000E+00 0.  1.
</event>
<event>
 7    1  0.6330892E-006  0.9290006E+02  0.7818608E-02  0.1364885E+00
          2   -1    0    0  502    0  0.00000000000E+00  0.00000000000E+00  0.17359083785E+03  0.17359083785E+03  0.00000000000E+00 0. -1.
          1   -1    0    0  501    0 -0.00000000000E+00 -0.00000000000E+00 -0.63518674668E+03  0.63518674668E+03  0.00000000000E+00 0. -1.
         25    2    1    2    0    0 -0.33214104677E+02  0.12077586334E+03 -0.12084203904E+03  0.21427418428E+03  0.12498256573E+03 0.  0.
          2    1    1    2  501    0 -0.71767846044E+01 -0.90179830635E+02 -0.45796179432E+03  0.46681143211E+03  0.00000000000E+00 0. -1.
          1    1    1    2  502    0  0.40390889282E+02 -0.30596032709E+02  0.11720792453E+03  0.12769196814E+03  0.00000000000E+00 0. -1.
         22    1    3    3    0    0  0.36689103684E+02  0.72822341646E+02 -0.22808065401E+02  0.84672260034E+02  0.00000000000E+00 0. -1.
         22    1    3    3    0    0 -0.69903208361E+02  0.47953521698E+02 -0.98033973634E+02  0.12960192425E+03  0.00000000000E+00 0. -1.
</event>
<event>
 7    1  0.6330892E-006  0.1531302E+03  0.7818608E-02  0.1311081E+00
          2   -1    0    0  502    0  0.00000000000E+00  0.00000000000E+00  0.22032962839E+03  0.22032962839E+03  0.00000000000E+00 0. -1.
          1   -1    0    0  501    0 -0.00000000000E+00 -0.00000000000E+00 -0.17606317303E+04  0.17606317303E+04  0.00000000000E+00 0. -1.
         25    2    1    2    0    0 -0.11970861715E+03  0.35014038963E+02 -0.30380801612E+03  0.35139723993E+03  0.12499829448E+03 0.  0.
          2    1    1    2  501    0  0.13687303032E+03 -0.80986984066E+02 -0.14254731619E+04  0.14343175567E+04  0.00000000000E+00 0. -1.
          1    1    1    2  502    0 -0.17164413168E+02  0.45972945104E+02  0.18897907617E+03  0.19524656205E+03  0.00000000000E+00 0. -1.
         22    1    3    3    0    0 -0.70737292249E+02  0.19719664676E+02 -0.41973360439E+02  0.84583643077E+02  0.00000000000E+00 0. -1.
         22    1    3    3    0    0 -0.48971324901E+02  0.15294374287E+02 -0.26183465568E+03  0.26681359685E+03  0.00000000000E+00 0. -1.
</event>
<event>
 7    1  0.6330892E-006  0.5990395E+02  0.7818608E-02  0.1413585E+00
          2   -1    0    0  502    0  0.00000000000E+00  0.00000000000E+00  0.15459536362E+04  0.15459536362E+04  0.00000000000E+00 0. -1.
          1   -1    0    0  501    0 -0.00000000000E+00 -0.00000000000E+00 -0.13263800318E+03  0.13263800318E+03  0.00000000000E+00 0. -1.
         25    2    1    2    0    0 -0.81049582431E+01  0.10850566069E+03  0.38013090077E+03  0.41468511823E+03  0.12500030723E+03 0.  0.
          2    1    1    2  501    0 -0.92030959100E+01 -0.58301407155E+02 -0.10715264764E+03  0.12233331904E+03  0.00000000000E+00 0. -1.
          1    1    1    2  502    0  0.17308054153E+02 -0.50204253539E+02  0.11403373799E+04  0.11415732021E+04  0.00000000000E+00 0. -1.
         22    1    3    3    0    0  0.40019563927E+02  0.41299154312E+02  0.27500451328E+03  0.28095314194E+03  0.00000000000E+00 0. -1.
         22    1    3    3    0    0 -0.48124522171E+02  0.67206506383E+02  0.10512638750E+03  0.13373197629E+03  0.00000000000E+00 0. -1.
</event>
<event>
 7    1  0.6330892E-006  0.1130178E+03  0.7818608E-02  0.1397552E+00
          2   -1    0    0  502    0  0.00000000000E+00  0.00000000000E+00  0.19800785247E+03  0.19800785247E+03  0.00000000000E+00 0. -1.
          1   -1    0    0  501    0 -0.00000000000E+00 -0.00000000000E+00 -0.92119303682E+03  0.92119303682E+03  0.00000000000E+00 0. -1.
         25    2    1    2    0    0  0.22361264887E+02  0.82405869279E+02 -0.65104861651E+02  0.16478107993E+03  0.12499363117E+03 0.  0.
          2    1    1    2  501    0 -0.17691618514E+02 -0.11398669270E+03 -0.80034617806E+03  0.80861607962E+03  0.00000000000E+00 0. -1.
          1    1    1    2  502    0 -0.46696463728E+01  0.31580823420E+02  0.14226585536E+03  0.14580372974E+03  0.00000000000E+00 0. -1.
         22    1    3    3    0    0  0.26743379441E+02  0.10972362391E+03 -0.24363960689E+02  0.11553391090E+03  0.00000000000E+00 0. -1.
         22    1    3    3    0    0 -0.43821145538E+01 -0.27317754630E+02 -0.40740900961E+02  0.49247169027E+02  0.00000000000E+00 0. -1.
</event>
<event>
 7    1  0.6330892E-006  0.4570451E+02  0.7818608E-02  0.1499923E+00
          2   -1    0    0  502    0  0.00000000000E+00  0.00000000000E+00  0.56563950814E+03  0.56563950814E+03  0.00000000000E+00 0. -1.
          1   -1    0    0  501    0 -0.00000000000E+00 -0.00000000000E+00 -0.12208615991E+03  0.12208615991E+03  0.00000000000E+00 0. -1.
         25    2    1    2    0    0  0.10668263342E+02 -0.15001496264E+02  0.62959726553E+02  0.14116297257E+03  0.12499680365E+03 0.  0.
          2    1    1    2  501    0 -0.47151148319E+02  0.85593857201E+01 -0.75251388748E+02  0.89214715043E+02  0.00000000000E+00 0. -1.
          1    1    1    2  502    0  0.36482884976E+02  0.64421105438E+01  0.45584501043E+03  0.45734798044E+03  0.00000000000E+00 0. -1.
         22    1    3    3    0    0  0.13506086419E+02 -0.33302776463E+01 -0.37495236088E+02  0.39992472403E+02  0.00000000000E+00 0. -1.
         22    1    3    3    0    0 -0.28378230770E+01 -0.11671218618E+02  0.10045496264E+03  0.10117050016E+03  0.00000000000E+00 0. -1.
</event>
<event>
 7    1  0.6330892E-006  0.4875294E+02  0.7818608E-02  0.1461163E+00
          2   -1    0    0  502    0  0.00000000000E+00  0.00000000000E+00  0.10133799353E+04  0.10133799353E+04  0.00000000000E+00 0. -1.
          1   -1    0    0  501    0 -0.00000000000E+00 -0.00000000000E+00 -0.23260284221E+04  0.23260284221E+04  0.00000000000E+00 0. -1.
         25    2    1    2    0    0 -0.89924347598E+02  0.24253184985E+02  0.20715013966E+03  0.25925223942E+03  0.12500375200E+03 0.  0.
          2    1    1    2  501    0  0.43688743913E+02 -0.13276023340E+02 -0.22990268367E+04  0.22994802359E+04  0.00000000000E+00 0. -1.
          1    1    1    2  502    0  0.46235603685E+02 -0.10977161645E+02  0.77922821028E+03  0.78067588206E+03  0.00000000000E+00 0. -1.
         22    1    3    3    0    0 -0.14087397039E+02  0.64049281660E+02  0.59441103163E+02  0.88509942841E+02  0.00000000000E+00 0. -1.
         22    1    3    3    0    0 -0.75836950558E+02 -0.39796096675E+02  0.14770903649E+03  0.17074229658E+03  0.00000000000E+00 0. -1.
</event>
<event>
 7    1  0.6330892E-006  0.1515260E+03  0.7818608E-02  0.1295586E+00
          2   -1    0    0  502    0  0.00000000000E+00  0.00000000000E+00  0.14107020519E+04  0.14107020519E+04  0.00000000000E+00 0. -1.
          1   -1    0    0  501    0 -0.00000000000E+00 -0.00000000000E+00 -0.74030083905E+02  0.74030083905E+02  0.00000000000E+00 0. -1.
         25    2    1    2    0    0  0.11593913390E+03 -0.28946072770E+02  0.20996980551E+03  0.27201523518E+03  0.12500084418E+03 0.  0.
          2    1    1    2  501    0 -0.17298199720E+03  0.32659193995E+02  0.14149952098E+03  0.22585727516E+03  0.00000000000E+00 0. -1.
          1    1    1    2  502    0  0.57042863299E+02 -0.37131212250E+01  0.98520264154E+03  0.98685962549E+03  0.00000000000E+00 0. -1.
         22    1    3    3    0    0  0.11396418635E+03  0.21621082591E+02  0.10948246465E+03  0.15950459883E+03  0.00000000000E+00 0.  1.
         22    1    3    3    0    0  0.19749475555E+01 -0.50567155361E+02  0.10048734087E+03  0.11251063636E+03  0.00000000000E+00 0.  1.
</event>
<event>
 7    1  0.6330892E-006  0.1084837E+03  0.7818608E-02  0.1331012E+00
          2   -1    0    0  502    0  0.00000000000E+00  0.00000000000E+00  0.15527116079E+03  0.15527116079E+03  0.00000000000E+00 0. -1.
          1   -1    0    0  501    0 -0.00000000000E+00 -0.00000000000E+00 -0.97773119749E+03  0.97773119749E+03  0.00000000000E+00 0. -1.
         25    2    1    2    0    0  0.63718224317E+02  0.28428269294E+02 -0.33660417375E+03  0.36578144330E+03  0.12500206348E+03 0.  0.
          2    1    1    2  501    0 -0.10495317968E+03 -0.69197117004E+02 -0.61391036972E+03  0.62664930622E+03  0.00000000000E+00 0. -1.
          1    1    1    2  502    0  0.41234955359E+02  0.40768847710E+02  0.12805450677E+03  0.14057160876E+03  0.00000000000E+00 0. -1.
         22    1    3    3    0    0 -0.33880649054E+02 -0.72823322060E+01 -0.49325441266E+02  0.60282086052E+02  0.00000000000E+00 0. -1.
         22    1    3    3    0    0  0.97598873371E+02  0.35710601500E+02 -0.28727873248E+03  0.30549935725E+03  0.00000000000E+00 0. -1.
</event>
<event>
 7    1  0.6330892E-006  0.1202214E+03  0.7818608E-02  0.1374557E+00
          2   -1    0    0  502    0  0.00000000000E+00  0.00000000000E+00  0.16699237664E+04  0.16699237664E+04  0.00000000000E+00 0. -1.
          1   -1    0    0  501    0 -0.00000000000E+00 -0.00000000000E+00 -0.11007902493E+03  0.11007902493E+03  0.00000000000E+00 0. -1.
         25    2    1    2    0    0  0.70466254882E+02  0.10435372651E+03  0.77617519807E+03  0.79619525019E+03  0.12499497996E+03 0.  0.
          2    1    1    2  501    0 -0.34834560738E+02  0.96312448285E+01 -0.92617877666E+02  0.99419710129E+02  0.00000000000E+00 0. -1.
          1    1    1    2  502    0 -0.35631694144E+02 -0.11398497134E+03  0.87628742104E+03  0.88438783099E+03  0.00000000000E+00 0. -1.
         22    1    3    3    0    0  0.25742892946E+02  0.11967597037E+03  0.65059586287E+03  0.66201209295E+03  0.00000000000E+00 0.  1.
         22    1    3    3    0    0  0.44723361936E+02 -0.15322243856E+02  0.12557933520E+03  0.13418315725E+03  0.00000000000E+00 0.  1.
</event>
<event>
 7    1  0.6330892E-006  0.2978903E+02  0.7818608E-02  0.1646383E+00
          2   -1    0    0  502    0  0.00000000000E+00  0.00000000000E+00  0.37692230788E+03  0.37692230788E+03  0.00000000000E+00 0. -1.
          1   -1    0    0  501    0 -0.00000000000E+00 -0.00000000000E+00 -0.15557277521E+04  0.15557277521E+04  0.00000000000E+00 0. -1.
         25    2    1    2    0    0  0.28359638550E+02  0.42954241591E+02 -0.72305800586E+03  0.73558638572E+03  0.12500046019E+03 0.  0.
          2    1    1    2  501    0 -0.16590005707E+02 -0.15607538026E+02 -0.82565040446E+03  0.82596453551E+03  0.00000000000E+00 0. -1.
          1    1    1    2  502    0 -0.11769632844E+02 -0.27346703565E+02  0.36990296610E+03  0.37109913875E+03  0.00000000000E+00 0. -1.
         22    1    3    3    0    0  0.67908746111E+02  0.58207993811E+01 -0.55045742708E+03  0.55466103030E+03  0.00000000000E+00 0.  1.
         22    1    3    3    0    0 -0.39549107561E+02  0.37133442210E+02 -0.17260057877E+03  0.18092535542E+03  0.00000000000E+00 0.  1.
</event>
<event>
 7    1  0.6330892E-006  0.1813840E+03  0.7818608E-02  0.1380525E+00
          2   -1    0    0  502    0  0.00000000000E+00  0.00000000000E+00  0.11646313594E+04  0.11646313594E+04  0.00000000000E+00 0. -1.
          1   -1    0    0  501    0 -0.00000000000E+00 -0.00000000000E+00 -0.30516986141E+04  0.30516986141E+04  0.00000000000E+00 0. -1.
         25    2    1    2    0    0 -0.73276480493E+02 -0.18236211056E+03 -0.14196973913E+04  0.14386762545E+04  0.12499320106E+03 0.  0.
          2    1    1    2  501    0 -0.91798947172E+01  0.20884027612E+02 -0.16153159967E+04  0.16154770757E+04  0.00000000000E+00 0. -1.
          1    1    1    2  502    0  0.82456375210E+02  0.16147808294E+03  0.11479461333E+04  0.11621766432E+04  0.00000000000E+00 0. -1.
         22    1    3    3    0    0  0.29571208862E+00 -0.15366486718E+03 -0.97046858649E+03  0.98255903447E+03  0.00000000000E+00 0.  1.
         22    1    3    3    0    0 -0.73572192581E+02 -0.28697243380E+02 -0.44922880485E+03  0.45611722003E+03  0.00000000000E+00 0.  1.
</event>
<event>
 7    1  0.6330892E-006  0.3873252E+02  0.7818608E-02  0.1530489E+00
          2   -1    0    0  502    0  0.00000000000E+00  0.00000000000E+00  0.12386458652E+03  0.12386458652E+03  0.00000000000E+00 0. -1.
          1   -1    0    0  501    0 -0.00000000000E+00 -0.00000000000E+00 -0.63945269243E+03  0.63945269243E+03  0.00000000000E+00 0. -1.
         25    2    1    2    0    0  0.11485193686E+02 -0.14922129380E+02 -0.13726321120E+03  0.18660354521E+03  0.12500045727E+03 0.  0.
          2    1    1    2  501    0  0.17363052581E+02  0.35759956867E+02 -0.47346754494E+03  0.47513341939E+03  0.00000000000E+00 0. -1.
          1    1    1    2  502    0 -0.28848246267E+02 -0.20837827487E+02  0.95142650236E+02  0.10158031434E+03  0.00000000000E+00 0. -1.
         22    1    3    3    0    0 -0.47694326248E+02 -0.21219383221E+02 -0.10871200101E+03  0.12059564728E+03  0.00000000000E+00 0. -1.
         22    1    3    3    0    0  0.59179519934E+02  0.62972538408E+01 -0.28551210193E+02  0.66007897929E+02  0.00000000000E+00 0. -1.
</event>
<event>
 7    1  0.6330892E-006  0.9514444E+02  0.7818608E-02  0.1462744E+00
          2   -1    0    0  502    0  0.00000000000E+00  0.00000000000E+00  0.16548055638E+04  0.16548055638E+04  0.00000000000E+00 0. -1.
          1   -1    0    0  501    0 -0.00000000000E+00 -0.00000000000E+00 -0.19374052373E+02  0.19374052373E+02  0.00000000000E+00 0. -1.
         25    2    1    2    0    0  0.25799612060E+02 -0.10399358959E+03  0.10354834190E+04  0.10484900339E+04  0.12500061383E+03 0.  0.
          2    1    1    2  501    0 -0.38890378259E+02  0.84923416494E+02  0.16100315807E+03  0.18613560943E+03  0.00000000000E+00 0. -1.
          1    1    1    2  502    0  0.13090766199E+02  0.19070173097E+02  0.43894493435E+03  0.43955397286E+03  0.00000000000E+00 0. -1.
         22    1    3    3    0    0  0.48701269350E+02 -0.18664286758E+01  0.53290794571E+03  0.53513192373E+03  0.00000000000E+00 0. -1.
         22    1    3    3    0    0 -0.22901657291E+02 -0.10212716092E+03  0.50257547332E+03  0.51335811018E+03  0.00000000000E+00 0. -1.
</event>
<event>
 7    1  0.6330892E-006  0.6630650E+02  0.7818608E-02  0.1396952E+00
          2   -1    0    0  502    0  0.00000000000E+00  0.00000000000E+00  0.39883938787E+03  0.39883938787E+03  0.00000000000E+00 0. -1.
          1   -1    0    0  501    0 -0.00000000000E+00 -0.00000000000E+00 -0.10451357435E+04  0.10451357435E+04  0.00000000000E+00 0. -1.
         25    2    1    2    0    0 -0.59030458641E+02  0.83230635299E+02 -0.45002606978E+03  0.47807974660E+03  0.12499938769E+03 0.  0.
          2    1    1    2  501    0 -0.65332093053E+00 -0.54670567496E+02 -0.57693668204E+03  0.57952155513E+03  0.00000000000E+00 0. -1.
          1    1    1    2  502    0  0.59683779572E+02 -0.28560067803E+02  0.38066639621E+03  0.38637382963E+03  0.00000000000E+00 0. -1.
         22    1    3    3    0    0 -0.55666696735E+02 -0.73123578219E+01 -0.84213401539E+02  0.10121338203E+03  0.00000000000E+00 0.  1.
         22    1    3    3    0    0 -0.33637619061E+01  0.90542993121E+02 -0.36581266824E+03  0.37686636457E+03  0.00000000000E+00 0.  1.
</event>
<event>
 7    1  0.6330892E-006  0.1015710E+03  0.7818608E-02  0.1404134E+00
          2   -1    0    0  502    0  0.00000000000E+00  0.00000000000E+00  0.89404495188E+03  0.89404495188E+03  0.00000000000E+00 0. -1.
          1   -1    0    0  501    0 -0.00000000000E+00 -0.00000000000E+00 -0.55739690642E+03  0.55739690642E+03  0.00000000000E+00 0. -1.
         25    2    1    2    0    0  0.59316024909E+02 -0.58266780159E+02 -0.14366095493E+03  0.20780433099E+03  0.12502304398E+03 0.  0.
          2    1    1    2  501    0 -0.54127108093E+02  0.91585549410E+02 -0.37391178865E+03  0.38875144036E+03  0.00000000000E+00 0. -1.
          1    1    1    2  502    0 -0.51889168166E+01 -0.33318769251E+02  0.85422078904E+03  0.85488608695E+03  0.00000000000E+00 0. -1.
         22    1    3    3    0    0  0.56722366295E+02  0.22391931486E+02 -0.97024594029E+02  0.11459754483E+03  0.00000000000E+00 0.  1.
         22    1    3    3    0    0  0.25936586144E+01 -0.80658711645E+02 -0.46636360903E+02  0.93206786167E+02  0.00000000000E+00 0.  1.
</event>
<event>
 7    1  0.6330892E-006  0.1173876E+03  0.7818608E-02  0.1310768E+00
          2   -1    0    0  502    0  0.00000000000E+00  0.00000000000E+00  0.15435976027E+03  0.15435976027E+03  0.00000000000E+00 0. -1.
          1   -1    0    0  501    0 -0.00000000000E+00 -0.00000000000E+00 -0.90241287493E+03  0.90241287493E+03  0.00000000000E+00 0. -1.
         25    2    1    2    0    0  0.12558009472E+03  0.47053081576E+02 -0.35689804387E+03  0.40122977371E+03  0.12499905969E+03 0.  0.
          2    1    1    2  501    0 -0.94553873087E+01 -0.63496146504E+02 -0.49484757914E+03  0.49899428008E+03  0.00000000000E+00 0. -1.
          1    1    1    2  502    0 -0.11612470741E+03  0.16443064928E+02  0.10369250834E+03  0.15654858141E+03  0.00000000000E+00 0. -1.
         22    1    3    3    0    0  0.99018668567E+02 -0.13565819063E+02 -0.12483661763E+03  0.15991531907E+03  0.00000000000E+00 0. -1.
         22    1    3    3    0    0  0.26561426151E+02  0.60618900638E+02 -0.23206142623E+03  0.24131445464E+03  0.00000000000E+00 0. -1.
</event>
<event>
 7    1  0.6330892E-006  0.2891267E+03  0.7818608E-02  0.1327400E+00
          2   -1    0    0  502    0  0.00000000000E+00  0.00000000000E+00  0.39665343762E+03  0.39665343762E+03  0.00000000000E+00 0. -1.
          1   -1    0    0  501    0 -0.00000000000E+00 -0.00000000000E+00 -0.67582056123E+03  0.67582056123E+03  0.00000000000E+00 0. -1.
         25    2    1    2    0    0 -0.25705157848E+03 -0.14767932557E+03 -0.46958716727E+02  0.32513808293E+03  0.12499981880E+03 0.  0.
          2    1    1    2  501    0 -0.29922915536E+00  0.22458342159E+02 -0.40986533801E+03  0.41048028208E+03  0.00000000000E+00 0. -1.
          1    1    1    2  502    0  0.25735080763E+03  0.12522098341E+03  0.17765693113E+03  0.33685563384E+03  0.00000000000E+00 0. -1.
         22    1    3    3    0    0 -0.34799998429E+01  0.41516304201E+01  0.21155724202E+02  0.21838294360E+02  0.00000000000E+00 0. -1.
         22    1    3    3    0    0 -0.25357157863E+03 -0.15183095599E+03 -0.68114440928E+02  0.30329978857E+03  0.00000000000E+00 0. -1.
</event>
<event>
 7    1  0.6330892E-006  0.9691790E+02  0.7818608E-02  0.1458069E+00
          2   -1    0    0  502    0  0.00000000000E+00  0.00000000000E+00  0.15512623051E+04  0.15512623051E+04  0.00000000000E+00 0. -1.
          1   -1    0    0  501    0 -0.00000000000E+00 -0.00000000000E+00 -0.87903112475E+02  0.87903112475E+02  0.00000000000E+00 0. -1.
         25    2    1    2    0    0 -0.67359186724E+02 -0.70703078403E+02  0.68345519014E+03  0.70162074293E+03  0.12499793859E+03 0.  0.
          2    1    1    2  501    0  0.48142137048E+02  0.84214489252E+02 -0.48745162979E+02  0.10856259242E+03  0.00000000000E+00 0. -1.
          1    1    1    2  502    0  0.19217049676E+02 -0.13511410848E+02  0.82864916545E+03  0.82898208221E+03  0.00000000000E+00 0. -1.
         22    1    3    3    0    0 -0.99149268889E+02 -0.37234830330E+02  0.37270909400E+03  0.38746493888E+03  0.00000000000E+00 0.  1.
         22    1    3    3    0    0  0.31790082164E+02 -0.33468248074E+02  0.31074609615E+03  0.31415580406E+03  0.00000000000E+00 0.  1.
</event>
<event>
 7    1  0.6330892E-006  0.1560622E+03  0.7818608E-02  0.1412280E+00
          2   -1    0    0  502    0  0.00000000000E+00  0.00000000000E+00  0.25769192629E+04  0.25769192629E+04  0.00000000000E+00 0. -1.
          1   -1    0    0  501    0 -0.00000000000E+00 -0.00000000000E+00 -0.21572729981E+02  0.21572729981E+02  0.00000000000E+00 0. -1.
         25    2    1    2    0    0 -0.14232369702E+03 -0.51477355216E+02  0.15582005438E+04  0.15705158627E+04  0.12500075042E+03 0.  0.
          2    1    1    2  501    0  0.15375410742E+03  0.34349851092E+02  0.39191672610E+03  0.42239668324E+03  0.00000000000E+00 0. -1.
          1    1    1    2  502    0 -0.11430410406E+02  0.17127504124E+02  0.60522926303E+03  0.60557944690E+03  0.00000000000E+00 0. -1.
         22    1    3    3    0    0 -0.15570785242E+03 -0.68594723867E+02  0.12465168819E+04  0.12580757164E+04  0.00000000000E+00 0.  1.
         22    1    3    3    0    0  0.13384155399E+02  0.17117368651E+02  0.31168366191E+03  0.31244014632E+03  0.00000000000E+00 0.  1.
</event>
<event>
 7    1  0.6330892E-006  0.1754851E+03  0.7818608E-02  0.1280535E+00
          2   -1    0    0  502    0  0.00000000000E+00  0.00000000000E+00  0.31855440032E+03  0.31855440032E+03  0.00000000000E+00 0. -1.
          1   -1    0    0  501    0 -0.00000000000E+00 -0.00000000000E+00 -0.87072665789E+03  0.87072665789E+03  0.00000000000E+00 0. -1.
         25    2    1    2    0    0 -0.39560050463E+02 -0.19262311059E+03 -0.73564809225E+02  0.24434822427E+03  0.12500245286E+03 0.  0.
          2    1    1    2  501    0  0.52967194613E+02  0.20664644151E+02 -0.67851995214E+03  0.68089784599E+03  0.00000000000E+00 0. -1.
          1    1    1    2  502    0 -0.13407144149E+02  0.17195846644E+03  0.19991250379E+03  0.26403498796E+03  0.00000000000E+00 0. -1.
         22    1    3    3    0    0 -0.42136712142E+02 -0.14201283422E+03 -0.10778885101E+03  0.18319820959E+03  0.00000000000E+00 0. -1.
         22    1    3    3    0    0  0.25766616791E+01 -0.50610276374E+02  0.34224041786E+02  0.61150014687E+02  0.00000000000E+00 0. -1.
</event>
<event>
 7    1  0.6330892E-006  0.5441187E+02  0.7818608E-02  0.1474076E+00
          2   -1    0    0  502    0  0.00000000000E+00  0.00000000000E+00  0.83927495425E+02  0.83927495425E+02  0.00000000000E+00 0. -1.
          1   -1    0    0  501    0 -0.00000000000E+00 -0.00000000000E+00 -0.57855930014E+03  0.57855930014E+03  0.00000000000E+00 0. -1.
         25    2    1    2    0    0 -0.74710770354E+02  0.41024924189E+02 -0.35679556433E+03  0.38754791979E+03  0.12500228717E+03 0.  0.
          2    1    1    2  501    0  0.39833977623E+02 -0.27837838048E+02 -0.19815431975E+03  0.20402653121E+03  0.00000000000E+00 0. -1.
          1    1    1    2  502    0  0.34876792731E+02 -0.13187086141E+02  0.60318079372E+02  0.70912344562E+02  0.00000000000E+00 0. -1.
         22    1    3    3    0    0  0.29981249629E+02  0.16377051822E+02 -0.15667182186E+03  0.16035318182E+03  0.00000000000E+00 0.  1.
         22    1    3    3    0    0 -0.10469201998E+03  0.24647872367E+02 -0.20012374247E+03  0.22719473797E+03  0.00000000000E+00 0.  1.
</event>
<event>
 7    1  0.6330892E-006  0.1302779E+03  0.7818608E-02  0.1284976E+00
          2   -1    0    0  502    0  0.00000000000E+00  0.00000000000E+00  0.15630401662E+04  0.15630401662E+04  0.00000000000E+00 0. -1.
          1   -1    0    0  501    0 -0.00000000000E+00 -0.00000000000E+00 -0.91927615675E+03  0.91927615675E+03  0.00000000000E+00 0. -1.
         25    2    1    2    0    0  0.98813046931E+02  0.17031709098E+03  0.24662269421E+03  0.33944120770E+03  0.12500260181E+03 0.  0.
          2    1    1    2  501    0 -0.43917588259E+02 -0.12154824335E+03 -0.86701177169E+03  0.87659120591E+03  0.00000000000E+00 0. -1.
          1    1    1    2  502    0 -0.54895458673E+02 -0.48768847634E+02  0.12641530870E+04  0.12662839094E+04  0.00000000000E+00 0. -1.
         22    1    3    3    0    0 -0.14623046596E+02 -0.14928925335E+01  0.59303712004E+02  0.61098219920E+02  0.00000000000E+00 0.  1.
         22    1    3    3    0    0  0.11343609353E+03  0.17180998352E+03  0.18731898220E+03  0.27834298778E+03  0.00000000000E+00 0.  1.
</event>
<event>
 7    1  0.6330892E-006  0.1047463E+03  0.7818608E-02  0.1341587E+00
          2   -1    0    0  502    0  0.00000000000E+00  0.00000000000E+00  0.48782549929E+02  0.48782549929E+02  0.00000000000E+00 0. -1.
          1   -1    0    0  501    0 -0.00000000000E+00 -0.00000000000E+00 -0.38554477742E+04  0.38554477742E+04  0.00000000000E+00 0. -1.
         25    2    1    2    0    0  0.13653112165E+03  0.44807935896E+02 -0.28762816532E+03  0.34496844918E+03  0.12499908458E+03 0.  0.
          2    1    1    2  501    0 -0.54704329188E+02 -0.26780981059E+01 -0.34324846775E+04  0.34329216125E+04  0.00000000000E+00 0. -1.
          1    1    1    2  502    0 -0.81826792464E+02 -0.42129837790E+02 -0.86552381449E+02  0.12634026251E+03  0.00000000000E+00 0. -1.
         22    1    3    3    0    0  0.53468241978E+01 -0.62769379290E+01 -0.14263953806E+03  0.14287766199E+03  0.00000000000E+00 0. -1.
         22    1    3    3    0    0  0.13118429745E+03  0.51084873825E+02 -0.14498862727E+03  0.20209078720E+03  0.00000000000E+00 0. -1.
</event>
<event>
 7    1  0.6330892E-006  0.2866045E+03  0.7818608E-02  0.1216001E+00
          2   -1    0    0  502    0  0.00000000000E+00  0.00000000000E+00  0.20463188412E+04  0.20463188412E+04  0.00000000000E+00 0. -1.
          1   -1    0    0  501    0 -0.00000000000E+00 -0.00000000000E+00 -0.15632304988E+04  0.15632304988E+04  0.00000000000E+00 0. -1.
         25    2    1    2    0    0 -0.95032030217E+02  0.29355424991E+03  0.13612989781E+04  0.14014159713E+04  0.12500652920E+03 0.  0.
          2    1    1    2  501    0  0.56017705621E+02 -0.35796785504E+02 -0.15168652279E+04  0.15183212811E+04  0.00000000000E+00 0. -1.
          1    1    1    2  502    0  0.39014324595E+02 -0.25775746441E+03  0.63865459218E+03  0.68981208752E+03  0.00000000000E+00 0. -1.
         22    1    3    3    0    0 -0.15784934159E+02  0.85907696532E+02  0.18863778178E+03  0.20787859242E+03  0.00000000000E+00 0. -1.
         22    1    3    3    0    0 -0.79247096057E+02  0.20764655338E+03  0.11726611964E+04  0.11935373789E+04  0.00000000000E+00 0. -1.
</event>
<event>
 7    1  0.6330892E-006  0.8007212E+02  0.7818608E-02  0.1358339E+00
          2   -1    0    0  502    0  0.00000000000E+00  0.00000000000E+00  0.21724017036E+03  0.21724017036E+03  0.00000000000E+00 0. -1.
          1   -1    0    0  501    0 -0.00000000000E+00 -0.00000000000E+00 -0.12752697702E+04  0.12752697702E+04  0.00000000000E+00 0. -1.
         25    2    1    2    0    0 -0.15262330657E+02 -0.12847555628E+03 -0.43309544113E+03  0.46896976405E+03  0.12498828412E+03 0.  0.
          2    1    1    2  501    0  0.34659945433E+02  0.51533225781E+02 -0.81511081481E+03  0.81747331797E+03  0.00000000000E+00 0. -1.
          1    1    1    2  502    0 -0.19397614776E+02  0.76942330496E+02  0.19017665608E+03  0.20606685856E+03  0.00000000000E+00 0. -1.
         22    1    3    3    0    0  0.10023462591E+02 -0.12467901957E+03 -0.21010968326E+03  0.24452281432E+03  0.00000000000E+00 0.  1.
         22    1    3    3    0    0 -0.25285793248E+02 -0.37965367101E+01 -0.22298575787E+03  0.22444694973E+03  0.00000000000E+00 0.  1.
</event>
<event>
 7    1  0.6330892E-006  0.1146211E+03  0.7818608E-02  0.1295600E+00
          2   -1    0    0  502    0  0.00000000000E+00  0.00000000000E+00  0.30147019427E+04  0.30147019427E+04  0.00000000000E+00 0. -1.
          1   -1    0    0  501    0 -0.00000000000E+00 -0.00000000000E+00 -0.59398409697E+03  0.59398409697E+03  0.00000000000E+00 0. -1.
         25    2    1    2    0    0  0.13644969480E+02  0.70686469544E+02  0.11806215747E+04  0.11894011795E+04  0.12500040452E+03 0.  0.
          2    1    1    2  501    0 -0.89183153458E+02 -0.72449079970E+02 -0.58320626031E+03  0.59441740058E+03  0.00000000000E+00 0. -1.
          1    1    1    2  502    0  0.75538183979E+02  0.17626104265E+01  0.18233025314E+04  0.18248674595E+04  0.00000000000E+00 0. -1.
         22    1    3    3    0    0 -0.12500712570E+02 -0.92888457383E+01  0.77442449525E+03  0.77458107988E+03  0.00000000000E+00 0.  1.
         22    1    3    3    0    0  0.26145682049E+02  0.79975315282E+02  0.40619707942E+03  0.41482009965E+03  0.00000000000E+00 0.  1.
</event>
<event>
 7    1  0.6330892E-006  0.6245929E+02  0.7818608E-02  0.1420126E+00
          2   -1    0    0  502    0  0.00000000000E+00  0.00000000000E+00  0.34337276577E+03  0.34337276577E+03  0.00000000000E+00 0. -1.
          1   -1    0    0  501    0 -0.00000000000E+00 -0.00000000000E+00 -0.66097742527E+02  0.66097742527E+02  0.00000000000E+00 0. -1.
         25    2    1    2    0    0 -0.71287449528E+02 -0.38533043860E+01  0.10720149675E+03  0.17948302587E+03  0.12500098902E+03 0.  0.
          2    1    1    2  501    0  0.50040907285E+02 -0.39658066415E+02  0.12395925861E+02  0.65042398570E+02  0.00000000000E+00 0. -1.
          1    1    1    2  502    0  0.21246542243E+02  0.43511370801E+02  0.15767760064E+03  0.16494508386E+03  0.00000000000E+00 0. -1.
         22    1    3    3    0    0 -0.41598860850E+02  0.60272391157E+02  0.56979960114E+02  0.92789774298E+02  0.00000000000E+00 0.  1.
         22    1    3    3    0    0 -0.29688588679E+02 -0.64125695542E+02  0.50221536631E+02  0.86693251572E+02  0.00000000000E+00 0.  1.
</event>
<event>
 7    1  0.6330892E-006  0.1018348E+03  0.7818608E-02  0.1436656E+00
          2   -1    0    0  502    0  0.00000000000E+00  0.00000000000E+00  0.11380164207E+04  0.11380164207E+04  0.00000000000E+00 0. -1.
          1   -1    0    0  501    0 -0.00000000000E+00 -0.00000000000E+00 -0.28172043488E+03  0.28172043488E+03  0.00000000000E+00 0. -1.
         25    2    1    2    0    0 -0.10669413080E+03 -0.51170449263E+02 -0.13791795252E+03  0.22056172798E+03  0.12499624713E+03 0.  0.
          2    1    1    2  501    0  0.24656586110E+02 -0.88401835243E+01 -0.98408625514E+02  0.10183493339E+03  0.00000000000E+00 0. -1.
          1    1    1    2  502    0  0.82037544695E+02  0.60010632787E+02  0.10926225638E+04  0.10973401942E+04  0.00000000000E+00 0. -1.
         22    1    3    3    0    0  0.22269478159E+02 -0.20570477429E+02 -0.58918169273E+02  0.66260281237E+02  0.00000000000E+00 0. -1.
         22    1    3    3    0    0 -0.12896360896E+03 -0.30599971834E+02 -0.78999783244E+02  0.15430144674E+03  0.00000000000E+00 0. -1.
</event>
<event>
 7    1  0.6330892E-006  0.5369010E+02  0.7818608E-02  0.1461174E+00
          2   -1    0    0  502    0  0.00000000000E+00  0.00000000000E+00  0.82518026173E+03  0.82518026173E+03  0.00000000000E+00 0. -1.
          1   -1    0    0  501    0 -0.00000000000E+00 -0.00000000000E+00 -0.30477234728E+03  0.30477234728E+03  0.00000000000E+00 0. -1.
         25    2    1    2    0    0  0.43674136275E+02 -0.14750867998E+02 -0.50446923803E+02  0.14248351347E+03  0.12502656199E+03 0.  0.
          2    1    1    2  501    0 -0.22741741429E+02  0.50537775267E+02 -0.20405718898E+03  0.21144878791E+03  0.00000000000E+00 0. -1.
          1    1    1    2  502    0 -0.20932394846E+02 -0.35786907269E+02  0.77491202724E+03  0.77602030763E+03  0.00000000000E+00 0. -1.
         22    1    3    3    0    0  0.32507024807E+02 -0.63787699302E+02 -0.48799569589E+00  0.71594799978E+02  0.00000000000E+00 0.  1.
         22    1    3    3    0    0  0.11167111468E+02  0.49036831304E+02 -0.49958928107E+02  0.70888713492E+02  0.00000000000E+00 0.  1.
</event>
<event>
 7    1  0.6330892E-006  0.8672593E+02  0.7818608E-02  0.1467545E+00
          2   -1    0    0  502    0  0.00000000000E+00  0.00000000000E+00  0.76693303376E+03  0.76693303376E+03  0.00000000000E+00 0. -1.
          1   -1    0    0  501    0 -0.00000000000E+00 -0.00000000000E+00 -0.11253380348E+03  0.11253380348E+03  0.00000000000E+00 0. -1.
         25    2    1    2    0    0  0.42393072850E+02  0.47672159072E+02  0.40576253674E+03  0.42934640215E+03  0.12500115777E+03 0.  0.
          2    1    1    2  501    0 -0.53803324247E+02 -0.69367310783E+02 -0.81075456748E+02  0.11949833134E+03  0.00000000000E+00 0. -1.
          1    1    1    2  502    0  0.11410251397E+02  0.21695151711E+02  0.32971215029E+03  0.33062210376E+03  0.00000000000E+00 0. -1.
         22    1    3    3    0    0 -0.98997750296E+01 -0.38274990633E+02  0.12501488487E+03  0.13111713043E+03  0.00000000000E+00 0. -1.
         22    1    3    3    0    0  0.52292847880E+02  0.85947149705E+02  0.28074765187E+03  0.29822927172E+03  0.00000000000E+00 0. -1.
</event>
<event>
 7    1  0.6330892E-006  0.3946094E+02  0.7818608E-02  0.1561070E+00
          2   -1    0    0  502    0  0.00000000000E+00  0.00000000000E+00  0.22766014057E+03  0.22766014057E+03  0.00000000000E+00 0. -1.
          1   -1    0    0  501    0 -0.00000000000E+00 -0.00000000000E+00 -0.65685827785E+03  0.65685827785E+03  0.00000000000E+00 0. -1.
         25    2    1    2    0    0  0.28239136130E+02  0.48384394797E+00 -0.10055332619E+03  0.16288518235E+03  0.12499171295E+03 0.  0.
          2    1    1    2  501    0 -0.11707040792E+01  0.28644775876E+02 -0.52273047791E+03  0.52351604204E+03  0.00000000000E+00 0. -1.
          1    1    1    2  502    0 -0.27068432051E+02 -0.29128619824E+02  0.19408566682E+03  0.19811719403E+03  0.00000000000E+00 0. -1.
         22    1    3    3    0    0  0.52097730533E+02  0.36699089635E+02 -0.12797575706E+02  0.64998266521E+02  0.00000000000E+00 0.  1.
         22    1    3    3    0    0 -0.23858594403E+02 -0.36215245687E+02 -0.87755750484E+02  0.97886915827E+02  0.00000000000E+00 0.  1.
</event>
<event>
 7    1  0.6330892E-006  0.2073747E+03  0.7818608E-02  0.1215578E+00
          2   -1    0    0  502    0  0.00000000000E+00  0.00000000000E+00  0.14255455256E+04  0.14255455256E+04  0.00000000000E+00 0. -1.
          1   -1    0    0  501    0 -0.00000000000E+00 -0.00000000000E+00 -0.20459070436E+03  0.20459070436E+03  0.00000000000E+00 0. -1.
         25    2    1    2    0    0 -0.14240830968E+03 -0.47659532375E+02  0.35230301102E+03  0.40285727672E+03  0.12500006456E+03 0.  0.
          2    1    1    2  501    0  0.21897743857E+03 -0.38619370950E+01 -0.10944683492E+03  0.24483595086E+03  0.00000000000E+00 0. -1.
          1    1    1    2  502    0 -0.76569128885E+02  0.51521469470E+02  0.97809864509E+03  0.98244300234E+03  0.00000000000E+00 0. -1.
         22    1    3    3    0    0 -0.82450847926E+01  0.29634932312E+02  0.11853826365E+03  0.12246440538E+03  0.00000000000E+00 0.  1.
         22    1    3    3    0    0 -0.13416322489E+03 -0.77294464687E+02  0.23376474737E+03  0.28039287134E+03  0.00000000000E+00 0.  1.
</event>
<event>
 7    1  0.6330892E-006  0.6688888E+02  0.7818608E-02  0.1405915E+00
          2   -1    0    0  502    0  0.00000000000E+00  0.00000000000E+00  0.10506851615E+04  0.10506851615E+04  0.00000000000E+00 0. -1.
          1   -1    0    0  501    0 -0.00000000000E+00 -0.00000000000E+00 -0.34628357205E+03  0.34628357205E+03  0.00000000000E+00 0. -1.
         25    2    1    2    0    0  0.21131992350E+02 -0.50377900954E+01 -0.42813254698E+02  0.13390188605E+03  0.12499919952E+03 0.  0.
          2    1    1    2  501    0 -0.71605395076E+02  0.64288883664E+01 -0.25226646164E+03  0.26231094312E+03  0.00000000000E+00 0. -1.
          1    1    1    2  502    0  0.50473402726E+02 -0.13910982709E+01  0.99948130582E+03  0.10007559044E+04  0.00000000000E+00 0. -1.
         22    1    3    3    0    0 -0.31117606378E+02  0.43865215016E+02 -0.81901188166E+01  0.54401659546E+02  0.00000000000E+00 0.  1.
         22    1    3    3    0    0  0.52249598728E+02 -0.48903005112E+02 -0.34623135882E+02  0.79500226506E+02  0.00000000000E+00 0.  1.
</event>
<event>
 7    1  0.6330892E-006  0.2869090E+03  0.7818608E-02  0.1197751E+00
          2   -1    0    0  502    0  0.00000000000E+00  0.00000000000E+00  0.53624066290E+03  0.53624066290E+03  0.00000000000E+00 0. -1.
          1   -1    0    0  501    0 -0.00000000000E+00 -0.00000000000E+00 -0.23734534489E+04  0.23734534489E+04  0.00000000000E+00 0. -1.
         25    2    1    2    0    0  0.20003891389E+03 -0.76006565959E+02  0.16076152239E+03  0.29540183952E+03  0.12500165827E+03 0.  0.
          2    1    1    2  501    0 -0.25787931551E+03  0.13239482777E+03 -0.22915469727E+04  0.23098090094E+04  0.00000000000E+00 0. -1.
          1    1    1    2  502    0  0.57840401621E+02 -0.56388261816E+02  0.29357266433E+03  0.30448326287E+03  0.00000000000E+00 0. -1.
         22    1    3    3    0    0  0.40979750025E+02  0.47744378233E+01 -0.16012723944E+02  0.44255423360E+02  0.00000000000E+00 0.  1.
         22    1    3    3    0    0  0.15905916386E+03 -0.80781003782E+02  0.17677424634E+03  0.25114641616E+03  0.00000000000E+00 0.  1.
</event>
<event>
 7    1  0.6330892E-006  0.1107346E+03  0.7818608E-02  0.1306197E+00
          2   -1    0    0  502    0  0.00000000000E+00  0.00000000000E+00  0.20153318713E+04  0.20153318713E+04  0.00000000000E+00 0. -1.
          1   -1    0    0  501    0 -0.00000000000E+00 -0.00000000000E+00 -0.10785856631E+03  0.10785856631E+03  0.00000000000E+00 0. -1.
         25    2    1    2    0    0 -0.20984717666E+02 -0.61456353375E+02  0.76844716041E+02  0.16046039283E+03  0.12500074215E+03 0.  0.
          2    1    1    2  501    0  0.53194165426E+02 -0.46938234059E+02 -0.44794549432E+02  0.83900945828E+02  0.00000000000E+00 0. -1.
          1    1    1    2  502    0 -0.32209447761E+02  0.10839458743E+03  0.18754231383E+04  0.18788290989E+04  0.00000000000E+00 0. -1.
         22    1    3    3    0    0 -0.55683042827E+02  0.40530978610E+01  0.31315849426E+01  0.55918115893E+02  0.00000000000E+00 0.  1.
         22    1    3    3    0    0  0.34698325161E+02 -0.65509451236E+02  0.73713131098E+02  0.10454227693E+03  0.00000000000E+00 0.  1.
</event>
<event>
 7    1  0.6330892E-006  0.1453645E+03  0.7818608E-02  0.1278177E+00
          2   -1    0    0  502    0  0.00000000000E+00  0.00000000000E+00  0.14055123490E+04  0.14055123490E+04  0.00000000000E+00 0. -1.
          1   -1    0    0  501    0 -0.00000000000E+00 -0.00000000000E+00 -0.58839519808E+03  0.58839519808E+03  0.00000000000E+00 0. -1.
         25    2    1    2    0    0 -0.56053406169E+02  0.55077329741E+02 -0.68369625070E+02  0.16270988682E+03  0.12499842016E+03 0.  0.
          2    1    1    2  501    0 -0.36897157629E+02  0.59716326598E+02 -0.46620470827E+03  0.47145972248E+03  0.00000000000E+00 0. -1.
          1    1    1    2  502    0  0.92950563798E+02 -0.11479365634E+03  0.13516914842E+04  0.13597379378E+04  0.00000000000E+00 0. -1.
         22    1    3    3    0    0 -0.28791409439E+02 -0.93047751439E+01  0.29614848016E+02  0.42338674058E+02  0.00000000000E+00 0. -1.
         22    1    3    3    0    0 -0.27261996731E+02  0.64382104885E+02 -0.97984473087E+02  0.12037121276E+03  0.00000000000E+00 0. -1.
</event>
<event>
 7    1  0.6330892E-006  0.1362230E+03  0.7818608E-02  0.1266551E+00
          2   -1    0    0  502    0  0.00000000000E+00  0.00000000000E+00  0.20284327153E+04  0.20284327153E+04  0.00000000000E+00 0. -1.
          1   -1    0    0  501    0 -0.00000000000E+00 -0.00000000000E+00 -0.68521104793E+02  0.68521104793E+02  0.00000000000E+00 0. -1.
         25    2    1    2    0    0 -0.12411669401E+03  0.57532750707E+02  0.54479675492E+03  0.57545099868E+03  0.12500150628E+03 0.  0.
          2    1    1    2  501    0 -0.14402516875E+02 -0.82535359211E+02 -0.14454740083E+02  0.85020335940E+02  0.00000000000E+00 0. -1.
          1    1    1    2  502    0  0.13851921088E+03  0.25002608504E+02  0.14295695957E+04  0.14364824855E+04  0.00000000000E+00 0. -1.
         22    1    3    3    0    0 -0.36035059117E+02  0.52863182809E+02  0.40591951816E+03  0.41093028217E+03  0.00000000000E+00 0. -1.
         22    1    3    3    0    0 -0.88081634890E+02  0.46695678979E+01  0.13887723676E+03  0.16452071650E+03  0.00000000000E+00 0. -1.
</event>
<event>
 7    1  0.6330892E-006  0.1126113E+03  0.7818608E-02  0.1425591E+00
          2   -1    0    0  502    0  0.00000000000E+00  0.00000000000E+00  0.54866795247E+03  0.54866795247E+03  0.00000000000E+00 0. -1.
          1   -1    0    0  501    0 -0.00000000000E+00 -0.00000000000E+00 -0.19525182687E+04  0.19525182687E+04  0.00000000000E+00 0. -1.
         25    2    1    2    0    0 -0.11630337038E+03 -0.66216479610E+02 -0.16478683379E+03  0.24635563340E+03  0.12500120552E+03 0.  0.
          2    1    1    2  501    0  0.90560100273E+02  0.65413705350E+02 -0.17448330308E+04  0.17484056709E+04  0.00000000000E+00 0. -1.
          1    1    1    2  502    0  0.25743270108E+02  0.80277426032E+00  0.50576954836E+03  0.50642491689E+03  0.00000000000E+00 0. -1.
         22    1    3    3    0    0  0.15602308510E+02 -0.10194991047E+02 -0.74912529648E+02  0.77196223816E+02  0.00000000000E+00 0. -1.
         22    1    3    3    0    0 -0.13190567889E+03 -0.56021488563E+02 -0.89874304142E+02  0.16915940958E+03  0.00000000000E+00 0. -1.
</event>
<event>
 7    1  0.6330892E-006  0.2943776E+03  0.7818608E-02  0.1204950E+00
          2   -1    0    0  502    0  0.00000000000E+00  0.00000000000E+00  0.12426509983E+04  0.12426509983E+04  0.00000000000E+00 0. -1.
          1   -1    0    0  501    0 -0.00000000000E+00 -0.00000000000E+00 -0.66072358910E+03  0.66072358910E+03  0.00000000000E+00 0. -1.
         25    2    1    2    0    0  0.25367432054E+03 -0.21359087389E+03  0.24484016707E+03  0.43075069831E+03  0.12501093702E+03 0.  0.
          2    1    1    2  501    0 -0.43773587185E+01  0.72689810279E+02 -0.54261880557E+03  0.54748345906E+03  0.00000000000E+00 0. -1.
          1    1    1    2  502    0 -0.24929696183E+03  0.14090106361E+03  0.87970604773E+03  0.92514043005E+03  0.00000000000E+00 0. -1.
         22    1    3    3    0    0  0.88382117956E+01 -0.35561693785E+02  0.75410780208E+02  0.83842315237E+02  0.00000000000E+00 0. -1.
         22    1    3    3    0    0  0.24483610875E+03 -0.17802918010E+03  0.16942938686E+03  0.34690838307E+03  0.00000000000E+00 0. -1.
</event>
<event>
 7    1  0.6330892E-006  0.1208614E+03  0.7818608E-02  0.1308691E+00
          2   -1    0    0  502    0  0.00000000000E+00  0.00000000000E+00  0.12095503856E+04  0.12095503856E+04  0.00000000000E+00 0. -1.
          1   -1    0    0  501    0 -0.00000000000E+00 -0.00000000000E+00 -0.30265412013E+03  0.30265412013E+03  0.00000000000E+00 0. -1.
         25    2    1    2    0    0  0.26855125414E+02 -0.69188225520E+02  0.65850300627E+03  0.67435821231E+03  0.12499832372E+03 0.  0.
          2    1    1    2  501    0 -0.88749946508E+02  0.83543428557E+02 -0.28014037554E+03  0.30550726254E+03  0.00000000000E+00 0. -1.
          1    1    1    2  502    0  0.61894821094E+02 -0.14355203037E+02  0.52853363471E+03  0.53233903084E+03  0.00000000000E+00 0. -1.
         22    1    3    3    0    0  0.47343083585E+01 -0.10117194658E+03  0.38478591166E+03  0.39789241543E+03  0.00000000000E+00 0.  1.
         22    1    3    3    0    0  0.22120817055E+02  0.31983721058E+02  0.27371709461E+03  0.27646579687E+03  0.00000000000E+00 0.  1.
</event>
<event>
 7    1  0.6330892E-006  0.8877281E+02  0.7818608E-02  0.1319113E+00
          2   -1    0    0  502    0  0.00000000000E+00  0.00000000000E+00  0.99312971392E+03  0.99312971392E+03  0.00000000000E+00 0. -1.
          1   -1    0    0  501    0 -0.00000000000E+00 -0.00000000000E+00 -0.95578772238E+03  0.95578772238E+03  0.00000000000E+00 0. -1.
         25    2    1    2    0    0 -0.86737563090E+02 -0.14237856246E+03 -0.31972948300E+03  0.38163731863E+03  0.12500016310E+03 0.  0.
          2    1    1    2  501    0  0.45470720985E+02  0.64289020657E+02 -0.60050154462E+03  0.60564244380E+03  0.00000000000E+00 0. -1.
          1    1    1    2  502    0  0.41266842106E+02  0.78089541799E+02  0.95757301916E+03  0.96163767387E+03  0.00000000000E+00 0. -1.
         22    1    3    3    0    0 -0.90372919670E+02 -0.15944468031E+03 -0.25139239665E+03  0.31110771091E+03  0.00000000000E+00 0.  1.
         22    1    3    3    0    0  0.36353565793E+01  0.17066117854E+02 -0.68337086344E+02  0.70529607726E+02  0.00000000000E+00 0.  1.
</event>
<event>
 7    1  0.6330892E-006  0.3994222E+02  0.7818608E-02  0.1520209E+00
          2   -1    0    0  502    0  0.00000000000E+00  0.00000000000E+00  0.35478972752E+03  0.35478972752E+03  0.00000000000E+00 0. -1.
          1   -1    0    0  501    0 -0.00000000000E+00 -0.00000000000E+00 -0.14526157139E+04  0.14526157139E+04  0.00000000000E+00 0. -1.
         25    2    1    2    0    0 -0.49163647344E+02 -0.86336868419E+01 -0.80271282269E+03  0.81391923290E+03  0.12500014880E+03 0.  0.
          2    1    1    2  501    0  0.27352236241E+02 -0.24837263291E+02 -0.64262466045E+03  0.64368586180E+03  0.00000000000E+00 0. -1.
          1    1    1    2  502    0  0.21811411102E+02  0.33470950133E+02  0.34751149678E+03  0.34980034670E+03  0.00000000000E+00 0. -1.
         22    1    3    3    0    0 -0.91514436402E+01 -0.55189467708E+02 -0.18794866712E+03  0.19609775047E+03  0.00000000000E+00 0. -1.
         22    1    3    3    0    0 -0.40012203703E+02  0.46555780866E+02 -0.61476415557E+03  0.61782148243E+03  0.00000000000E+00 0. -1.
</event>
<event>
 7    1  0.6330892E-006  0.4879514E+02  0.7818608E-02  0.1452558E+00
          2   -1    0    0  502    0  0.00000000000E+00  0.00000000000E+00  0.38761908552E+03  0.38761908552E+03  0.00000000000E+00 0. -1.
          1   -1    0    0  501    0 -0.00000000000E+00 -0.00000000000E+00 -0.13340181235E+03  0.13340181235E+03  0.00000000000E+00 0. -1.
         25    2    1    2    0    0  0.11222354726E+02 -0.10512388511E+02  0.48617028663E+02  0.13500197990E+03  0.12500187016E+03 0.  0.
          2    1    1    2  501    0 -0.32877135803E+02 -0.35761824000E+02 -0.81244481384E+02  0.94659811271E+02  0.00000000000E+00 0. -1.
          1    1    1    2  502    0  0.21654781078E+02  0.46274212511E+02  0.28684472589E+03  0.29135910670E+03  0.00000000000E+00 0. -1.
         22    1    3    3    0    0  0.65544538219E+01  0.23328738211E+01 -0.42398756560E+02  0.42965773856E+02  0.00000000000E+00 0.  1.
         22    1    3    3    0    0  0.46679009037E+01 -0.12845262332E+02  0.91015785223E+02  0.92036206044E+02  0.00000000000E+00 0.  1.
</event>
<event>
 7    1  0.6330892E-006  0.1600108E+03  0.7818608E-02  0.1222108E+00
          2   -1    0    0  502    0  0.00000000000E+00  0.00000000000E+00  0.15511837890E+04  0.15511837890E+04  0.00000000000E+00 0. -1.
          1   -1    0    0  501    0 -0.00000000000E+00 -0.00000000000E+00 -0.49561444951E+03  0.49561444951E+03  0.00000000000E+00 0. -1.
         25    2    1    2    0    0 -0.19260433408E+03 -0.17502669474E+03  0.42792563216E+02  0.29186660174E+03  0.12499654542E+03 0.  0.
          2    1    1    2  501    0  0.12251295630E+03  0.88096979282E+02 -0.35336376681E+03  0.38423489419E+03  0.00000000000E+00 0. -1.
          1    1    1    2  502    0  0.70091377776E+02  0.86929715455E+02  0.13661405430E+04  0.13706967425E+04  0.00000000000E+00 0. -1.
         22    1    3    3    0    0 -0.98593886926E+02 -0.67640487597E+02 -0.40957071680E+02  0.12638620107E+03  0.00000000000E+00 0. -1.
         22    1    3    3    0    0 -0.94010447150E+02 -0.10738620714E+03  0.83749634897E+02  0.16548040066E+03  0.00000000000E+00 0. -1.
</event>
<event>
 7    1  0.6330892E-006  0.4199650E+02  0.7818608E-02  0.1510265E+00
          2   -1    0    0  502    0  0.00000000000E+00  0.00000000000E+00  0.18830362703E+03  0.18830362703E+03  0.00000000000E+00 0. -1.
          1   -1    0    0  501    0 -0.00000000000E+00 -0.00000000000E+00 -0.82229208741E+03  0.82229208741E+03  0.00000000000E+00 0. -1.
         25    2    1    2    0    0  0.65094364974E+02 -0.38959041759E+02 -0.29491459405E+03  0.32917446832E+03  0.12500451802E+03 0.  0.
          2    1    1    2  501    0 -0.38552910708E+02  0.12366861095E+02 -0.50736971329E+03  0.50898260495E+03  0.00000000000E+00 0. -1.
          1    1    1    2  502    0 -0.26541454266E+02  0.26592180664E+02  0.16829584696E+03  0.17243864117E+03  0.00000000000E+00 0. -1.
         22    1    3    3    0    0 -0.28721184573E+02 -0.13861417813E+02 -0.15877649483E+03  0.16194758614E+03  0.00000000000E+00 0. -1.
         22    1    3    3    0    0  0.93815549547E+02 -0.25097623947E+02 -0.13613809922E+03  0.16722688218E+03  0.00000000000E+00 0. -1.
</event>
<event>
 7    1  0.6330892E-006  0.2213939E+03  0.7818608E-02  0.1276240E+00
          2   -1    0    0  502    0  0.00000000000E+00  0.00000000000E+00  0.67332006894E+03  0.67332006894E+03  0.00000000000E+00 0. -1.
          1   -1    0    0  501    0 -0.00000000000E+00 -0.00000000000E+00 -0.68940359027E+03  0.68940359027E+03  0.00000000000E+00 0. -1.
         25    2    1    2    0    0 -0.17676390915E+03 -0.40750738989E+02 -0.20611829981E+03  0.30168805789E+03  0.12499931380E+03 0.  0.
          2    1    1    2  501    0 -0.36654260958E+02 -0.29339693921E+02 -0.41396382125E+03  0.41661780781E+03  0.00000000000E+00 0. -1.
          1    1    1    2  502    0  0.21341817011E+03  0.70090432909E+02  0.60399859973E+03  0.64441779351E+03  0.00000000000E+00 0. -1.
         22    1    3    3    0    0 -0.36639199171E+02  0.16212566123E+02 -0.12243100664E+03  0.12882014440E+03  0.00000000000E+00 0. -1.
         22    1    3    3    0    0 -0.14012470998E+03 -0.56963305111E+02 -0.83687293169E+02  0.17286791349E+03  0.00000000000E+00 0. -1.
</event>
<event>
 7    1  0.6330892E-006  0.4991891E+02  0.7818608E-02  0.1450020E+00
          2   -1    0    0  502    0  0.00000000000E+00  0.00000000000E+00  0.53551231754E+03  0.53551231754E+03  0.00000000000E+00 0. -1.
          1   -1    0    0  501    0 -0.00000000000E+00 -0.00000000000E+00 -0.17443279079E+04  0.17443279079E+04  0.00000000000E+00 0. -1.
         25    2    1    2    0    0  0.56443265263E+02 -0.11239868060E+01 -0.15951900782E+03  0.21037628164E+03  0.12499904193E+03 0.  0.
          2    1    1    2  501    0 -0.25983294852E+02  0.40809070272E+02 -0.15577772127E+04  0.15585282661E+04  0.00000000000E+00 0. -1.
          1    1    1    2  502    0 -0.30459970411E+02 -0.39685083466E+02  0.50848063009E+03  0.51093567777E+03  0.00000000000E+00 0. -1.
         22    1    3    3    0    0 -0.30095436446E+02  0.48651332176E+01 -0.10159132024E+03  0.10606696547E+03  0.00000000000E+00 0.  1.
         22    1    3    3    0    0  0.86538701709E+02 -0.59891200236E+01 -0.57927687583E+02  0.10430931617E+03  0.00000000000E+00 0.  1.
</event>
<event>
 7    1  0.6330892E-006  0.7697016E+02  0.7818608E-02  0.1420488E+00
          2   -1    0    0  502    0  0.00000000000E+00  0.00000000000E+00  0.23053111644E+04  0.23053111644E+04  0.00000000000E+00 0. -1.
          1   -1    0    0  501    0 -0.00000000000E+00 -0.00000000000E+00 -0.12846185949E+02  0.12846185949E+02  0.00000000000E+00 0. -1.
         25    2    1    2    0    0 -0.10206285472E+03 -0.13479099597E+01  0.15043022288E+04  0.15129354940E+04  0.12501987933E+03 0.  0.
          2    1    1    2  501    0  0.35364449916E+02  0.16873443009E+02  0.48294010957E+02  0.62190585230E+02  0.00000000000E+00 0. -1.
          1    1    1    2  502    0  0.66698404804E+02 -0.15525533049E+02  0.73986873875E+03  0.74303127119E+03  0.00000000000E+00 0. -1.
         22    1    3    3    0    0 -0.82494641420E+02  0.31546733112E+02  0.48899683437E+03  0.49690891143E+03  0.00000000000E+00 0.  1.
         22    1    3    3    0    0 -0.19568213301E+02 -0.32894643072E+02  0.10153053944E+04  0.10160265825E+04  0.00000000000E+00 0.  1.
</event>
<event>
 7    1  0.6330892E-006  0.4949128E+02  0.7818608E-02  0.1510950E+00
          2   -1    0    0  502    0  0.00000000000E+00  0.00000000000E+00  0.34017833559E+03  0.34017833559E+03  0.00000000000E+00 0. -1.
          1   -1    0    0  501    0 -0.00000000000E+00 -0.00000000000E+00 -0.43099377818E+03  0.43099377818E+03  0.00000000000E+00 0. -1.
         25    2    1    2    0    0  0.81794672660E+01 -0.52521558369E+02  0.58736340404E+02  0.14798384203E+03  0.12499536807E+03 0.  0.
          2    1    1    2  501    0  0.26786346242E+02  0.17015907854E+02 -0.38308518922E+03  0.38439733566E+03  0.00000000000E+00 0. -1.
          1    1    1    2  502    0 -0.34965813508E+02  0.35505650515E+02  0.23353340622E+03  0.23879093608E+03  0.00000000000E+00 0. -1.
         22    1    3    3    0    0  0.50520142509E+02 -0.18306346032E+02 -0.15501493112E+02  0.55925874092E+02  0.00000000000E+00 0. -1.
         22    1    3    3    0    0 -0.42340675243E+02 -0.34215212337E+02  0.74237833516E+02  0.92057967936E+02  0.00000000000E+00 0. -1.
</event>
<event>
 7    1  0.6330892E-006  0.1423453E+03  0.7818608E-02  0.1320573E+00
          2   -1    0    0  502    0  0.00000000000E+00  0.00000000000E+00  0.71497126434E+03  0.71497126434E+03  0.00000000000E+00 0. -1.
          1   -1    0    0  501    0 -0.00000000000E+00 -0.00000000000E+00 -0.55503725889E+03  0.55503725889E+03  0.00000000000E+00 0. -1.
         25    2    1    2    0    0  0.19504675699E+01  0.18981814213E+03 -0.33330475825E+03  0.40342472042E+03  0.12499884707E+03 0.  0.
          2    1    1    2  501    0  0.11302112463E+01 -0.48458302808E+02 -0.17600976363E+03  0.18256210280E+03  0.00000000000E+00 0. -1.
          1    1    1    2  502    0 -0.30806788162E+01 -0.14135983932E+03  0.66924852733E+03  0.68402170001E+03  0.00000000000E+00 0. -1.
         22    1    3    3    0    0  0.12662654905E+02  0.13404357569E+03 -0.11256611022E+03  0.17549687229E+03  0.00000000000E+00 0.  1.
         22    1    3    3    0    0 -0.10712187335E+02  0.55774566436E+02 -0.22073864803E+03  0.22792784813E+03  0.00000000000E+00 0.  1.
</event>
<event>
 7    1  0.6330892E-006  0.1433742E+03  0.7818608E-02  0.1288243E+00
          2   -1    0    0  502    0  0.00000000000E+00  0.00000000000E+00  0.21493896550E+03  0.21493896550E+03  0.00000000000E+00 0. -1.
          1   -1    0    0  501    0 -0.00000000000E+00 -0.00000000000E+00 -0.19458995747E+04  0.19458995747E+04  0.00000000000E+00 0. -1.
         25    2    1    2    0    0 -0.67409659098E+02  0.14408339439E+03 -0.23048169799E+03  0.30667831301E+03  0.12500275151E+03 0.  0.
          2    1    1    2  501    0  0.27162937236E+01 -0.14310321732E+03 -0.16682328095E+04  0.16743615546E+04  0.00000000000E+00 0. -1.
          1    1    1    2  502    0  0.64693365375E+02 -0.98017706811E+00  0.16775389826E+03  0.17979867255E+03  0.00000000000E+00 0. -1.
         22    1    3    3    0    0  0.45646962406E+00  0.59743645765E+02 -0.17523801979E+03  0.18514285067E+03  0.00000000000E+00 0.  1.
         22    1    3    3    0    0 -0.67866128722E+02  0.84339748621E+02 -0.55243678199E+02  0.12153546234E+03  0.00000000000E+00 0.  1.
</event>
<event>
 7    1  0.6330892E-006  0.3798761E+02  0.7818608E-02  0.1613818E+00
          2   -1    0    0  502    0  0.00000000000E+00  0.00000000000E+00  0.34237353185E+03  0.34237353185E+03  0.00000000000E+00 0. -1.
          1   -1    0    0  501    0 -0.00000000000E+00 -0.00000000000E+00 -0.27942013403E+03  0.27942013403E+03  0.00000000000E+00 0. -1.
         25    2    1    2    0    0  0.32292731789E+00  0.18625742884E+02 -0.10623352085E+03  0.16509564386E+03  0.12499595229E+03 0.  0.
          2    1    1    2  501    0 -0.12589462274E+02  0.17512613272E+02 -0.14177339312E+03  0.14340460656E+03  0.00000000000E+00 0. -1.
          1    1    1    2  502    0  0.12266534956E+02 -0.36138356157E+02  0.31096031179E+03  0.31329341546E+03  0.00000000000E+00 0. -1.
         22    1    3    3    0    0  0.37901648637E+02 -0.12742014962E+02 -0.10896446365E+03  0.11606958367E+03  0.00000000000E+00 0.  1.
         22    1    3    3    0    0 -0.37578721319E+02  0.31367757846E+02  0.27309428076E+01  0.49026060181E+02  0.00000000000E+00 0.  1.
</event>
<event>
 7    1  0.6330892E-006  0.2230454E+03  0.7818608E-02  0.1256139E+00
          2   -1    0    0  502    0  0.00000000000E+00  0.00000000000E+00  0.18814907814E+04  0.18814907814E+04  0.00000000000E+00 0. -1.
          1   -1    0    0  501    0 -0.00000000000E+00 -0.00000000000E+00 -0.13912115851E+04  0.13912115851E+04  0.00000000000E+00 0. -1.
         25    2    1    2    0    0  0.26777291869E+03 -0.74946511591E+02 -0.32048500000E+03  0.44232943254E+03  0.12500150431E+03 0.  0.
          2    1    1    2  501    0 -0.51948034398E+02  0.22647327988E+02 -0.10022289367E+04  0.10038298368E+04  0.00000000000E+00 0. -1.
          1    1    1    2  502    0 -0.21582488429E+03  0.52299183603E+02  0.18129931330E+04  0.18265430971E+04  0.00000000000E+00 0. -1.
         22    1    3    3    0    0  0.19009894518E+03 -0.58885787602E+02 -0.13467032388E+03  0.24029407207E+03  0.00000000000E+00 0. -1.
         22    1    3    3    0    0  0.77673973510E+02 -0.16060723989E+02 -0.18581467612E+03  0.20203536046E+03  0.00000000000E+00 0. -1.
</event>
<event>
 7    1  0.6330892E-006  0.3612177E+02  0.7818608E-02  0.1549466E+00
          2   -1    0    0  502    0  0.00000000000E+00  0.00000000000E+00  0.98887116386E+02  0.98887116386E+02  0.00000000000E+00 0. -1.
          1   -1    0    0  501    0 -0.00000000000E+00 -0.00000000000E+00 -0.38155595471E+03  0.38155595471E+03  0.00000000000E+00 0. -1.
         25    2    1    2    0    0 -0.36333469259E+02  0.11763078179E+01 -0.99206257406E+02  0.16367084419E+03  0.12499903616E+03 0.  0.
          2    1    1    2  501    0  0.14312972009E+02 -0.30536849498E+02 -0.24381525142E+03  0.24613662297E+03  0.00000000000E+00 0. -1.
          1    1    1    2  502    0  0.22020497250E+02  0.29360541680E+02  0.60352670499E+02  0.70635603935E+02  0.00000000000E+00 0. -1.
         22    1    3    3    0    0 -0.59097132865E+02  0.20461827859E+02 -0.11425833062E+03  0.13025407337E+03  0.00000000000E+00 0.  1.
         22    1    3    3    0    0  0.22763663606E+02 -0.19285520041E+02  0.15052073216E+02  0.33416770821E+02  0.00000000000E+00 0.  1.
</event>
<event>
 7    1  0.6330892E-006  0.7978684E+02  0.7818608E-02  0.1367979E+00
          2   -1    0    0  502    0  0.00000000000E+00  0.00000000000E+00  0.46707918832E+03  0.46707918832E+03  0.00000000000E+00 0. -1.
          1   -1    0    0  501    0 -0.00000000000E+00 -0.00000000000E+00 -0.13392041502E+04  0.13392041502E+04  0.00000000000E+00 0. -1.
         25    2    1    2    0    0  0.77790163536E+01 -0.10678507489E+03 -0.74716930643E+03  0.76508214660E+03  0.12500061303E+03 0.  0.
          2    1    1    2  501    0 -0.43396404057E+02  0.61646304652E+02 -0.57882012439E+03  0.58370904667E+03  0.00000000000E+00 0. -1.
          1    1    1    2  502    0  0.35617387704E+02  0.45138770234E+02  0.45386446890E+03  0.45749214530E+03  0.00000000000E+00 0. -1.
         22    1    3    3    0    0 -0.55781088265E+02 -0.30310599100E+02 -0.34572234336E+03  0.35150277513E+03  0.00000000000E+00 0.  1.
         22    1    3    3    0    0  0.63560104618E+02 -0.76474475787E+02 -0.40144696308E+03  0.41357937148E+03  0.00000000000E+00 0.  1.
</event>
<event>
 7    1  0.6330892E-006  0.4152066E+02  0.7818608E-02  0.1574593E+00
          2   -1    0    0  502    0  0.00000000000E+00  0.00000000000E+00  0.39167598103E+02  0.39167598103E+02  0.00000000000E+00 0. -1.
          1   -1    0    0  501    0 -0.00000000000E+00 -0.00000000000E+00 -0.25795897240E+04  0.25795897240E+04  0.00000000000E+00 0. -1.
         25    2    1    2    0    0 -0.60174489125E+02 -0.11652435834E+02 -0.22813309251E+03  0.26725782192E+03  0.12500114831E+03 0.  0.
          2    1    1    2  501    0  0.36432555908E+02  0.19579310645E+02 -0.23236453981E+04  0.23240134717E+04  0.00000000000E+00 0. -1.
          1    1    1    2  502    0  0.23741933217E+02 -0.79268748109E+01  0.11356364776E+02  0.27486028416E+02  0.00000000000E+00 0. -1.
         22    1    3    3    0    0 -0.66821831784E+02  0.26801083524E+02 -0.57273518833E+02  0.91998430641E+02  0.00000000000E+00 0.  1.
         22    1    3    3    0    0  0.66473426588E+01 -0.38453519358E+02 -0.17085957368E+03  0.17525939128E+03  0.00000000000E+00 0.  1.
</event>
<event>
 7    1  0.6330892E-006  0.9782970E+02  0.7818608E-02  0.1418169E+00
          2   -1    0    0  502    0  0.00000000000E+00  0.00000000000E+00  0.48030561756E+02  0.48030561756E+02  0.00000000000E+00 0. -1.
          1   -1    0    0  501    0 -0.00000000000E+00 -0.00000000000E+00 -0.87275041589E+03  0.87275041589E+03  0.00000000000E+00 0. -1.
         25    2    1    2    0    0  0.91376052682E+00  0.10077740673E+03 -0.24301933559E+03  0.29127582906E+03  0.12500516173E+03 0.  0.
          2    1    1    2  501    0  0.29608293979E+02 -0.93472814172E+02 -0.58914658876E+03  0.59724996535E+03  0.00000000000E+00 0. -1.
          1    1    1    2  502    0 -0.30522054506E+02 -0.73045925617E+01  0.74460702157E+01  0.32255183234E+02  0.00000000000E+00 0. -1.
         22    1    3    3    0    0  0.17329068516E+02  0.71800426855E+02 -0.37053941960E+02  0.82635298311E+02  0.00000000000E+00 0. -1.
         22    1    3    3    0    0 -0.16415307989E+02  0.28976979879E+02 -0.20596539363E+03  0.20864053075E+03  0.00000000000E+00 0. -1.
</event>
<event>
 7    1  0.6330892E-006  0.1645984E+03  0.7818608E-02  0.1391993E+00
          2   -1    0    0  502    0  0.00000000000E+00  0.00000000000E+00  0.39338034719E+03  0.39338034719E+03  0.00000000000E+00 0. -1.
          1   -1    0    0  501    0 -0.00000000000E+00 -0.00000000000E+00 -0.99636739981E+03  0.99636739981E+03  0.00000000000E+00 0. -1.
         25    2    1    2    0    0 -0.13390648730E+03  0.55241916001E+02 -0.46477308948E+03  0.50261379898E+03  0.12499595831E+03 0.  0.
          2    1    1    2  501    0 -0.22785865904E+02 -0.24214741311E+01 -0.49414088825E+03  0.49467188788E+03  0.00000000000E+00 0. -1.
          1    1    1    2  502    0  0.15669235321E+03 -0.52820441870E+02  0.35592692511E+03  0.39246206014E+03  0.00000000000E+00 0. -1.
         22    1    3    3    0    0 -0.39511188812E+02 -0.26213391364E+01 -0.20183713461E+02  0.44445334393E+02  0.00000000000E+00 0. -1.
         22    1    3    3    0    0 -0.94395298492E+02  0.57863255137E+02 -0.44458937602E+03  0.45816846459E+03  0.00000000000E+00 0. -1.
</event>
<event>
 7    1  0.6330892E-006  0.9244646E+02  0.7818608E-02  0.1470865E+00
          2   -1    0    0  502    0  0.00000000000E+00  0.00000000000E+00  0.15641749804E+04  0.15641749804E+04  0.00000000000E+00 0. -1.
          1   -1    0    0  501    0 -0.00000000000E+00 -0.00000000000E+00 -0.10983551309E+04  0.10983551309E+04  0.00000000000E+00 0. -1.
         25    2    1    2    0    0  0.73632596341E+02 -0.82409137894E+02 -0.34311006847E+02  0.17033945060E+03  0.12500103194E+03 0.  0.
          2    1    1    2  501    0 -0.69295612235E+02  0.60377123257E+02 -0.99382511358E+03  0.99806594735E+03  0.00000000000E+00 0. -1.
          1    1    1    2  502    0 -0.43369841063E+01  0.22032014637E+02  0.14939559699E+04  0.14941247134E+04  0.00000000000E+00 0. -1.
         22    1    3    3    0    0  0.54597414450E+02 -0.88001223392E+02 -0.73105982633E+02  0.12676583798E+03  0.00000000000E+00 0. -1.
         22    1    3    3    0    0  0.19035181891E+02  0.55920854986E+01  0.38794975786E+02  0.43573612613E+02  0.00000000000E+00 0. -1.
</event>
<event>
 7    1  0.6330892E-006  0.1996042E+03  0.7818608E-02  0.1203303E+00
          2   -1    0    0  502    0  0.00000000000E+00  0.00000000000E+00  0.10942615708E+04  0.10942615708E+04  0.00000000000E+00 0. -1.
          1   -1    0    0  501    0 -0.00000000000E+00 -0.00000000000E+00 -0.23471633700E+03  0.23471633700E+03  0.00000000000E+00 0. -1.
         25    2    1    2    0    0 -0.20248442412E+03 -0.13981021005E+03  0.18209047047E+03  0.33064809263E+03  0.12499753947E+03 0.  0.
          2    1    1    2  501    0  0.19056963947E+03  0.31139394236E+02 -0.97073556136E+02  0.21612432686E+03  0.00000000000E+00 0. -1.
          1    1    1    2  502    0  0.11914784652E+02  0.10867081581E+03  0.77452831949E+03  0.78220548834E+03  0.00000000000E+00 0. -1.
         22    1    3    3    0    0 -0.10453262461E+02 -0.71343438184E+02  0.46092063709E+02  0.85578240254E+02  0.00000000000E+00 0.  1.
         22    1    3    3    0    0 -0.19203116166E+03 -0.68466771866E+02  0.13599840677E+03  0.24506985237E+03  0.00000000000E+00 0.  1.
</event>
<event>
 7    1  0.6330892E-006  0.4528327E+02  0.7818608E-02  0.1540951E+00
          2   -1    0    0  502    0  0.00000000000E+00  0.00000000000E+00  0.37820678876E+02  0.37820678876E+02  0.00000000000E+00 0. -1.
          1   -1    0    0  501    0 -0.00000000000E+00 -0.00000000000E+00 -0.45125184762E+03  0.45125184762E+03  0.00000000000E+00 0. -1.
         25    2    1    2    0    0 -0.62396990527E+02  0.80232128901E+01 -0.24068596317E+03  0.27841038115E+03  0.12499940436E+03 0.  0.
          2    1    1    2  501    0  0.24578885508E+02  0.14275821818E+02 -0.16329941391E+03  0.16575469611E+03  0.00000000000E+00 0. -1.
          1    1    1    2  502    0  0.37818105019E+02 -0.22299034708E+02 -0.94457916596E+01  0.44907449229E+02  0.00000000000E+00 0. -1.
         22    1    3    3    0    0 -0.32534079510E+02 -0.21867190271E+02 -0.56479218028E+01  0.39604789617E+02  0.00000000000E+00 0.  1.
         22    1    3    3    0    0 -0.29862911017E+02  0.29890403161E+02 -0.23503804137E+03  0.23880559153E+03  0.00000000000E+00 0.  1.
</event>
<event>
 7    1  0.6330892E-006  0.1104534E+03  0.7818608E-02  0.1303551E+00
          2   -1    0    0  502    0  0.00000000000E+00  0.00000000000E+00  0.26611355332E+04  0.26611355332E+04  0.00000000000E+00 0. -1.
          1   -1    0    0  501    0 -0.00000000000E+00 -0.00000000000E+00 -0.38855143917E+03  0.38855143917E+03  0.00000000000E+00 0. -1.
         25    2    1    2    0    0 -0.64153992788E+02 -0.61747296111E+02  0.23997154064E+04  0.24046179161E+04  0.12499930979E+03 0.  0.
          2    1    1    2  501    0  0.11046170508E+03  0.54891007063E+01 -0.37278047243E+03  0.38884084037E+03  0.00000000000E+00 0. -1.
          1    1    1    2  502    0 -0.46307712291E+02  0.56258195405E+02  0.24564916010E+03  0.25622821591E+03  0.00000000000E+00 0. -1.
         22    1    3    3    0    0 -0.18518145082E+02 -0.71568586179E+02  0.63554181948E+03  0.63982684262E+03  0.00000000000E+00 0. -1.
         22    1    3    3    0    0 -0.45635847707E+02  0.98212900676E+01  0.17641735869E+04  0.17647910735E+04  0.00000000000E+00 0. -1.
</event>
<event>
 7    1  0.7207752E-006  0.8603922E+02  0.7818608E-02  0.1343685E+00
          2   -1    0    0  502    0  0.00000000000E+00  0.00000000000E+00  0.16709956569E+04  0.16709956569E+04  0.00000000000E+00 0. -1.
          1   -1    0    0  501    0 -0.00000000000E+00 -0.00000000000E+00 -0.55661074178E+03  0.55661074178E+03  0.00000000000E+00 0. -1.
         25    2    1    2    0    0  0.26941809258E+02  0.11507455754E+03 -0.37012186380E+02  0.17596299875E+03  0.12500024043E+03 0.  0.
          2    1    1    2  501    0 -0.61192224199E+02 -0.59264377524E+02 -0.44541566982E+03  0.45348855957E+03  0.00000000000E+00 0. -1.
          1    1    1    2  502    0  0.34250414941E+02 -0.55810180017E+02  0.15968127713E+04  0.15981548403E+04  0.00000000000E+00 0. -1.
         22    1    3    3    0    0  0.56231830279E+02  0.31799915421E+01 -0.10340549433E+02  0.57263060041E+02  0.00000000000E+00 0.  1.
         22    1    3    3    0    0 -0.29290021021E+02  0.11189456600E+03 -0.26671636947E+02  0.11869993871E+03  0.00000000000E+00 0.  1.
</event>
<event>
 7    1  0.6330892E-006  0.7587320E+02  0.7818608E-02  0.1365200E+00
          2   -1    0    0  502    0  0.00000000000E+00  0.00000000000E+00  0.96818500333E+03  0.96818500333E+03  0.00000000000E+00 0. -1.
          1   -1    0    0  501    0 -0.00000000000E+00 -0.00000000000E+00 -0.96819836724E+03  0.96819836724E+03  0.00000000000E+00 0. -1.
         25    2    1    2    0    0 -0.16513802963E+02  0.69599759430E+02  0.19764776903E+02  0.14536955840E+03  0.12499931961E+03 0.  0.
          2    1    1    2  501    0 -0.51502470005E+02 -0.34300703010E+02 -0.90267709919E+03  0.90479555041E+03  0.00000000000E+00 0. -1.
          1    1    1    2  502    0  0.68016272968E+02 -0.35299056420E+02  0.88289895838E+03  0.88621826176E+03  0.00000000000E+00 0. -1.
         22    1    3    3    0    0 -0.55101344748E+02 -0.29679607186E+01 -0.13328342896E+02  0.56768051827E+02  0.00000000000E+00 0.  1.
         22    1    3    3    0    0  0.38587541785E+02  0.72567720149E+02  0.33093119798E+02  0.88601506571E+02  0.00000000000E+00 0.  1.
</event>
<event>
 7    1  0.6330892E-006  0.2830542E+02  0.7818608E-02  0.1627035E+00
          2   -1    0    0  502    0  0.00000000000E+00  0.00000000000E+00  0.27784116142E+02  0.27784116142E+02  0.00000000000E+00 0. -1.
          1   -1    0    0  501    0 -0.00000000000E+00 -0.00000000000E+00 -0.51937561412E+03  0.51937561412E+03  0.00000000000E+00 0. -1.
         25    2    1    2    0    0  0.34610758743E+02 -0.38104269866E+02 -0.26244948798E+03  0.29521972103E+03  0.12500043976E+03 0.  0.
          2    1    1    2  501    0 -0.23541206315E+02  0.13710179762E+02 -0.22273692874E+03  0.22439673984E+03  0.00000000000E+00 0. -1.
          1    1    1    2  502    0 -0.11069552428E+02  0.24394090104E+02 -0.64050812509E+01  0.27543269392E+02  0.00000000000E+00 0. -1.
         22    1    3    3    0    0  0.69935739264E+02 -0.42493823977E+02 -0.10149655034E+03  0.13037746137E+03  0.00000000000E+00 0.  1.
         22    1    3    3    0    0 -0.35324980521E+02  0.43895541111E+01 -0.16095293764E+03  0.16484225966E+03  0.00000000000E+00 0.  1.
</event>
<event>
 7    1  0.6330892E-006  0.5393844E+02  0.7818608E-02  0.1432706E+00
          2   -1    0    0  502    0  0.00000000000E+00  0.00000000000E+00  0.10066644677E+04  0.10066644677E+04  0.00000000000E+00 0. -1.
          1   -1    0    0  501    0 -0.00000000000E+00 -0.00000000000E+00 -0.58167419811E+03  0.58167419811E+03  0.00000000000E+00 0. -1.
         25    2    1    2    0    0 -0.61829548789E+01 -0.73939453076E+02 -0.14147177556E+02  0.14605020870E+03  0.12500099670E+03 0.  0.
          2    1    1    2  501    0 -0.33989627821E+02  0.37949526106E+02 -0.49950567109E+03  0.50209697946E+03  0.00000000000E+00 0. -1.
          1    1    1    2  502    0  0.40172582700E+02  0.35989926970E+02  0.93864311822E+03  0.94019147764E+03  0.00000000000E+00 0. -1.
         22    1    3    3    0    0  0.49841122703E+02  0.30816782811E+01 -0.13668774617E+01  0.49955005828E+02  0.00000000000E+00 0. -1.
         22    1    3    3    0    0 -0.56024077582E+02 -0.77021131357E+02 -0.12780300094E+02  0.96095202872E+02  0.00000000000E+00 0. -1.
</event>
<event>
 7    1  0.6330892E-006  0.4516899E+02  0.7818608E-02  0.1500178E+00
          2   -1    0    0  502    0  0.00000000000E+00  0.00000000000E+00  0.18782377838E+03  0.18782377838E+03  0.00000000000E+00 0. -1.
          1   -1    0    0  501    0 -0.00000000000E+00 -0.00000000000E+00 -0.17698360496E+03  0.17698360496E+03  0.00000000000E+00 0. -1.
         25    2    1    2    0    0 -0.68605326825E+02  0.39393455820E+02  0.42868259519E+02  0.15401437128E+03  0.12499681459E+03 0.  0.
          2    1    1    2  501    0  0.30356787769E+02 -0.21881524303E+02 -0.11327798591E+03  0.11929894283E+03  0.00000000000E+00 0. -1.
          1    1    1    2  502    0  0.38248539057E+02 -0.17511931517E+02  0.81249899810E+02  0.91494069232E+02  0.00000000000E+00 0. -1.
         22    1    3    3    0    0 -0.27614456672E+02  0.17558960341E+02  0.85140970089E+02  0.91213267090E+02  0.00000000000E+00 0.  1.
         22    1    3    3    0    0 -0.40990870153E+02  0.21834495479E+02 -0.42272710570E+02  0.62801104191E+02  0.00000000000E+00 0.  1.
</event>
<event>
 7    1  0.6330892E-006  0.1573920E+03  0.7818608E-02  0.1267836E+00
          2   -1    0    0  502    0  0.00000000000E+00  0.00000000000E+00  0.58945667380E+03  0.58945667380E+03  0.00000000000E+00 0. -1.
          1   -1    0    0  501    0 -0.00000000000E+00 -0.00000000000E+00 -0.18953831902E+04  0.18953831902E+04  0.00000000000E+00 0. -1.
         25    2    1    2    0    0  0.18130483142E+03  0.71287862567E+02 -0.46304508287E+03  0.51767789613E+03  0.12500501641E+03 0.  0.
          2    1    1    2  501    0 -0.63793267776E+02  0.32543216165E+02 -0.13931482326E+04  0.13949876845E+04  0.00000000000E+00 0. -1.
          1    1    1    2  502    0 -0.11751156364E+03 -0.10383107873E+03  0.55026679901E+03  0.57217428341E+03  0.00000000000E+00 0. -1.
         22    1    3    3    0    0 -0.69681306581E+01  0.27928817813E+02 -0.12543594192E+03  0.12869634507E+03  0.00000000000E+00 0. -1.
         22    1    3    3    0    0  0.18827296208E+03  0.43359044754E+02 -0.33760914095E+03  0.38898155106E+03  0.00000000000E+00 0. -1.
</event>
<event>
 7    1  0.6330892E-006  0.6703004E+02  0.7818608E-02  0.1423124E+00
          2   -1    0    0  502    0  0.00000000000E+00  0.00000000000E+00  0.92515921999E+03  0.92515921999E+03  0.00000000000E+00 0. -1.
          1   -1    0    0  501    0 -0.00000000000E+00 -0.00000000000E+00 -0.14077896062E+03  0.14077896062E+03  0.00000000000E+00 0. -1.
         25    2    1    2    0    0 -0.32077976528E+02 -0.35428623239E+02  0.48661742298E+03  0.50468252367E+03  0.12499499760E+03 0.  0.
          2    1    1    2  501    0  0.18645477665E+01  0.67543996221E+02 -0.12185085439E+03  0.13933161407E+03  0.00000000000E+00 0. -1.
          1    1    1    2  502    0  0.30213428761E+02 -0.32115372982E+02  0.41961369079E+03  0.42192404287E+03  0.00000000000E+00 0. -1.
         22    1    3    3    0    0 -0.74270416261E+02 -0.43388616813E+02  0.38263785346E+03  0.39218668221E+03  0.00000000000E+00 0. -1.
         22    1    3    3    0    0  0.42192439734E+02  0.79599935731E+01  0.10397956952E+03  0.11249584146E+03  0.00000000000E+00 0. -1.
</event>
<event>
 7    1  0.6330892E-006  0.1541892E+03  0.7818608E-02  0.1318115E+00
          2   -1    0    0  502    0  0.00000000000E+00  0.00000000000E+00  0.12210555135E+04  0.12210555135E+04  0.00000000000E+00 0. -1.
          1   -1    0    0  501    0 -0.00000000000E+00 -0.00000000000E+00 -0.38298438198E+03  0.38298438198E+03  0.00000000000E+00 0. -1.
         25    2    1    2    0    0 -0.13116427730E+03 -0.89520536583E+02  0.17610243551E+03  0.26806281619E+03  0.12501044566E+03 0.  0.
          2    1    1    2  501    0 -0.15976281511E+02  0.42862189597E+02 -0.32945156575E+03  0.33261200075E+03  0.00000000000E+00 0. -1.
          1    1    1    2  502    0  0.14714055881E+03  0.46658346986E+02  0.99142026176E+03  0.10033650785E+04  0.00000000000E+00 0. -1.
         22    1    3    3    0    0 -0.40205540892E+02 -0.64608357957E+02  0.15313146904E+03  0.17099699485E+03  0.00000000000E+00 0. -1.
         22    1    3    3    0    0 -0.90958736407E+02 -0.24912178626E+02  0.22970966461E+02  0.97065821342E+02  0.00000000000E+00 0. -1.
</event>
<event>
 7    1  0.6330892E-006  0.3769642E+02  0.7818608E-02  0.1577872E+00
          2   -1    0    0  502    0  0.00000000000E+00  0.00000000000E+00  0.14522318961E+04  0.14522318961E+04  0.00000000000E+00 0. -1.
          1   -1    0    0  501    0 -0.00000000000E+00 -0.00000000000E+00 -0.54852573793E+03  0.54852573793E+03  0.00000000000E+00 0. -1.
         25    2    1    2    0    0  0.28895840804E+02  0.14765205961E+02  0.27546570957E+03  0.30423352935E+03  0.12499480913E+03 0.  0.
          2    1    1    2  501    0 -0.16703462527E+02  0.21231315356E+02 -0.53348931798E+03  0.53417284357E+03  0.00000000000E+00 0. -1.
          1    1    1    2  502    0 -0.12192378277E+02 -0.35996521318E+02  0.11617297666E+04  0.11623512611E+04  0.00000000000E+00 0. -1.
         22    1    3    3    0    0 -0.23761781055E+02 -0.35336482542E+02  0.42379829432E+02  0.60077776091E+02  0.00000000000E+00 0. -1.
         22    1    3    3    0    0  0.52657621858E+02  0.50101688503E+02  0.23308588014E+03  0.24415575326E+03  0.00000000000E+00 0. -1.
</event>
<event>
 7    1  0.6330892E-006  0.2962991E+03  0.7818608E-02  0.1240202E+00
          2   -1    0    0  502    0  0.00000000000E+00  0.00000000000E+00  0.17339123371E+04  0.17339123371E+04  0.00000000000E+00 0. -1.
          1   -1    0    0  501    0 -0.00000000000E+00 -0.00000000000E+00 -0.18982432575E+04  0.18982432575E+04  0.00000000000E+00 0. -1.
         25    2    1    2    0    0 -0.19805848895E+03 -0.21026640573E+03  0.62985696576E+03  0.70411936743E+03  0.12500063936E+03 0.  0.
          2    1    1    2  501    0  0.29561716457E+02 -0.40381249888E+02 -0.18393914443E+04  0.18400721251E+04  0.00000000000E+00 0. -1.
          1    1    1    2  502    0  0.16849677249E+03  0.25064765562E+03  0.10452035581E+04  0.10879641021E+04  0.00000000000E+00 0. -1.
         22    1    3    3    0    0 -0.41561187669E+02 -0.30383674525E+02  0.25289250080E+03  0.25807967172E+03  0.00000000000E+00 0. -1.
         22    1    3    3    0    0 -0.15649730128E+03 -0.17988273121E+03  0.37696446497E+03  0.44603969570E+03  0.00000000000E+00 0. -1.
</event>
<event>
 7    1  0.6330892E-006  0.1559243E+03  0.7818608E-02  0.1202967E+00
          2   -1    0    0  502    0  0.00000000000E+00  0.00000000000E+00  0.23663285675E+04  0.23663285675E+04  0.00000000000E+00 0. -1.
          1   -1    0    0  501    0 -0.00000000000E+00 -0.00000000000E+00 -0.31577015175E+03  0.31577015175E+03  0.00000000000E+00 0. -1.
         25    2    1    2    0    0  0.74846299211E+02 -0.13813889786E+03  0.13375176313E+03  0.24124492882E+03  0.12500103173E+03 0.  0.
          2    1    1    2  501    0 -0.16092637701E+03  0.27151005160E+02 -0.23409660847E+03  0.28536940620E+03  0.00000000000E+00 0. -1.
          1    1    1    2  502    0  0.86080077801E+02  0.11098789270E+03  0.21509032611E+04  0.21554843843E+04  0.00000000000E+00 0. -1.
         22    1    3    3    0    0  0.33413885317E+02 -0.42826372825E+02 -0.18080993010E+02  0.57249526195E+02  0.00000000000E+00 0.  1.
         22    1    3    3    0    0  0.41432413894E+02 -0.95312525033E+02  0.15183275614E+03  0.18399540262E+03  0.00000000000E+00 0.  1.
</event>
<event>
 7    1  0.6330892E-006  0.4574588E+02  0.7818608E-02  0.1495302E+00
          2   -1    0    0  502    0  0.00000000000E+00  0.00000000000E+00  0.25562011483E+02  0.25562011483E+02  0.00000000000E+00 0. -1.
          1   -1    0    0  501    0 -0.00000000000E+00 -0.00000000000E+00 -0.87336391432E+03  0.87336391432E+03  0.00000000000E+00 0. -1.
         25    2    1    2    0    0 -0.39917855444E+01 -0.11028357610E+02 -0.21748360248E+03  0.25112045368E+03  0.12499922353E+03 0.  0.
          2    1    1    2  501    0 -0.91660020112E+01  0.46903578197E+02 -0.59117310067E+03  0.59310167441E+03  0.00000000000E+00 0. -1.
          1    1    1    2  502    0  0.13157787556E+02 -0.35875220587E+02 -0.39145199685E+02  0.54703797710E+02  0.00000000000E+00 0. -1.
         22    1    3    3    0    0  0.22734959790E+02 -0.28781627212E+02 -0.59379306527E+01  0.37155342578E+02  0.00000000000E+00 0.  1.
         22    1    3    3    0    0 -0.26726745335E+02  0.17753269602E+02 -0.21154567183E+03  0.21396511110E+03  0.00000000000E+00 0.  1.
</event>
<event>
 7    1  0.6330892E-006  0.5301965E+02  0.7818608E-02  0.1489054E+00
          2   -1    0    0  502    0  0.00000000000E+00  0.00000000000E+00  0.31263849634E+04  0.31263849634E+04  0.00000000000E+00 0. -1.
          1   -1    0    0  501    0 -0.00000000000E+00 -0.00000000000E+00 -0.10186277127E+02  0.10186277127E+02  0.00000000000E+00 0. -1.
         25    2    1    2    0    0  0.27560901751E+02 -0.13422669711E+02  0.97006360176E+03  0.97856443277E+03  0.12500074501E+03 0.  0.
          2    1    1    2  501    0  0.27286336535E+02  0.21000447804E+02  0.47634522373E+02  0.58775936327E+02  0.00000000000E+00 0. -1.
          1    1    1    2  502    0 -0.54847238286E+02 -0.75777780935E+01  0.20985005621E+04  0.20992308714E+04  0.00000000000E+00 0. -1.
         22    1    3    3    0    0  0.19146889818E+02  0.49702047022E+02  0.24569827263E+03  0.25140512732E+03  0.00000000000E+00 0. -1.
         22    1    3    3    0    0  0.84140119333E+01 -0.63124716732E+02  0.72436532914E+03  0.72715930546E+03  0.00000000000E+00 0. -1.
</event>
<event>
 7    1  0.6330892E-006  0.6102846E+02  0.7818608E-02  0.1479352E+00
          2   -1    0    0  502    0  0.00000000000E+00  0.00000000000E+00  0.17790756848E+03  0.17790756848E+03  0.00000000000E+00 0. -1.
          1   -1    0    0  501    0 -0.00000000000E+00 -0.00000000000E+00 -0.28665006293E+03  0.28665006293E+03  0.00000000000E+00 0. -1.
         25    2    1    2    0    0 -0.74311862196E+02  0.10984400247E+02  0.61001039426E+02  0.15807811824E+03  0.12499861896E+03 0.  0.
          2    1    1    2  501    0  0.17834626089E+02 -0.26596346198E+02 -0.22420654663E+03  0.22648182062E+03  0.00000000000E+00 0. -1.
          1    1    1    2  502    0  0.56477236106E+02  0.15611945952E+02  0.54463012760E+02  0.79997692551E+02  0.00000000000E+00 0. -1.
         22    1    3    3    0    0 -0.18275097697E+01 -0.35439581498E+02  0.62631486290E+02  0.71986157027E+02  0.00000000000E+00 0. -1.
         22    1    3    3    0    0 -0.72484352426E+02  0.46423981745E+02 -0.16304468639E+01  0.86091961208E+02  0.00000000000E+00 0. -1.
</event>
<event>
 7    1  0.6330892E-006  0.6351927E+02  0.7818608E-02  0.1431151E+00
          2   -1    0    0  502    0  0.00000000000E+00  0.00000000000E+00  0.95295490750E+03  0.95295490750E+03  0.00000000000E+00 0. -1.
          1   -1    0    0  501    0 -0.00000000000E+00 -0.00000000000E+00 -0.15871720377E+04  0.15871720377E+04  0.00000000000E+00 0. -1.
         25    2    1    2    0    0 -0.75347008943E+02  0.11082229634E+02  0.36884007383E+02  0.15094095649E+03  0.12499101878E+03 0.  0.
          2    1    1    2  501    0  0.56752611692E+02  0.28544778301E+02 -0.15289259213E+04  0.15302451229E+04  0.00000000000E+00 0. -1.
          1    1    1    2  502    0  0.18594397251E+02 -0.39627007935E+02  0.85782478373E+03  0.85894086581E+03  0.00000000000E+00 0. -1.
         22    1    3    3    0    0 -0.19672659585E+02  0.52869384078E+02  0.55236093931E+02  0.78950689552E+02  0.00000000000E+00 0. -1.
         22    1    3    3    0    0 -0.55674349358E+02 -0.41787154445E+02 -0.18352086548E+02  0.71990266937E+02  0.00000000000E+00 0. -1.
</event>
<event>
 7    1  0.6330892E-006  0.5002088E+02  0.7818608E-02  0.1449911E+00
          2   -1    0    0  502    0  0.00000000000E+00  0.00000000000E+00  0.21685312552E+04  0.21685312552E+04  0.00000000000E+00 0. -1.
          1   -1    0    0  501    0 -0.00000000000E+00 -0.00000000000E+00 -0.23067559845E+03  0.23067559845E+03  0.00000000000E+00 0. -1.
         25    2    1    2    0    0 -0.11039600703E+02 -0.97362486806E+02  0.10402461162E+03  0.18986135859E+03  0.12499955617E+03 0.  0.
          2    1    1    2  501    0  0.62061083740E+01  0.47918841884E+02 -0.18433776441E+03  0.19056532365E+03  0.00000000000E+00 0. -1.
          1    1    1    2  502    0  0.48334923287E+01  0.49443644922E+02  0.20181688096E+04  0.20187801714E+04  0.00000000000E+00 0. -1.
         22    1    3    3    0    0 -0.62595135960E+02 -0.69843678144E+02  0.36707109823E+02  0.10071594876E+03  0.00000000000E+00 0.  1.
         22    1    3    3    0    0  0.51555535258E+02 -0.27518808662E+02  0.67317501795E+02  0.89145409830E+02  0.00000000000E+00 0.  1.
</event>
<event>
 7    1  0.6330892E-006  0.9505057E+02  0.7818608E-02  0.1307306E+00
          2   -1    0    0  502    0  0.00000000000E+00  0.00000000000E+00  0.11939220097E+04  0.11939220097E+04  0.00000000000E+00 0. -1.
          1   -1    0    0  501    0 -0.00000000000E+00 -0.00000000000E+00 -0.11411493626E+03  0.11411493626E+03  0.00000000000E+00 0. -1.
         25    2    1    2    0    0 -0.63349066480E+02 -0.32258694763E+02  0.24504847884E+03  0.28412677541E+03  0.12500215964E+03 0.  0.
          2    1    1    2  501    0  0.44854641516E+02 -0.68424654992E+02 -0.73451005522E+02  0.10994963615E+03  0.00000000000E+00 0. -1.
          1    1    1    2  502    0  0.18494424964E+02  0.10068334975E+03  0.90820960008E+03  0.91396053435E+03  0.00000000000E+00 0. -1.
         22    1    3    3    0    0 -0.71016465930E+02  0.30019819073E+02  0.16733330579E+03  0.18424158922E+03  0.00000000000E+00 0.  1.
         22    1    3    3    0    0  0.76673994502E+01 -0.62278513835E+02  0.77715173043E+02  0.99885186194E+02  0.00000000000E+00 0.  1.
</event>
<event>
 7    1  0.6330892E-006  0.5115773E+02  0.7818608E-02  0.1480771E+00
          2   -1    0    0  502    0  0.00000000000E+00  0.00000000000E+00  0.65365877070E+03  0.65365877070E+03  0.00000000000E+00 0. -1.
          1   -1    0    0  501    0 -0.00000000000E+00 -0.00000000000E+00 -0.53466372723E+03  0.53466372723E+03  0.00000000000E+00 0. -1.
         25    2    1    2    0    0  0.24919180655E+02 -0.19865633071E+02 -0.13081171624E+03  0.18372119434E+03  0.12500465273E+03 0.  0.
          2    1    1    2  501    0 -0.52853807745E+02 -0.56298701104E+01 -0.37495107167E+03  0.37869978423E+03  0.00000000000E+00 0. -1.
          1    1    1    2  502    0  0.27934627090E+02  0.25495503182E+02  0.62475783138E+03  0.62590151936E+03  0.00000000000E+00 0. -1.
         22    1    3    3    0    0  0.67271286889E+02 -0.43787047127E+02 -0.84854500273E+02  0.11680332937E+03  0.00000000000E+00 0. -1.
         22    1    3    3    0    0 -0.42352106234E+02  0.23921414055E+02 -0.45957215965E+02  0.66917864970E+02  0.00000000000E+00 0. -1.
</event>
<event>
 7    1  0.6330892E-006  0.1354548E+03  0.7818608E-02  0.1306986E+00
          2   -1    0    0  502    0  0.00000000000E+00  0.00000000000E+00  0.69351383723E+03  0.69351383723E+03  0.00000000000E+00 0. -1.
          1   -1    0    0  501    0 -0.00000000000E+00 -0.00000000000E+00 -0.11124623339E+03  0.11124623339E+03  0.00000000000E+00 0. -1.
         25    2    1    2    0    0 -0.13716882613E+03 -0.98037714952E+02  0.27646024700E+03  0.34710493005E+03  0.12499953551E+03 0.  0.
          2    1    1    2  501    0  0.57577741652E+02 -0.42124748557E+00 -0.52325072890E+02  0.77802872930E+02  0.00000000000E+00 0. -1.
          1    1    1    2  502    0  0.79591084476E+02  0.98458962438E+02  0.35813242972E+03  0.37985226764E+03  0.00000000000E+00 0. -1.
         22    1    3    3    0    0 -0.10409492040E+03 -0.36648749316E+01  0.10064470618E+03  0.14483970673E+03  0.00000000000E+00 0.  1.
         22    1    3    3    0    0 -0.33073905727E+02 -0.94372840021E+02  0.17581554082E+03  0.20226522332E+03  0.00000000000E+00 0.  1.
</event>
<event>
 7    1  0.6330892E-006  0.1725321E+03  0.7818608E-02  0.1378133E+00
          2   -1    0    0  502    0  0.00000000000E+00  0.00000000000E+00  0.22478556679E+03  0.22478556679E+03  0.00000000000E+00 0. -1.
          1   -1    0    0  501    0 -0.00000000000E+00 -0.00000000000E+00 -0.88344504774E+03  0.88344504774E+03  0.00000000000E+00 0. -1.
         25    2    1    2    0    0 -0.12259730381E+03 -0.12886685778E+03 -0.22738637518E+03  0.31458891265E+03  0.12499941763E+03 0.  0.
          2    1    1    2  501    0  0.22038147177E+02 -0.10602506019E+02 -0.57134433242E+03  0.57186750149E+03  0.00000000000E+00 0. -1.
          1    1    1    2  502    0  0.10055915664E+03  0.13946936380E+03  0.14007122665E+03  0.22177420039E+03  0.00000000000E+00 0. -1.
         22    1    3    3    0    0 -0.12388479688E+03 -0.10024960850E+03 -0.23591629919E+03  0.28469971395E+03  0.00000000000E+00 0. -1.
         22    1    3    3    0    0  0.12874930683E+01 -0.28617249286E+02  0.85299240078E+01  0.29889198696E+02  0.00000000000E+00 0. -1.
</event>
<event>
 7    1  0.6330892E-006  0.8522382E+02  0.7818608E-02  0.1392245E+00
          2   -1    0    0  502    0  0.00000000000E+00  0.00000000000E+00  0.14660825424E+04  0.14660825424E+04  0.00000000000E+00 0. -1.
          1   -1    0    0  501    0 -0.00000000000E+00 -0.00000000000E+00 -0.65212496000E+03  0.65212496000E+03  0.00000000000E+00 0. -1.
         25    2    1    2    0    0  0.30086933929E+02  0.91026872006E+02  0.29174895859E+03  0.33156036405E+03  0.12499482049E+03 0.  0.
          2    1    1    2  501    0 -0.61016715801E+02 -0.59498774732E+02 -0.62892176252E+03  0.63466977805E+03  0.00000000000E+00 0. -1.
          1    1    1    2  502    0  0.30929781872E+02 -0.31528097274E+02  0.11511303864E+04  0.11519773603E+04  0.00000000000E+00 0. -1.
         22    1    3    3    0    0  0.31450605936E+02  0.11957185982E+03  0.19690070477E+03  0.23250044691E+03  0.00000000000E+00 0. -1.
         22    1    3    3    0    0 -0.13636720074E+01 -0.28544987815E+02  0.94848253822E+02  0.99059917140E+02  0.00000000000E+00 0. -1.
</event>
<event>
 7    1  0.6330892E-006  0.4892517E+02  0.7818608E-02  0.1469207E+00
          2   -1    0    0  502    0  0.00000000000E+00  0.00000000000E+00  0.13185408148E+02  0.13185408148E+02  0.00000000000E+00 0. -1.
          1   -1    0    0  501    0 -0.00000000000E+00 -0.00000000000E+00 -0.18713350119E+04  0.18713350119E+04  0.00000000000E+00 0. -1.
         25    2    1    2    0    0  0.12447110921E+02  0.99770977796E+01 -0.94808915992E+03  0.95643060669E+03  0.12502790566E+03 0.  0.
          2    1    1    2  501    0 -0.55334159425E+02 -0.12037828944E+02 -0.86113805449E+03  0.86299798807E+03  0.00000000000E+00 0. -1.
          1    1    1    2  502    0  0.42887048504E+02  0.20607311646E+01 -0.48922389386E+02  0.65091825336E+02  0.00000000000E+00 0. -1.
         22    1    3    3    0    0  0.45907055887E+02 -0.35291776617E+02 -0.68191024020E+03  0.68436433496E+03  0.00000000000E+00 0.  1.
         22    1    3    3    0    0 -0.33459944966E+02  0.45268874397E+02 -0.26617891972E+03  0.27206627173E+03  0.00000000000E+00 0.  1.
</event>
<event>
 7    1  0.6330892E-006  0.6419954E+02  0.7818608E-02  0.1383490E+00
          2   -1    0    0  502    0  0.00000000000E+00  0.00000000000E+00  0.43362903839E+04  0.43362903839E+04  0.00000000000E+00 0. -1.
          1   -1    0    0  501    0 -0.00000000000E+00 -0.00000000000E+00 -0.17141171636E+04  0.17141171636E+04  0.00000000000E+00 0. -1.
         25    2    1    2    0    0 -0.48706751077E+01 -0.13808392305E+01  0.31784563116E+03  0.34157963572E+03  0.12500068839E+03 0.  0.
          2    1    1    2  501    0 -0.45052730677E+02  0.43918668617E+02 -0.17014002315E+04  0.17025631694E+04  0.00000000000E+00 0. -1.
          1    1    1    2  502    0  0.49923405784E+02 -0.42537829387E+02  0.40057278206E+04  0.40062647424E+04  0.00000000000E+00 0. -1.
         22    1    3    3    0    0  0.30024981087E+01 -0.47990981340E+02  0.49156920060E+02  0.68764468111E+02  0.00000000000E+00 0.  1.
         22    1    3    3    0    0 -0.78731732163E+01  0.46610142109E+02  0.26868871110E+03  0.27281516761E+03  0.00000000000E+00 0.  1.
</event>
<event>
 7    1  0.6330892E-006  0.8492839E+02  0.7818608E-02  0.1468268E+00
          2   -1    0    0  502    0  0.00000000000E+00  0.00000000000E+00  0.22693053673E+04  0.22693053673E+04  0.00000000000E+00 0. -1.
          1   -1    0    0  501    0 -0.00000000000E+00 -0.00000000000E+00 -0.14925069163E+03  0.14925069163E+03  0.00000000000E+00 0. -1.
         25    2    1    2    0    0  0.63495124570E+02 -0.13808685699E+02  0.48493815303E+03  0.50498736098E+03  0.12499964739E+03 0.  0.
          2    1    1    2  501    0  0.23464769323E+02  0.83370057403E+01 -0.13703361883E+03  0.13927782937E+03  0.00000000000E+00 0. -1.
          1    1    1    2  502    0 -0.86959893893E+02  0.54716799583E+01  0.17721501415E+04  0.17742908686E+04  0.00000000000E+00 0. -1.
         22    1    3    3    0    0 -0.19144627456E+02  0.48618247872E+00  0.80384632649E+01  0.20769449330E+02  0.00000000000E+00 0.  1.
         22    1    3    3    0    0  0.82639752025E+02 -0.14294868177E+02  0.47689968976E+03  0.48421791165E+03  0.00000000000E+00 0.  1.
</event>
<event>
 7    1  0.6330892E-006  0.1394383E+03  0.7818608E-02  0.1220513E+00
          2   -1    0    0  502    0  0.00000000000E+00  0.00000000000E+00  0.83623605483E+03  0.83623605483E+03  0.00000000000E+00 0. -1.
          1   -1    0    0  501    0 -0.00000000000E+00 -0.00000000000E+00 -0.85552421240E+03  0.85552421240E+03  0.00000000000E+00 0. -1.
         25    2    1    2    0    0  0.23896714808E+02 -0.83606911195E+01 -0.24964635315E+03  0.28033817726E+03  0.12500095143E+03 0.  0.
          2    1    1    2  501    0  0.10112718553E+02 -0.12990867356E+03 -0.57703765012E+03  0.59156654756E+03  0.00000000000E+00 0. -1.
          1    1    1    2  502    0 -0.34009433361E+02  0.13826936468E+03  0.80739584569E+03  0.81985554240E+03  0.00000000000E+00 0. -1.
         22    1    3    3    0    0 -0.75957120452E+01  0.52906724312E+02 -0.14966412847E+03  0.15892189172E+03  0.00000000000E+00 0. -1.
         22    1    3    3    0    0  0.31492426853E+02 -0.61267415432E+02 -0.99982224680E+02  0.12141628554E+03  0.00000000000E+00 0. -1.
</event>
<event>
 7    1  0.6330892E-006  0.1245907E+03  0.7818608E-02  0.1274128E+00
          2   -1    0    0  502    0  0.00000000000E+00  0.00000000000E+00  0.28004442298E+04  0.28004442298E+04  0.00000000000E+00 0. -1.
          1   -1    0    0  501    0 -0.00000000000E+00 -0.00000000000E+00 -0.81036514997E+03  0.81036514997E+03  0.00000000000E+00 0. -1.
         25    2    1    2    0    0 -0.11664226695E+03  0.12866517209E+03 -0.33635276907E+03  0.39864535981E+03  0.12499917075E+03 0.  0.
          2    1    1    2  501    0  0.84726329631E+02 -0.83491291181E+01 -0.43736056695E+03  0.44556988724E+03  0.00000000000E+00 0. -1.
          1    1    1    2  502    0  0.31915937322E+02 -0.12031604297E+03  0.27637924159E+04  0.27665941328E+04  0.00000000000E+00 0. -1.
         22    1    3    3    0    0 -0.11609343361E+03  0.14842930617E+03 -0.26889399623E+03  0.32834878630E+03  0.00000000000E+00 0.  1.
         22    1    3    3    0    0 -0.54883334198E+00 -0.19764134078E+02 -0.67458772842E+02  0.70296573510E+02  0.00000000000E+00 0.  1.
</event>
<event>
 7    1  0.6330892E-006  0.2370784E+03  0.7818608E-02  0.1349636E+00
          2   -1    0    0  502    0  0.00000000000E+00  0.00000000000E+00  0.83417057024E+03  0.83417057024E+03  0.00000000000E+00 0. -1.
          1   -1    0    0  501    0 -0.00000000000E+00 -0.00000000000E+00 -0.13285646539E+04  0.13285646539E+04  0.00000000000E+00 0. -1.
         25    2    1    2    0    0 -0.18799171071E+03 -0.16470651647E+03  0.46455558284E+03  0.54212975866E+03  0.12499466313E+03 0.  0.
          2    1    1    2  501    0  0.16583299290E+03  0.16905930475E+03 -0.12785053395E+04  0.13002528728E+04  0.00000000000E+00 0. -1.
          1    1    1    2  502    0  0.22158717812E+02 -0.43527882896E+01  0.31955567297E+03  0.32035259273E+03  0.00000000000E+00 0. -1.
         22    1    3    3    0    0 -0.99711604329E+02 -0.14812139756E+03  0.23148037021E+03  0.29234485500E+03  0.00000000000E+00 0.  1.
         22    1    3    3    0    0 -0.88280106386E+02 -0.16585118906E+02  0.23307521263E+03  0.24978490366E+03  0.00000000000E+00 0.  1.
</event>
<event>
 7    1  0.6330892E-006  0.5824058E+02  0.7818608E-02  0.1420631E+00
          2   -1    0    0  502    0  0.00000000000E+00  0.00000000000E+00  0.24221401940E+04  0.24221401940E+04  0.00000000000E+00 0. -1.
          1   -1    0    0  501    0 -0.00000000000E+00 -0.00000000000E+00 -0.16992623065E+03  0.16992623065E+03  0.00000000000E+00 0. -1.
         25    2    1    2    0    0 -0.75880875997E+02  0.62569263856E+02  0.14179510971E+04  0.14268436541E+04  0.12499871719E+03 0.  0.
          2    1    1    2  501    0  0.25162756275E+02 -0.52400147414E+02 -0.15968180857E+03  0.16993298603E+03  0.00000000000E+00 0. -1.
          1    1    1    2  502    0  0.50718119721E+02 -0.10169116443E+02  0.99394467488E+03  0.99528978460E+03  0.00000000000E+00 0. -1.
         22    1    3    3    0    0 -0.27695876039E+02  0.89292917478E+02  0.11158001291E+04  0.11197098797E+04  0.00000000000E+00 0.  1.
         22    1    3    3    0    0 -0.48184999958E+02 -0.26723653622E+02  0.30215096796E+03  0.30713377431E+03  0.00000000000E+00 0.  1.
</event>
<event>
 7    1  0.6330892E-006  0.6350862E+02  0.7818608E-02  0.1392935E+00
          2   -1    0    0  502    0  0.00000000000E+00  0.00000000000E+00  0.10543499906E+04  0.10543499906E+04  0.00000000000E+00 0. -1.
          1   -1    0    0  501    0 -0.00000000000E+00 -0.00000000000E+00 -0.13648693593E+03  0.13648693593E+03  0.00000000000E+00 0. -1.
         25    2    1    2    0    0 -0.31727230046E+02  0.19786946409E+02  0.31979649290E+03  0.34538747815E+03  0.12499829124E+03 0.  0.
          2    1    1    2  501    0 -0.17377156554E+02 -0.61085015114E+02 -0.11400079087E+03  0.13049722204E+03  0.00000000000E+00 0. -1.
          1    1    1    2  502    0  0.49104386600E+02  0.41298068706E+02  0.71206735268E+03  0.71495222638E+03  0.00000000000E+00 0. -1.
         22    1    3    3    0    0  0.41944554180E+02 -0.18592876003E+02  0.89652193932E+02  0.10071026035E+03  0.00000000000E+00 0. -1.
         22    1    3    3    0    0 -0.73671784225E+02  0.38379822411E+02  0.23014429897E+03  0.24467721779E+03  0.00000000000E+00 0. -1.
</event>
<event>
 7    1  0.6330892E-006  0.9814859E+02  0.7818608E-02  0.1430218E+00
          2   -1    0    0  502    0  0.00000000000E+00  0.00000000000E+00  0.40844403432E+03  0.40844403432E+03  0.00000000000E+00 0. -1.
          1   -1    0    0  501    0 -0.00000000000E+00 -0.00000000000E+00 -0.38805390323E+03  0.38805390323E+03  0.00000000000E+00 0. -1.
         25    2    1    2    0    0  0.88924034902E+02  0.87135774024E+01 -0.68277362705E+02  0.16813218871E+03  0.12499289663E+03 0.  0.
          2    1    1    2  501    0  0.81641147900E+01 -0.27336491313E+02 -0.26224591185E+03  0.26379320463E+03  0.00000000000E+00 0. -1.
          1    1    1    2  502    0 -0.97088149692E+02  0.18622913910E+02  0.35091340565E+03  0.36457254422E+03  0.00000000000E+00 0. -1.
         22    1    3    3    0    0 -0.19280067853E+02  0.34642974365E+02 -0.32466612184E+02  0.51243903013E+02  0.00000000000E+00 0. -1.
         22    1    3    3    0    0  0.10820410276E+03 -0.25929396963E+02 -0.35810750522E+02  0.11688828570E+03  0.00000000000E+00 0. -1.
</event>
<event>
 7    1  0.6330892E-006  0.1949865E+03  0.7818608E-02  0.1176034E+00
          2   -1    0    0  502    0  0.00000000000E+00  0.00000000000E+00  0.12193995031E+04  0.12193995031E+04  0.00000000000E+00 0. -1.
          1   -1    0    0  501    0 -0.00000000000E+00 -0.00000000000E+00 -0.11111856920E+04  0.11111856920E+04  0.00000000000E+00 0. -1.
         25    2    1    2    0    0  0.30664504020E+02 -0.13114049805E+03  0.33146649908E+03  0.37898973872E+03  0.12500016006E+03 0.  0.
          2    1    1    2  501    0  0.14187642701E+03 -0.52516434291E+02 -0.10635865964E+04  0.10742920201E+04  0.00000000000E+00 0. -1.
          1    1    1    2  502    0 -0.17254093103E+03  0.18365693234E+03  0.84033390844E+03  0.87730343631E+03  0.00000000000E+00 0. -1.
         22    1    3    3    0    0  0.14583484701E+02 -0.12751723702E+03  0.33777617122E+03  0.36133926662E+03  0.00000000000E+00 0.  1.
         22    1    3    3    0    0  0.16081019319E+02 -0.36232610259E+01 -0.63096721406E+01  0.17650472099E+02  0.00000000000E+00 0.  1.
</event>
<event>
 7    1  0.6330892E-006  0.7632250E+02  0.7818608E-02  0.1384219E+00
          2   -1    0    0  502    0  0.00000000000E+00  0.00000000000E+00  0.16398267534E+04  0.16398267534E+04  0.00000000000E+00 0. -1.
          1   -1    0    0  501    0 -0.00000000000E+00 -0.00000000000E+00 -0.32444228533E+03  0.32444228533E+03  0.00000000000E+00 0. -1.
         25    2    1    2    0    0 -0.31499979524E+02 -0.44943331794E+02 -0.28327423423E+02  0.13942794345E+03  0.12500222684E+03 0.  0.
          2    1    1    2  501    0 -0.76976282544E+01  0.80036634900E+02 -0.23339498300E+03  0.24685691097E+03  0.00000000000E+00 0. -1.
          1    1    1    2  502    0  0.39197607778E+02 -0.35093303106E+02  0.15771068745E+04  0.15779841843E+04  0.00000000000E+00 0. -1.
         22    1    3    3    0    0  0.19664168933E+02 -0.73385338205E+02 -0.41320559303E+01  0.76086538163E+02  0.00000000000E+00 0.  1.
         22    1    3    3    0    0 -0.51164148457E+02  0.28442006412E+02 -0.24195367492E+02  0.63341405290E+02  0.00000000000E+00 0.  1.
</event>
<event>
 7    1  0.6330892E-006  0.7536670E+02  0.7818608E-02  0.1349584E+00
          2   -1    0    0  502    0  0.00000000000E+00  0.00000000000E+00  0.33028848615E+02  0.33028848615E+02  0.00000000000E+00 0. -1.
          1   -1    0    0  501    0 -0.00000000000E+00 -0.00000000000E+00 -0.21569366250E+04  0.21569366250E+04  0.00000000000E+00 0. -1.
         25    2    1    2    0    0  0.86990325979E+02 -0.51974616841E+02 -0.11636516547E+04  0.11747253368E+04  0.12500306347E+03 0.  0.
          2    1    1    2  501    0 -0.18772605639E+02  0.71896824591E+02 -0.93775703338E+03  0.94069645357E+03  0.00000000000E+00 0. -1.
          1    1    1    2  502    0 -0.68217720341E+02 -0.19922207750E+02 -0.22499088273E+02  0.74543683188E+02  0.00000000000E+00 0. -1.
         22    1    3    3    0    0  0.49994682526E+02 -0.18630558060E+02 -0.10407364227E+04  0.10421030983E+04  0.00000000000E+00 0. -1.
         22    1    3    3    0    0  0.36995643453E+02 -0.33344058781E+02 -0.12291523201E+03  0.13262223852E+03  0.00000000000E+00 0. -1.
</event>
<event>
 7    1  0.6330892E-006  0.5347200E+02  0.7818608E-02  0.1435387E+00
          2   -1    0    0  502    0  0.00000000000E+00  0.00000000000E+00  0.14377878421E+04  0.14377878421E+04  0.00000000000E+00 0. -1.
          1   -1    0    0  501    0 -0.00000000000E+00 -0.00000000000E+00 -0.25767527166E+03  0.25767527166E+03  0.00000000000E+00 0. -1.
         25    2    1    2    0    0  0.69286985588E+02  0.74132204551E+02  0.18958156473E+03  0.24872444253E+03  0.12500563389E+03 0.  0.
          2    1    1    2  501    0 -0.28658404160E+02 -0.44372519464E+02 -0.22451712732E+03  0.23064727415E+03  0.00000000000E+00 0. -1.
          1    1    1    2  502    0 -0.40628581428E+02 -0.29759685087E+02  0.12150481330E+04  0.12160913971E+04  0.00000000000E+00 0. -1.
         22    1    3    3    0    0  0.64692475373E+02  0.81619660618E+02  0.62754779668E+02  0.12159378167E+03  0.00000000000E+00 0.  1.
         22    1    3    3    0    0  0.45945102148E+01 -0.74874560669E+01  0.12682678506E+03  0.12713066086E+03  0.00000000000E+00 0.  1.
</event>
<event>
 7    1  0.6330892E-006  0.5217018E+02  0.7818608E-02  0.1527184E+00
          2   -1    0    0  502    0  0.00000000000E+00  0.00000000000E+00  0.22020322087E+03  0.22020322087E+03  0.00000000000E+00 0. -1.
          1   -1    0    0  501    0 -0.00000000000E+00 -0.00000000000E+00 -0.12857669017E+04  0.12857669017E+04  0.00000000000E+00 0. -1.
         25    2    1    2    0    0  0.25102493864E+02 -0.33279705945E+02  0.33990569544E+02  0.13607713526E+03  0.12499581551E+03 0.  0.
          2    1    1    2  501    0 -0.56157067681E+01  0.51974240854E+02 -0.12328154111E+04  0.12339232941E+04  0.00000000000E+00 0. -1.
          1    1    1    2  502    0 -0.19486787096E+02 -0.18694534910E+02  0.13326116074E+03  0.13596969320E+03  0.00000000000E+00 0. -1.
         22    1    3    3    0    0  0.62226821980E+02 -0.42310555392E+02  0.54312345874E+02  0.92801893222E+02  0.00000000000E+00 0. -1.
         22    1    3    3    0    0 -0.37124328116E+02  0.90308494469E+01 -0.20321776330E+02  0.43275242033E+02  0.00000000000E+00 0. -1.
</event>
<event>
 7    1  0.6330892E-006  0.1528075E+03  0.7818608E-02  0.1316189E+00
          2   -1    0    0  502    0  0.00000000000E+00  0.00000000000E+00  0.21031554377E+03  0.21031554377E+03  0.00000000000E+00 0. -1.
          1   -1    0    0  501    0 -0.00000000000E+00 -0.00000000000E+00 -0.66660765620E+03  0.66660765620E+03  0.00000000000E+00 0. -1.
         25    2    1    2    0    0 -0.29261577605E+02  0.11334677458E+03 -0.22307585142E+03  0.28123262858E+03  0.12500089864E+03 0.  0.
          2    1    1    2  501    0  0.16267505754E+02  0.44053583000E+02 -0.37831623191E+03  0.38121978077E+03  0.00000000000E+00 0. -1.
          1    1    1    2  502    0  0.12994071851E+02 -0.15740035758E+03  0.14509997091E+03  0.21447079062E+03  0.00000000000E+00 0. -1.
         22    1    3    3    0    0 -0.62193242949E+01 -0.19474090805E+02  0.16949717714E+00  0.20443799468E+02  0.00000000000E+00 0. -1.
         22    1    3    3    0    0 -0.23042253310E+02  0.13282086539E+03 -0.22324534860E+03  0.26078882911E+03  0.00000000000E+00 0. -1.
</event>
<event>
 7    1  0.6330892E-006  0.1374832E+03  0.7818608E-02  0.1318995E+00
          2   -1    0    0  502    0  0.00000000000E+00  0.00000000000E+00  0.11068782111E+04  0.11068782111E+04  0.00000000000E+00 0. -1.
          1   -1    0    0  501    0 -0.00000000000E+00 -0.00000000000E+00 -0.10496465717E+04  0.10496465717E+04  0.00000000000E+00 0. -1.
         25    2    1    2    0    0 -0.92560535880E+02  0.39700697967E+02 -0.75629378238E+02  0.17745751247E+03  0.12501107014E+03 0.  0.
          2    1    1    2  501    0  0.14009338894E+03 -0.21498955132E+02 -0.91704252439E+03  0.92793068396E+03  0.00000000000E+00 0. -1.
          1    1    1    2  502    0 -0.47532853063E+02 -0.18201742835E+02  0.10499035420E+04  0.10511365863E+04  0.00000000000E+00 0. -1.
         22    1    3    3    0    0 -0.12203153726E+03  0.17241703402E+02 -0.54014384019E+02  0.13456049236E+03  0.00000000000E+00 0. -1.
         22    1    3    3    0    0  0.29471001380E+02  0.22458994566E+02 -0.21614994219E+02  0.42897020110E+02  0.00000000000E+00 0. -1.
</event>
<event>
 7    1  0.6330892E-006  0.1433715E+03  0.7818608E-02  0.1355403E+00
          2   -1    0    0  502    0  0.00000000000E+00  0.00000000000E+00  0.23156507506E+04  0.23156507506E+04  0.00000000000E+00 0. -1.
          1   -1    0    0  501    0 -0.00000000000E+00 -0.00000000000E+00 -0.31355767353E+03  0.31355767353E+03  0.00000000000E+00 0. -1.
         25    2    1    2    0    0  0.21590607073E+02  0.11694739507E+03  0.74344081474E+03  0.76319897757E+03  0.12500234719E+03 0.  0.
          2    1    1    2  501    0 -0.62171631263E+01  0.35007875015E+02 -0.29888968683E+03  0.30099709189E+03  0.00000000000E+00 0. -1.
          1    1    1    2  502    0 -0.15373443946E+02 -0.15195527009E+03  0.15575419492E+04  0.15650123547E+04  0.00000000000E+00 0. -1.
         22    1    3    3    0    0  0.31688003699E+02 -0.18311911319E+02  0.14027009427E+03  0.14496604782E+03  0.00000000000E+00 0. -1.
         22    1    3    3    0    0 -0.10097396626E+02  0.13525930639E+03  0.60317072047E+03  0.61823292974E+03  0.00000000000E+00 0. -1.
</event>
<event>
 7    1  0.6330892E-006  0.1087837E+03  0.7818608E-02  0.1334767E+00
          2   -1    0    0  502    0  0.00000000000E+00  0.00000000000E+00  0.32141203127E+04  0.32141203127E+04  0.00000000000E+00 0. -1.
          1   -1    0    0  501    0 -0.00000000000E+00 -0.00000000000E+00 -0.46589014096E+03  0.46589014096E+03  0.00000000000E+00 0. -1.
         25    2    1    2    0    0 -0.19042897715E+02  0.10311504746E+03  0.14237329530E+03  0.21654531022E+03  0.12500548467E+03 0.  0.
          2    1    1    2  501    0 -0.52163167860E+02 -0.20249112035E+02 -0.42599050927E+03  0.42964978367E+03  0.00000000000E+00 0. -1.
          1    1    1    2  502    0  0.71206065575E+02 -0.82865935426E+02  0.30318473857E+04  0.30338153598E+04  0.00000000000E+00 0. -1.
         22    1    3    3    0    0 -0.24024604647E+02  0.35849653140E+02 -0.14709820105E+02  0.45593399371E+02  0.00000000000E+00 0.  1.
         22    1    3    3    0    0  0.49817069316E+01  0.67265394322E+02  0.15708311541E+03  0.17095191085E+03  0.00000000000E+00 0.  1.
</event>
<event>
 7    1  0.1178730E-005  0.8138555E+02  0.7818608E-02  0.1497081E+00
          2   -1    0    0  502    0  0.00000000000E+00  0.00000000000E+00  0.12575617382E+04  0.12575617382E+04  0.00000000000E+00 0. -1.
          1   -1    0    0  501    0 -0.00000000000E+00 -0.00000000000E+00 -0.19179791183E+04  0.19179791183E+04  0.00000000000E+00 0. -1.
         25    2    1    2    0    0  0.23048093458E+02 -0.96138927219E+02 -0.99303171144E+03  0.10057391449E+04  0.12500135899E+03 0.  0.
          2    1    1    2  501    0  0.63094729766E+01  0.20256341683E+02 -0.91714815043E+03  0.91739351353E+03  0.00000000000E+00 0. -1.
          1    1    1    2  502    0 -0.29357566434E+02  0.75882585536E+02  0.12497624818E+04  0.12524081980E+04  0.00000000000E+00 0. -1.
         22    1    3    3    0    0  0.10536528639E+02  0.28745085468E+02 -0.28803657026E+03  0.28965904816E+03  0.00000000000E+00 0. -1.
         22    1    3    3    0    0  0.12511564818E+02 -0.12488401269E+03 -0.70499514119E+03  0.71608009676E+03  0.00000000000E+00 0. -1.
</event>
<event>
 7    1  0.6330892E-006  0.9593216E+02  0.7818608E-02  0.1293259E+00
          2   -1    0    0  502    0  0.00000000000E+00  0.00000000000E+00  0.76727229677E+03  0.76727229677E+03  0.00000000000E+00 0. -1.
          1   -1    0    0  501    0 -0.00000000000E+00 -0.00000000000E+00 -0.99529997537E+02  0.99529997537E+02  0.00000000000E+00 0. -1.
         25    2    1    2    0    0  0.66413127438E+02 -0.35703617765E+02  0.37608669682E+03  0.40342389902E+03  0.12499674780E+03 0.  0.
          2    1    1    2  501    0 -0.84440866631E+02 -0.54783933677E+02 -0.47927799348E+02  0.11148369072E+03  0.00000000000E+00 0. -1.
          1    1    1    2  502    0  0.18027739193E+02  0.90487551441E+02  0.33958340177E+03  0.35189470456E+03  0.00000000000E+00 0. -1.
         22    1    3    3    0    0  0.77256171475E+02 -0.67332718256E+02  0.33569233656E+03  0.35098654647E+03  0.00000000000E+00 0.  1.
         22    1    3    3    0    0 -0.10843044037E+02  0.31629100491E+02  0.40394360256E+02  0.52437352549E+02  0.00000000000E+00 0.  1.
</event>
<event>
 7    1  0.6330892E-006  0.4892801E+02  0.7818608E-02  0.1577736E+00
          2   -1    0    0  502    0  0.00000000000E+00  0.00000000000E+00  0.92524718202E+03  0.92524718202E+03  0.00000000000E+00 0. -1.
          1   -1    0    0  501    0 -0.00000000000E+00 -0.00000000000E+00 -0.28018540129E+03  0.28018540129E+03  0.00000000000E+00 0. -1.
         25    2    1    2    0    0 -0.33809603024E+02  0.52566393755E+02  0.18344030877E+03  0.23061187971E+03  0.12500070868E+03 0.  0.
          2    1    1    2  501    0  0.19931201847E+02 -0.60549608405E+01 -0.25535496474E+03  0.25620318768E+03  0.00000000000E+00 0. -1.
          1    1    1    2  502    0  0.13878401177E+02 -0.46511432915E+02  0.71697643670E+03  0.71861751593E+03  0.00000000000E+00 0. -1.
         22    1    3    3    0    0  0.25925158833E+02 -0.15504862097E+02  0.10982057615E+03  0.11389940103E+03  0.00000000000E+00 0.  1.
         22    1    3    3    0    0 -0.59734761856E+02  0.68071255852E+02  0.73619732623E+02  0.11671247868E+03  0.00000000000E+00 0.  1.
</event>
<event>
 7    1  0.6330892E-006  0.1991259E+03  0.7818608E-02  0.1257486E+00
          2   -1    0    0  502    0  0.00000000000E+00  0.00000000000E+00  0.12918160090E+04  0.12918160090E+04  0.00000000000E+00 0. -1.
          1   -1    0    0  501    0 -0.00000000000E+00 -0.00000000000E+00 -0.28007353824E+03  0.28007353824E+03  0.00000000000E+00 0. -1.
         25    2    1    2    0    0  0.15146130200E+03  0.16036366839E+03  0.17589641511E+03  0.30858246299E+03  0.12500622173E+03 0.  0.
          2    1    1    2  501    0 -0.16894164927E+03 -0.10021393607E+03 -0.16741483335E+03  0.25809269704E+03  0.00000000000E+00 0. -1.
          1    1    1    2  502    0  0.17480347267E+02 -0.60149732323E+02  0.10032608890E+04  0.10052143872E+04  0.00000000000E+00 0. -1.
         22    1    3    3    0    0  0.14933362815E+03  0.74651163000E+02  0.12798414660E+03  0.21036461303E+03  0.00000000000E+00 0. -1.
         22    1    3    3    0    0  0.21276738506E+01  0.85712505395E+02  0.47912268515E+02  0.98217849963E+02  0.00000000000E+00 0. -1.
</event>
<event>
 7    1  0.6330892E-006  0.4521796E+02  0.7818608E-02  0.1481169E+00
          2   -1    0    0  502    0  0.00000000000E+00  0.00000000000E+00  0.96809631974E+03  0.96809631974E+03  0.00000000000E+00 0. -1.
          1   -1    0    0  501    0 -0.00000000000E+00 -0.00000000000E+00 -0.12287343991E+04  0.12287343991E+04  0.00000000000E+00 0. -1.
         25    2    1    2    0    0 -0.12616198047E+02  0.72681052003E+02  0.21574521568E+03  0.26002399834E+03  0.12499911141E+03 0.  0.
          2    1    1    2  501    0  0.30057498965E+02 -0.33740175666E+02 -0.12055480573E+04  0.12063946167E+04  0.00000000000E+00 0. -1.
          1    1    1    2  502    0 -0.17441300919E+02 -0.38940876337E+02  0.72916476228E+03  0.73041210380E+03  0.00000000000E+00 0. -1.
         22    1    3    3    0    0  0.31038676055E+02  0.83426781451E+02  0.18575414649E+03  0.20598065495E+03  0.00000000000E+00 0. -1.
         22    1    3    3    0    0 -0.43654874101E+02 -0.10745729448E+02  0.29991069185E+02  0.54043343392E+02  0.00000000000E+00 0. -1.
</event>
<event>
 7    1  0.6330892E-006  0.7607095E+02  0.7818608E-02  0.1354682E+00
          2   -1    0    0  502    0  0.00000000000E+00  0.00000000000E+00  0.22922665556E+04  0.22922665556E+04  0.00000000000E+00 0. -1.
          1   -1    0    0  501    0 -0.00000000000E+00 -0.00000000000E+00 -0.76788754779E+03  0.76788754779E+03  0.00000000000E+00 0. -1.
         25    2    1    2    0    0  0.84374682619E+02  0.74232703134E+02  0.29548448155E+03  0.33994696549E+03  0.12499311671E+03 0.  0.
          2    1    1    2  501    0 -0.75618309017E+02 -0.73817144239E+01 -0.74314328935E+03  0.74701711284E+03  0.00000000000E+00 0. -1.
          1    1    1    2  502    0 -0.87563736018E+01 -0.66850988710E+02  0.19720378157E+04  0.19731900251E+04  0.00000000000E+00 0. -1.
         22    1    3    3    0    0 -0.91799055262E+01  0.32866510474E+02  0.18988531033E+03  0.19292721232E+03  0.00000000000E+00 0. -1.
         22    1    3    3    0    0  0.93554588145E+02  0.41366192660E+02  0.10559917122E+03  0.14701975317E+03  0.00000000000E+00 0. -1.
</event>
<event>
 7    1  0.6330892E-006  0.9496107E+02  0.7818608E-02  0.1319852E+00
          2   -1    0    0  502    0  0.00000000000E+00  0.00000000000E+00  0.24274622334E+04  0.24274622334E+04  0.00000000000E+00 0. -1.
          1   -1    0    0  501    0 -0.00000000000E+00 -0.00000000000E+00 -0.93045022752E+02  0.93045022752E+02  0.00000000000E+00 0. -1.
         25    2    1    2    0    0  0.15609228942E+03 -0.55498146582E+02  0.23940008406E+03  0.31683123612E+03  0.12499913937E+03 0.  0.
          2    1    1    2  501    0 -0.66309688378E+02  0.30832697444E+02 -0.28230803656E+02  0.78387551815E+02  0.00000000000E+00 0. -1.
          1    1    1    2  502    0 -0.89782601044E+02  0.24665449138E+02  0.21232479303E+04  0.21252884682E+04  0.00000000000E+00 0. -1.
         22    1    3    3    0    0  0.18697315193E+02 -0.66880981454E+02  0.73375152497E+02  0.10102756198E+03  0.00000000000E+00 0.  1.
         22    1    3    3    0    0  0.13739497423E+03  0.11382834872E+02  0.16602493156E+03  0.21580367414E+03  0.00000000000E+00 0.  1.
</event>
<event>
 7    1  0.6330892E-006  0.5203326E+02  0.7818608E-02  0.1486024E+00
          2   -1    0    0  502    0  0.00000000000E+00  0.00000000000E+00  0.34941931745E+03  0.34941931745E+03  0.00000000000E+00 0. -1.
          1   -1    0    0  501    0 -0.00000000000E+00 -0.00000000000E+00 -0.18892878933E+03  0.18892878933E+03  0.00000000000E+00 0. -1.
         25    2    1    2    0    0  0.21794262341E+01  0.19459580053E+02 -0.47780241273E+01  0.12662796027E+03  0.12501354188E+03 0.  0.
          2    1    1    2  501    0 -0.34716121726E+01 -0.55271939470E+02 -0.11580781282E+03  0.12836856661E+03  0.00000000000E+00 0. -1.
          1    1    1    2  502    0  0.12921859385E+01  0.35812359416E+02  0.28107636507E+03  0.28335157990E+03  0.00000000000E+00 0. -1.
         22    1    3    3    0    0  0.10796125024E+01  0.71321436584E+02 -0.17014384138E+02  0.73330772171E+02  0.00000000000E+00 0.  1.
         22    1    3    3    0    0  0.10998137316E+01 -0.51861856531E+02  0.12236360011E+02  0.53297188100E+02  0.00000000000E+00 0.  1.
</event>
<event>
 7    1  0.6330892E-006  0.1810778E+03  0.7818608E-02  0.1312406E+00
          2   -1    0    0  502    0  0.00000000000E+00  0.00000000000E+00  0.28528030948E+04  0.28528030948E+04  0.00000000000E+00 0. -1.
          1   -1    0    0  501    0 -0.00000000000E+00 -0.00000000000E+00 -0.81250354924E+03  0.81250354924E+03  0.00000000000E+00 0. -1.
         25    2    1    2    0    0 -0.10766306108E+03 -0.19298984842E+03 -0.39456070629E+03  0.46919009378E+03  0.12499910732E+03 0.  0.
          2    1    1    2  501    0  0.26112275985E+02  0.31614662475E+02 -0.37661127934E+03  0.37883689573E+03  0.00000000000E+00 0. -1.
          1    1    1    2  502    0  0.81550785094E+02  0.16137518595E+03  0.28114715312E+04  0.28172796546E+04  0.00000000000E+00 0. -1.
         22    1    3    3    0    0 -0.81088077284E+02 -0.20515673556E+03 -0.37107412664E+03  0.43169499636E+03  0.00000000000E+00 0.  1.
         22    1    3    3    0    0 -0.26574983794E+02  0.12166887134E+02 -0.23486579653E+02  0.37495097413E+02  0.00000000000E+00 0.  1.
</event>
<event>
 7    1  0.6330892E-006  0.9309107E+02  0.7818608E-02  0.1363963E+00
          2   -1    0    0  502    0  0.00000000000E+00  0.00000000000E+00  0.76156230629E+03  0.76156230629E+03  0.00000000000E+00 0. -1.
          1   -1    0    0  501    0 -0.00000000000E+00 -0.00000000000E+00 -0.54675166701E+03  0.54675166701E+03  0.00000000000E+00 0. -1.
         25    2    1    2    0    0  0.79602663187E+02 -0.11728112714E+03  0.42905902966E+02  0.19379801874E+03  0.12500123514E+03 0.  0.
          2    1    1    2  501    0 -0.31731812812E+02  0.39871931712E+02 -0.46669206147E+03  0.46946582317E+03  0.00000000000E+00 0. -1.
          1    1    1    2  502    0 -0.47870850375E+02  0.77409195428E+02  0.63859679779E+03  0.64505013138E+03  0.00000000000E+00 0. -1.
         22    1    3    3    0    0  0.75915502480E+01 -0.10729696670E+03 -0.33726303583E+01  0.10761805301E+03  0.00000000000E+00 0.  1.
         22    1    3    3    0    0  0.72011112939E+02 -0.99841604418E+01  0.46278533324E+02  0.86179965729E+02  0.00000000000E+00 0.  1.
</event>
<event>
 7    1  0.6330892E-006  0.9921731E+02  0.7818608E-02  0.1467048E+00
          2   -1    0    0  502    0  0.00000000000E+00  0.00000000000E+00  0.15239429121E+04  0.15239429121E+04  0.00000000000E+00 0. -1.
          1   -1    0    0  501    0 -0.00000000000E+00 -0.00000000000E+00 -0.33941414413E+03  0.33941414413E+03  0.00000000000E+00 0. -1.
         25    2    1    2    0    0 -0.61271952452E+02  0.97804608154E+02 -0.29043840136E+03  0.33659956897E+03  0.12499924526E+03 0.  0.
          2    1    1    2  501    0 -0.19203334419E+01 -0.21417368542E+02 -0.19486475355E+02  0.29019201876E+02  0.00000000000E+00 0. -1.
          1    1    1    2  502    0  0.63192285894E+02 -0.76387239612E+02  0.14944536447E+04  0.14977382854E+04  0.00000000000E+00 0. -1.
         22    1    3    3    0    0 -0.46295521545E+01  0.83475603308E+02 -0.71529106345E+02  0.11002737003E+03  0.00000000000E+00 0.  1.
         22    1    3    3    0    0 -0.56642400298E+02  0.14329004846E+02 -0.21890929502E+03  0.22657219895E+03  0.00000000000E+00 0.  1.
</event>
<event>
 7    1  0.6330892E-006  0.4201168E+02  0.7818608E-02  0.1531547E+00
          2   -1    0    0  502    0  0.00000000000E+00  0.00000000000E+00  0.19950990866E+04  0.19950990866E+04  0.00000000000E+00 0. -1.
          1   -1    0    0  501    0 -0.00000000000E+00 -0.00000000000E+00 -0.21399517281E+03  0.21399517281E+03  0.00000000000E+00 0. -1.
         25    2    1    2    0    0 -0.11142539784E+02 -0.14731550975E+02 -0.80145298176E+02  0.14963312576E+03  0.12500251485E+03 0.  0.
          2    1    1    2  501    0 -0.30742318486E+02  0.10791385572E+02 -0.96196022260E+02  0.10156386585E+03  0.00000000000E+00 0. -1.
          1    1    1    2  502    0  0.41884858270E+02  0.39401654025E+01  0.19574452342E+04  0.19578972678E+04  0.00000000000E+00 0. -1.
         22    1    3    3    0    0  0.97784711012E+01 -0.68223890511E+02 -0.43455682482E+02  0.81477076982E+02  0.00000000000E+00 0.  1.
         22    1    3    3    0    0 -0.20921010885E+02  0.53492339536E+02 -0.36689615694E+02  0.68156048780E+02  0.00000000000E+00 0.  1.
</event>
<event>
 7    1  0.6330892E-006  0.1350874E+03  0.7818608E-02  0.1362622E+00
          2   -1    0    0  502    0  0.00000000000E+00  0.00000000000E+00  0.70596598647E+02  0.70596598647E+02  0.00000000000E+00 0. -1.
          1   -1    0    0  501    0 -0.00000000000E+00 -0.00000000000E+00 -0.57354796088E+03  0.57354796088E+03  0.00000000000E+00 0. -1.
         25    2    1    2    0    0  0.38133816078E+02  0.10390492720E+03 -0.24800023800E+03  0.29896277112E+03  0.12499679451E+03 0.  0.
          2    1    1    2  501    0  0.15195681246E+02  0.32096198902E+02 -0.17516831793E+03  0.17873168247E+03  0.00000000000E+00 0. -1.
          1    1    1    2  502    0 -0.53329497323E+02 -0.13600112610E+03 -0.79782806305E+02  0.16645010594E+03  0.00000000000E+00 0. -1.
         22    1    3    3    0    0  0.41277630897E+02  0.12321210267E+03 -0.24733312493E+03  0.27938994210E+03  0.00000000000E+00 0. -1.
         22    1    3    3    0    0 -0.31438148192E+01 -0.19307175463E+02 -0.66711306966E+00  0.19572829020E+02  0.00000000000E+00 0. -1.
</event>
<event>
 7    1  0.6330892E-006  0.9950597E+02  0.7818608E-02  0.1455501E+00
          2   -1    0    0  502    0  0.00000000000E+00  0.00000000000E+00  0.22937460622E+04  0.22937460622E+04  0.00000000000E+00 0. -1.
          1   -1    0    0  501    0 -0.00000000000E+00 -0.00000000000E+00 -0.13683714658E+03  0.13683714658E+03  0.00000000000E+00 0. -1.
         25    2    1    2    0    0  0.10134335607E+03  0.64840004656E+02 -0.68374302130E+01  0.17360744303E+03  0.12497236415E+03 0.  0.
          2    1    1    2  501    0 -0.22980762511E+02 -0.39234667852E+01 -0.42512577400E+02  0.48485340820E+02  0.00000000000E+00 0. -1.
          1    1    1    2  502    0 -0.78362593561E+02 -0.60916537871E+02  0.22062589233E+04  0.22084904249E+04  0.00000000000E+00 0. -1.
         22    1    3    3    0    0  0.78831973949E+02  0.85504710206E+02  0.35315814812E+02  0.12154317077E+03  0.00000000000E+00 0.  1.
         22    1    3    3    0    0  0.22511382124E+02 -0.20664705550E+02 -0.42153245025E+02  0.52064272267E+02  0.00000000000E+00 0.  1.
</event>
<event>
 7    1  0.6330892E-006  0.1287475E+03  0.7818608E-02  0.1394227E+00
          2   -1    0    0  502    0  0.00000000000E+00  0.00000000000E+00  0.55283438598E+02  0.55283438598E+02  0.00000000000E+00 0. -1.
          1   -1    0    0  501    0 -0.00000000000E+00 -0.00000000000E+00 -0.17399983821E+04  0.17399983821E+04  0.00000000000E+00 0. -1.
         25    2    1    2    0    0  0.57721406888E+02 -0.13122127787E+03 -0.80836217453E+03  0.83043666063E+03  0.12499943013E+03 0.  0.
          2    1    1    2  501    0 -0.31378010224E+02  0.11964153858E+03 -0.91125437607E+03  0.91961036052E+03  0.00000000000E+00 0. -1.
          1    1    1    2  502    0 -0.26343396664E+02  0.11579739292E+02  0.34901607107E+02  0.45234799529E+02  0.00000000000E+00 0. -1.
         22    1    3    3    0    0 -0.18379315799E+02 -0.10207849028E+03 -0.35635126469E+03  0.37113884366E+03  0.00000000000E+00 0. -1.
         22    1    3    3    0    0  0.76100722687E+02 -0.29142787590E+02 -0.45201090984E+03  0.45929781697E+03  0.00000000000E+00 0. -1.
</event>
<event>
 7    1  0.6330892E-006  0.1093099E+03  0.7818608E-02  0.1435027E+00
          2   -1    0    0  502    0  0.00000000000E+00  0.00000000000E+00  0.11359952156E+04  0.11359952156E+04  0.00000000000E+00 0. -1.
          1   -1    0    0  501    0 -0.00000000000E+00 -0.00000000000E+00 -0.66197238151E+02  0.66197238151E+02  0.00000000000E+00 0. -1.
         25    2    1    2    0    0 -0.75888362721E+02 -0.47762153870E+02  0.15575492664E+03  0.21891754986E+03  0.12500011810E+03 0.  0.
          2    1    1    2  501    0 -0.24702355912E+02 -0.14022282625E+00 -0.26458134803E+02  0.36197499186E+02  0.00000000000E+00 0. -1.
          1    1    1    2  502    0  0.10059071863E+03  0.47902376696E+02  0.94050118561E+03  0.94707740470E+03  0.00000000000E+00 0. -1.
         22    1    3    3    0    0 -0.51367660794E+02 -0.32203861447E+02  0.15199604803E+00  0.60627950405E+02  0.00000000000E+00 0.  1.
         22    1    3    3    0    0 -0.24520701927E+02 -0.15558292423E+02  0.15560293060E+03  0.15828959946E+03  0.00000000000E+00 0.  1.
</event>
<event>
 7    1  0.6330892E-006  0.2479309E+03  0.7818608E-02  0.1223327E+00
          2   -1    0    0  502    0  0.00000000000E+00  0.00000000000E+00  0.19461355113E+04  0.19461355113E+04  0.00000000000E+00 0. -1.
          1   -1    0    0  501    0 -0.00000000000E+00 -0.00000000000E+00 -0.11769178285E+04  0.11769178285E+04  0.00000000000E+00 0. -1.
         25    2    1    2    0    0 -0.17471415641E+03 -0.22096253040E+03 -0.65638850863E+02  0.31509128379E+03  0.12499832836E+03 0.  0.
          2    1    1    2  501    0  0.71092948033E+02 -0.30014596384E+01 -0.97689425863E+03  0.97948231662E+03  0.00000000000E+00 0. -1.
          1    1    1    2  502    0  0.10362120837E+03  0.22396399003E+03  0.18117507923E+04  0.18284797393E+04  0.00000000000E+00 0. -1.
         22    1    3    3    0    0 -0.11605152682E+03 -0.11421117612E+03  0.23005582595E+02  0.16444271482E+03  0.00000000000E+00 0.  1.
         22    1    3    3    0    0 -0.58662629588E+02 -0.10675135428E+03 -0.88644433459E+02  0.15064856897E+03  0.00000000000E+00 0.  1.
</event>
<event>
 7    1  0.6330892E-006  0.1171032E+03  0.7818608E-02  0.1266259E+00
          2   -1    0    0  502    0  0.00000000000E+00  0.00000000000E+00  0.76475263093E+03  0.76475263093E+03  0.00000000000E+00 0. -1.
          1   -1    0    0  501    0 -0.00000000000E+00 -0.00000000000E+00 -0.16043469699E+04  0.16043469699E+04  0.00000000000E+00 0. -1.
         25    2    1    2    0    0 -0.74088407855E+01 -0.97571564897E+02  0.31272742941E+03  0.35071163409E+03  0.12500041591E+03 0.  0.
          2    1    1    2  501    0  0.97131626715E+02 -0.10884423467E+02 -0.15723587757E+04  0.15753936471E+04  0.00000000000E+00 0. -1.
          1    1    1    2  502    0 -0.89722785929E+02  0.10845598836E+03  0.42003700735E+03  0.44299431968E+03  0.00000000000E+00 0. -1.
         22    1    3    3    0    0  0.17143192249E+02 -0.20139088291E+01 -0.50386747143E+01  0.17981465795E+02  0.00000000000E+00 0.  1.
         22    1    3    3    0    0 -0.24552033035E+02 -0.95557656068E+02  0.31776610413E+03  0.33273016829E+03  0.00000000000E+00 0.  1.
</event>
<event>
 7    1  0.6330892E-006  0.5628778E+02  0.7818608E-02  0.1465289E+00
          2   -1    0    0  502    0  0.00000000000E+00  0.00000000000E+00  0.83743013516E+03  0.83743013516E+03  0.00000000000E+00 0. -1.
          1   -1    0    0  501    0 -0.00000000000E+00 -0.00000000000E+00 -0.21359021214E+04  0.21359021214E+04  0.00000000000E+00 0. -1.
         25    2    1    2    0    0  0.85464920973E+02  0.11340027768E+01 -0.16698682093E+03  0.22541746757E+03  0.12499159029E+03 0.  0.
          2    1    1    2  501    0 -0.33159246762E+02  0.19338942368E+02 -0.19385338107E+04  0.19389138365E+04  0.00000000000E+00 0. -1.
          1    1    1    2  502    0 -0.52305674211E+02 -0.20472945145E+02  0.80704864538E+03  0.80900095244E+03  0.00000000000E+00 0. -1.
         22    1    3    3    0    0 -0.46040079223E+01  0.29081223059E+02  0.44271668039E+01  0.29774388817E+02  0.00000000000E+00 0. -1.
         22    1    3    3    0    0  0.90068928895E+02 -0.27947220282E+02 -0.17141398773E+03  0.19564307876E+03  0.00000000000E+00 0. -1.
</event>
<event>
 7    1  0.6330892E-006  0.7974459E+02  0.7818608E-02  0.1349637E+00
          2   -1    0    0  502    0  0.00000000000E+00  0.00000000000E+00  0.29568269373E+02  0.29568269373E+02  0.00000000000E+00 0. -1.
          1   -1    0    0  501    0 -0.00000000000E+00 -0.00000000000E+00 -0.17845316560E+04  0.17845316560E+04  0.00000000000E+00 0. -1.
         25    2    1    2    0    0  0.50758131951E+02  0.86267175328E+02 -0.42155696145E+03  0.45094803926E+03  0.12500179544E+03 0.  0.
          2    1    1    2  501    0  0.25142350517E+02 -0.62249716468E+02 -0.12338702663E+04  0.12356953504E+04  0.00000000000E+00 0. -1.
          1    1    1    2  502    0 -0.75900482468E+02 -0.24017458860E+02 -0.99536158896E+02  0.12745653572E+03  0.00000000000E+00 0. -1.
         22    1    3    3    0    0 -0.11780677617E+02  0.92630920608E+02 -0.29850700776E+03  0.31277101128E+03  0.00000000000E+00 0.  1.
         22    1    3    3    0    0  0.62538809568E+02 -0.63637452801E+01 -0.12304995369E+03  0.13817702797E+03  0.00000000000E+00 0.  1.
</event>
<event>
 7    1  0.6330892E-006  0.7658890E+02  0.7818608E-02  0.1408050E+00
          2   -1    0    0  502    0  0.00000000000E+00  0.00000000000E+00  0.11394499324E+04  0.11394499324E+04  0.00000000000E+00 0. -1.
          1   -1    0    0  501    0 -0.00000000000E+00 -0.00000000000E+00 -0.33852502383E+03  0.33852502383E+03  0.00000000000E+00 0. -1.
         25    2    1    2    0    0  0.18939198622E+02 -0.67275843542E+02 -0.20198179608E+03  0.24760384354E+03  0.12500513999E+03 0.  0.
          2    1    1    2  501    0 -0.43009968192E+02 -0.55473852589E+01 -0.10822769638E+03  0.11659273181E+03  0.00000000000E+00 0. -1.
          1    1    1    2  502    0  0.24070769570E+02  0.72823228801E+02  0.11111344011E+04  0.11137783809E+04  0.00000000000E+00 0. -1.
         22    1    3    3    0    0  0.59143564331E+01 -0.38057096467E+02  0.43936255285E+01  0.38763722071E+02  0.00000000000E+00 0. -1.
         22    1    3    3    0    0  0.13024842189E+02 -0.29218747075E+02 -0.20637542160E+03  0.20884012147E+03  0.00000000000E+00 0. -1.
</event>
<event>
 7    1  0.6330892E-006  0.8079734E+02  0.7818608E-02  0.1375524E+00
          2   -1    0    0  502    0  0.00000000000E+00  0.00000000000E+00  0.16486371185E+04  0.16486371185E+04  0.00000000000E+00 0. -1.
          1   -1    0    0  501    0 -0.00000000000E+00 -0.00000000000E+00 -0.43444025749E+03  0.43444025749E+03  0.00000000000E+00 0. -1.
         25    2    1    2    0    0 -0.77864310479E+02  0.99687222615E+02  0.26268654015E+03  0.31722252854E+03  0.12500208413E+03 0.  0.
          2    1    1    2  501    0  0.45713695434E+02 -0.27505781144E+02 -0.40426934570E+03  0.40777446440E+03  0.00000000000E+00 0. -1.
          1    1    1    2  502    0  0.32150615045E+02 -0.72181441470E+02  0.13557796665E+04  0.13580803830E+04  0.00000000000E+00 0. -1.
         22    1    3    3    0    0 -0.31473436729E+02  0.42889747620E+01 -0.22441119801E+01  0.31843501105E+02  0.00000000000E+00 0. -1.
         22    1    3    3    0    0 -0.46390873750E+02  0.95398247852E+02  0.26493065213E+03  0.28537902743E+03  0.00000000000E+00 0. -1.
</event>
<event>
 7    1  0.6330892E-006  0.3463329E+02  0.7818608E-02  0.1567282E+00
          2   -1    0    0  502    0  0.00000000000E+00  0.00000000000E+00  0.19943838156E+04  0.19943838156E+04  0.00000000000E+00 0. -1.
          1   -1    0    0  501    0 -0.00000000000E+00 -0.00000000000E+00 -0.17282829511E+03  0.17282829511E+03  0.00000000000E+00 0. -1.
         25    2    1    2    0    0  0.60835002751E+02 -0.15067499533E+02  0.89821978189E+03  0.90903894030E+03  0.12500036518E+03 0.  0.
          2    1    1    2  501    0 -0.27444630228E+02  0.15277976811E+02 -0.16568727769E+03  0.16863836542E+03  0.00000000000E+00 0. -1.
          1    1    1    2  502    0 -0.33390372523E+02 -0.21047727888E+00  0.10890230163E+04  0.10895348050E+04  0.00000000000E+00 0. -1.
         22    1    3    3    0    0  0.34351436711E+02 -0.61914515178E+02  0.70237936879E+03  0.70593923683E+03  0.00000000000E+00 0. -1.
         22    1    3    3    0    0  0.26483566040E+02  0.46847015645E+02  0.19584041311E+03  0.20309970347E+03  0.00000000000E+00 0. -1.
</event>
<event>
 7    1  0.6330892E-006  0.9682662E+02  0.7818608E-02  0.1388062E+00
          2   -1    0    0  502    0  0.00000000000E+00  0.00000000000E+00  0.67614721965E+03  0.67614721965E+03  0.00000000000E+00 0. -1.
          1   -1    0    0  501    0 -0.00000000000E+00 -0.00000000000E+00 -0.49123159747E+03  0.49123159747E+03  0.00000000000E+00 0. -1.
         25    2    1    2    0    0 -0.12035785455E+03 -0.95947989317E+01 -0.25808769614E+02  0.17569623616E+03  0.12500000598E+03 0.  0.
          2    1    1    2  501    0  0.88843791887E+02  0.34557119066E+02 -0.38397217667E+03  0.39562867223E+03  0.00000000000E+00 0. -1.
          1    1    1    2  502    0  0.31514062661E+02 -0.24962320134E+02  0.59469656846E+03  0.59605390873E+03  0.00000000000E+00 0. -1.
         22    1    3    3    0    0  0.24289343315E+02 -0.20022083314E+01  0.10233486673E+02  0.26433033998E+02  0.00000000000E+00 0. -1.
         22    1    3    3    0    0 -0.14464719786E+03 -0.75925906004E+01 -0.36042256287E+02  0.14926320216E+03  0.00000000000E+00 0. -1.
</event>
<event>
 7    1  0.6330892E-006  0.1346427E+03  0.7818608E-02  0.1268130E+00
          2   -1    0    0  502    0  0.00000000000E+00  0.00000000000E+00  0.30874288792E+04  0.30874288792E+04  0.00000000000E+00 0. -1.
          1   -1    0    0  501    0 -0.00000000000E+00 -0.00000000000E+00 -0.30212557014E+02  0.30212557014E+02  0.00000000000E+00 0. -1.
         25    2    1    2    0    0 -0.70792076352E+02  0.28777862507E+02  0.95601221397E+03  0.96717288525E+03  0.12499741302E+03 0.  0.
          2    1    1    2  501    0  0.15013483091E+03 -0.28364529025E+01  0.21404804649E+03  0.26146716643E+03  0.00000000000E+00 0. -1.
          1    1    1    2  502    0 -0.79342754557E+02 -0.25941409604E+02  0.18871560617E+04  0.18890013845E+04  0.00000000000E+00 0. -1.
         22    1    3    3    0    0 -0.19090590887E+02  0.28257443776E+02  0.83349717650E+03  0.83419450790E+03  0.00000000000E+00 0.  1.
         22    1    3    3    0    0 -0.51701485465E+02  0.52041873134E+00  0.12251503747E+03  0.13297837735E+03  0.00000000000E+00 0.  1.
</event>
<event>
 7    1  0.6330892E-006  0.4990159E+02  0.7818608E-02  0.1475165E+00
          2   -1    0    0  502    0  0.00000000000E+00  0.00000000000E+00  0.68068468925E+03  0.68068468925E+03  0.00000000000E+00 0. -1.
          1   -1    0    0  501    0 -0.00000000000E+00 -0.00000000000E+00 -0.35393563304E+03  0.35393563304E+03  0.00000000000E+00 0. -1.
         25    2    1    2    0    0  0.60645482965E+02 -0.40306106160E+02 -0.21426410998E+03  0.25852814043E+03  0.12500093507E+03 0.  0.
          2    1    1    2  501    0 -0.46634078806E+02  0.24745268799E+01 -0.11225399468E+03  0.12158050794E+03  0.00000000000E+00 0. -1.
          1    1    1    2  502    0 -0.14011404159E+02  0.37831579280E+02  0.65326716087E+03  0.65451167393E+03  0.00000000000E+00 0. -1.
         22    1    3    3    0    0  0.41628656128E+02 -0.30570297267E+02 -0.22757135731E+03  0.23335854549E+03  0.00000000000E+00 0.  1.
         22    1    3    3    0    0  0.19016826837E+02 -0.97358088934E+01  0.13307247329E+02  0.25169594936E+02  0.00000000000E+00 0.  1.
</event>
<event>
 7    1  0.6330892E-006  0.3861692E+02  0.7818608E-02  0.1596471E+00
          2   -1    0    0  502    0  0.00000000000E+00  0.00000000000E+00  0.79794064881E+03  0.79794064881E+03  0.00000000000E+00 0. -1.
          1   -1    0    0  501    0 -0.00000000000E+00 -0.00000000000E+00 -0.50352049404E+02  0.50352049404E+02  0.00000000000E+00 0. -1.
         25    2    1    2    0    0 -0.10469205545E+02 -0.15303150285E+02  0.49656584586E+02  0.13577381262E+03  0.12499984450E+03 0.  0.
          2    1    1    2  501    0  0.44053242866E+01 -0.23118646337E+02  0.13800459082E+02  0.27282436867E+02  0.00000000000E+00 0. -1.
          1    1    1    2  502    0  0.60638812585E+01  0.38421796622E+02  0.68413155574E+03  0.68523644873E+03  0.00000000000E+00 0. -1.
         22    1    3    3    0    0 -0.55234772781E+02  0.12111072595E+01  0.65322473350E+02  0.85553330908E+02  0.00000000000E+00 0. -1.
         22    1    3    3    0    0  0.44765567236E+02 -0.16514257544E+02 -0.15665888764E+02  0.50220481708E+02  0.00000000000E+00 0. -1.
</event>
<event>
 7    1  0.6330892E-006  0.1889816E+03  0.7818608E-02  0.1223023E+00
          2   -1    0    0  502    0  0.00000000000E+00  0.00000000000E+00  0.97437995711E+03  0.97437995711E+03  0.00000000000E+00 0. -1.
          1   -1    0    0  501    0 -0.00000000000E+00 -0.00000000000E+00 -0.11155980578E+04  0.11155980578E+04  0.00000000000E+00 0. -1.
         25    2    1    2    0    0 -0.22023747755E+03  0.42707468440E+02 -0.53233600230E+03  0.59104532190E+03  0.12499791523E+03 0.  0.
          2    1    1    2  501    0  0.14637049222E+03 -0.10027292504E+03 -0.53728338456E+03  0.56582012673E+03  0.00000000000E+00 0. -1.
          1    1    1    2  502    0  0.73866985334E+02  0.57565456596E+02  0.92840128614E+03  0.93311256632E+03  0.00000000000E+00 0. -1.
         22    1    3    3    0    0 -0.39410141630E+02 -0.27963375330E+02 -0.20363323475E+03  0.20928832723E+03  0.00000000000E+00 0. -1.
         22    1    3    3    0    0 -0.18082733592E+03  0.70670843770E+02 -0.32870276755E+03  0.38175699466E+03  0.00000000000E+00 0. -1.
</event>
<event>
 7    1  0.6330892E-006  0.6791912E+02  0.7818608E-02  0.1439495E+00
          2   -1    0    0  502    0  0.00000000000E+00  0.00000000000E+00  0.61172795165E+03  0.61172795165E+03  0.00000000000E+00 0. -1.
          1   -1    0    0  501    0 -0.00000000000E+00 -0.00000000000E+00 -0.16561827927E+03  0.16561827927E+03  0.00000000000E+00 0. -1.
         25    2    1    2    0    0  0.44430037553E+02  0.31697530709E+02  0.12099929531E+03  0.18233071389E+03  0.12499959229E+03 0.  0.
          2    1    1    2  501    0 -0.69182620424E+02 -0.22792017387E+01 -0.12520310822E+03  0.14306379010E+03  0.00000000000E+00 0. -1.
          1    1    1    2  502    0  0.24752582871E+02 -0.29418328970E+02  0.45031348529E+03  0.45195172693E+03  0.00000000000E+00 0. -1.
         22    1    3    3    0    0 -0.27084100296E+02 -0.91467834758E+01 -0.76371948111E+01  0.29589506271E+02  0.00000000000E+00 0. -1.
         22    1    3    3    0    0  0.71514137849E+02  0.40844314184E+02  0.12863649012E+03  0.15274120762E+03  0.00000000000E+00 0. -1.
</event>
<event>
 7    1  0.6330892E-006  0.8321512E+02  0.7818608E-02  0.1422213E+00
          2   -1    0    0  502    0  0.00000000000E+00  0.00000000000E+00  0.44080460997E+04  0.44080460997E+04  0.00000000000E+00 0. -1.
          1   -1    0    0  501    0 -0.00000000000E+00 -0.00000000000E+00 -0.10435538768E+03  0.10435538768E+03  0.00000000000E+00 0. -1.
         25    2    1    2    0    0  0.40209425388E+02 -0.46766673916E+02  0.10029460672E+04  0.10125882405E+04  0.12502084379E+03 0.  0.
          2    1    1    2  501    0 -0.10765555764E+02 -0.34107694842E+02 -0.95758412931E+02  0.10221988889E+03  0.00000000000E+00 0. -1.
          1    1    1    2  502    0 -0.29443869624E+02  0.80874368758E+02  0.33965030578E+04  0.33975933580E+04  0.00000000000E+00 0. -1.
         22    1    3    3    0    0  0.63037957920E+02  0.21616206171E+02  0.43232586414E+03  0.43743193449E+03  0.00000000000E+00 0. -1.
         22    1    3    3    0    0 -0.22828532533E+02 -0.68382880087E+02  0.57062020304E+03  0.57515630598E+03  0.00000000000E+00 0. -1.
</event>
<event>
 7    1  0.6330892E-006  0.5714076E+02  0.7818608E-02  0.1536922E+00
          2   -1    0    0  502    0  0.00000000000E+00  0.00000000000E+00  0.50710156806E+03  0.50710156806E+03  0.00000000000E+00 0. -1.
          1   -1    0    0  501    0 -0.00000000000E+00 -0.00000000000E+00 -0.51595737346E+03  0.51595737346E+03  0.00000000000E+00 0. -1.
         25    2    1    2    0    0  0.58298142857E+02 -0.14691166879E+02 -0.64994348287E+02  0.15317985345E+03  0.12500119339E+03 0.  0.
          2    1    1    2  501    0 -0.56589659861E+02 -0.83707242008E+01 -0.40456808033E+03  0.40859245006E+03  0.00000000000E+00 0. -1.
          1    1    1    2  502    0 -0.17084829955E+01  0.23061891080E+02  0.46070662321E+03  0.46128663801E+03  0.00000000000E+00 0. -1.
         22    1    3    3    0    0  0.26743791765E+02  0.42185561718E+02 -0.72141105785E+02  0.87745034955E+02  0.00000000000E+00 0. -1.
         22    1    3    3    0    0  0.31554351092E+02 -0.56876728597E+02  0.71467574980E+01  0.65434818495E+02  0.00000000000E+00 0. -1.
</event>
<event>
 7    1  0.6330892E-006  0.7007873E+02  0.7818608E-02  0.1465895E+00
          2   -1    0    0  502    0  0.00000000000E+00  0.00000000000E+00  0.10454581039E+04  0.10454581039E+04  0.00000000000E+00 0. -1.
          1   -1    0    0  501    0 -0.00000000000E+00 -0.00000000000E+00 -0.44125589845E+03  0.44125589845E+03  0.00000000000E+00 0. -1.
         25    2    1    2    0    0  0.69717182146E+02 -0.23147850125E+02 -0.12572174088E+03  0.19190749511E+03  0.12500488830E+03 0.  0.
          2    1    1    2  501    0 -0.18378205149E+02 -0.24588710390E+02 -0.28038893890E+03  0.28206439010E+03  0.00000000000E+00 0. -1.
          1    1    1    2  502    0 -0.51338976997E+02  0.47736560515E+02  0.10103128852E+04  0.10127421171E+04  0.00000000000E+00 0. -1.
         22    1    3    3    0    0  0.92409431272E+02 -0.16384726168E+02 -0.38349703808E+02  0.10138373648E+03  0.00000000000E+00 0. -1.
         22    1    3    3    0    0 -0.22692249126E+02 -0.67631239575E+01 -0.87372037070E+02  0.90523758637E+02  0.00000000000E+00 0. -1.
</event>
<event>
 7    1  0.6330892E-006  0.6312759E+02  0.7818608E-02  0.1534306E+00
          2   -1    0    0  502    0  0.00000000000E+00  0.00000000000E+00  0.19160099500E+03  0.19160099500E+03  0.00000000000E+00 0. -1.
          1   -1    0    0  501    0 -0.00000000000E+00 -0.00000000000E+00 -0.23100708458E+03  0.23100708458E+03  0.00000000000E+00 0. -1.
         25    2    1    2    0    0 -0.46319097439E+02  0.43343440769E+02 -0.83178376243E+02  0.16299713860E+03  0.12500124909E+03 0.  0.
          2    1    1    2  501    0 -0.11613605434E+02 -0.17847715548E+02 -0.10014830124E+03  0.10238700612E+03  0.00000000000E+00 0. -1.
          1    1    1    2  502    0  0.57932702874E+02 -0.25495725220E+02  0.14392058791E+03  0.15722393485E+03  0.00000000000E+00 0. -1.
         22    1    3    3    0    0 -0.19456280778E+02 -0.36492028395E+02  0.42745020465E+01  0.41575069042E+02  0.00000000000E+00 0. -1.
         22    1    3    3    0    0 -0.26862816662E+02  0.79835469164E+02 -0.87452878290E+02  0.12142206956E+03  0.00000000000E+00 0. -1.
</event>
<event>
 7    1  0.6330892E-006  0.5884735E+02  0.7818608E-02  0.1439316E+00
          2   -1    0    0  502    0  0.00000000000E+00  0.00000000000E+00  0.31548439924E+04  0.31548439924E+04  0.00000000000E+00 0. -1.
          1   -1    0    0  501    0 -0.00000000000E+00 -0.00000000000E+00 -0.69856062468E+02  0.69856062468E+02  0.00000000000E+00 0. -1.
         25    2    1    2    0    0  0.39244063922E+02 -0.48027432452E+02  0.12409054414E+03  0.18674172929E+03  0.12500911763E+03 0.  0.
          2    1    1    2  501    0  0.19188731694E+02  0.40075623726E+02 -0.25332089567E+02  0.51146630416E+02  0.00000000000E+00 0. -1.
          1    1    1    2  502    0 -0.58432795616E+02  0.79518087254E+01  0.29862294753E+04  0.29868116951E+04  0.00000000000E+00 0. -1.
         22    1    3    3    0    0  0.65264584713E+02  0.15729139232E+02  0.40359337483E+02  0.78331015319E+02  0.00000000000E+00 0.  1.
         22    1    3    3    0    0 -0.26020520791E+02 -0.63756571683E+02  0.83731206655E+02  0.10841071397E+03  0.00000000000E+00 0.  1.
</event>
<event>
 7    1  0.6330892E-006  0.5347381E+02  0.7818608E-02  0.1466508E+00
          2   -1    0    0  502    0  0.00000000000E+00  0.00000000000E+00  0.10971812637E+04  0.10971812637E+04  0.00000000000E+00 0. -1.
          1   -1    0    0  501    0 -0.00000000000E+00 -0.00000000000E+00 -0.32865299030E+03  0.32865299030E+03  0.00000000000E+00 0. -1.
         25    2    1    2    0    0  0.73818454650E+02 -0.23038171366E+01  0.14405662474E+03  0.20452867692E+03  0.12500078692E+03 0.  0.
          2    1    1    2  501    0 -0.29467374433E+02 -0.27128018227E+02 -0.29630090456E+03  0.29899578856E+03  0.00000000000E+00 0. -1.
          1    1    1    2  502    0 -0.44351080217E+02  0.29431835364E+02  0.92077255318E+03  0.92230978849E+03  0.00000000000E+00 0. -1.
         22    1    3    3    0    0  0.65364711526E+02  0.28029865121E+02  0.15552526782E+03  0.17101557760E+03  0.00000000000E+00 0.  1.
         22    1    3    3    0    0  0.84537431239E+01 -0.30333682258E+02 -0.11468643074E+02  0.33513099321E+02  0.00000000000E+00 0.  1.
</event>
<event>
 7    1  0.6330892E-006  0.4910944E+02  0.7818608E-02  0.1454038E+00
          2   -1    0    0  502    0  0.00000000000E+00  0.00000000000E+00  0.37839199701E+03  0.37839199701E+03  0.00000000000E+00 0. -1.
          1   -1    0    0  501    0 -0.00000000000E+00 -0.00000000000E+00 -0.63041659538E+03  0.63041659538E+03  0.00000000000E+00 0. -1.
         25    2    1    2    0    0  0.45098433018E+02 -0.60560560331E+02 -0.56324404100E+02  0.15652768641E+03  0.12500811169E+03 0.  0.
          2    1    1    2  501    0 -0.47140289629E+02  0.12858067481E+02 -0.52110553566E+03  0.52339136037E+03  0.00000000000E+00 0. -1.
          1    1    1    2  502    0  0.20418566104E+01  0.47702492850E+02  0.32540534139E+03  0.32888954561E+03  0.00000000000E+00 0. -1.
         22    1    3    3    0    0  0.20612799600E+02 -0.90291224920E+02 -0.55263438299E+01  0.92778948480E+02  0.00000000000E+00 0. -1.
         22    1    3    3    0    0  0.24485633418E+02  0.29730664589E+02 -0.50798060270E+02  0.63748737933E+02  0.00000000000E+00 0. -1.
</event>
<event>
 7    1  0.6330892E-006  0.1011851E+03  0.7818608E-02  0.1287255E+00
          2   -1    0    0  502    0  0.00000000000E+00  0.00000000000E+00  0.10490990830E+04  0.10490990830E+04  0.00000000000E+00 0. -1.
          1   -1    0    0  501    0 -0.00000000000E+00 -0.00000000000E+00 -0.47513308765E+03  0.47513308765E+03  0.00000000000E+00 0. -1.
         25    2    1    2    0    0  0.14303412133E+03  0.70019253151E+02  0.28766452432E+03  0.35176295731E+03  0.12499937562E+03 0.  0.
          2    1    1    2  501    0 -0.51918139514E+02 -0.86152692982E+02 -0.43437866396E+03  0.44587285567E+03  0.00000000000E+00 0. -1.
          1    1    1    2  502    0 -0.91115981819E+02  0.16133439831E+02  0.72068013499E+03  0.72659635768E+03  0.00000000000E+00 0. -1.
         22    1    3    3    0    0  0.14069628499E+03  0.35705970427E+02  0.14560545510E+03  0.20559987716E+03  0.00000000000E+00 0. -1.
         22    1    3    3    0    0  0.23378363423E+01  0.34313282725E+02  0.14205906922E+03  0.14616308015E+03  0.00000000000E+00 0. -1.
</event>
<event>
 7    1  0.6330892E-006  0.1150524E+03  0.7818608E-02  0.1285508E+00
          2   -1    0    0  502    0  0.00000000000E+00  0.00000000000E+00  0.28754678322E+04  0.28754678322E+04  0.00000000000E+00 0. -1.
          1   -1    0    0  501    0 -0.00000000000E+00 -0.00000000000E+00 -0.39901129725E+03  0.39901129725E+03  0.00000000000E+00 0. -1.
         25    2    1    2    0    0 -0.16145821476E+03  0.11843167570E+02 -0.87192542659E+01  0.20471868000E+03  0.12499878725E+03 0.  0.
          2    1    1    2  501    0  0.57195849239E+02 -0.59774189063E+02 -0.28522667525E+03  0.29698244918E+03  0.00000000000E+00 0. -1.
          1    1    1    2  502    0  0.10426236552E+03  0.47931021492E+02  0.27704024645E+04  0.27727780003E+04  0.00000000000E+00 0. -1.
         22    1    3    3    0    0 -0.10068144391E+03  0.38708554006E+02  0.47324273441E+02  0.11779088317E+03  0.00000000000E+00 0. -1.
         22    1    3    3    0    0 -0.60776770848E+02 -0.26865386435E+02 -0.56043527707E+02  0.86927796825E+02  0.00000000000E+00 0. -1.
</event>
<event>
 7    1  0.6330892E-006  0.7624128E+02  0.7818608E-02  0.1407633E+00
          2   -1    0    0  502    0  0.00000000000E+00  0.00000000000E+00  0.73915246587E+03  0.73915246587E+03  0.00000000000E+00 0. -1.
          1   -1    0    0  501    0 -0.00000000000E+00 -0.00000000000E+00 -0.12857434243E+04  0.12857434243E+04  0.00000000000E+00 0. -1.
         25    2    1    2    0    0  0.54171937144E+02  0.80490737575E+02 -0.40009445653E+02  0.16321481944E+03  0.12499985574E+03 0.  0.
          2    1    1    2  501    0  0.11466208855E+02 -0.42175397968E+02 -0.11815946250E+04  0.11824026793E+04  0.00000000000E+00 0. -1.
          1    1    1    2  502    0 -0.65638145999E+02 -0.38315339607E+02  0.67501311220E+03  0.67927839146E+03  0.00000000000E+00 0. -1.
         22    1    3    3    0    0  0.70501790473E+02  0.56700668093E+02  0.23484294693E+02  0.93471815642E+02  0.00000000000E+00 0. -1.
         22    1    3    3    0    0 -0.16329853329E+02  0.23790069482E+02 -0.63493740346E+02  0.69743003799E+02  0.00000000000E+00 0. -1.
</event>
<event>
 7    1  0.6330892E-006  0.6437480E+02  0.7818608E-02  0.1444004E+00
          2   -1    0    0  502    0  0.00000000000E+00  0.00000000000E+00  0.10808549515E+04  0.10808549515E+04  0.00000000000E+00 0. -1.
          1   -1    0    0  501    0 -0.00000000000E+00 -0.00000000000E+00 -0.86423412024E+03  0.86423412024E+03  0.00000000000E+00 0. -1.
         25    2    1    2    0    0  0.99199346760E+01 -0.49054619292E+02  0.36821225065E+03  0.39205916488E+03  0.12500146582E+03 0.  0.
          2    1    1    2  501    0 -0.37112226443E+02 -0.12692126621E+02 -0.85023343182E+03  0.85113764810E+03  0.00000000000E+00 0. -1.
          1    1    1    2  502    0  0.27192291767E+02  0.61746745912E+02  0.69864201246E+03  0.70189225878E+03  0.00000000000E+00 0. -1.
         22    1    3    3    0    0  0.30531359107E+02 -0.27304532587E+02  0.25951028207E+02  0.48488733266E+02  0.00000000000E+00 0. -1.
         22    1    3    3    0    0 -0.20611424431E+02 -0.21750086704E+02  0.34226122245E+03  0.34357043161E+03  0.00000000000E+00 0. -1.
</event>
<event>
 7    1  0.6330892E-006  0.5504934E+02  0.7818608E-02  0.1457259E+00
          2   -1    0    0  502    0  0.00000000000E+00  0.00000000000E+00  0.20997666026E+04  0.20997666026E+04  0.00000000000E+00 0. -1.
          1   -1    0    0  501    0 -0.00000000000E+00 -0.00000000000E+00 -0.71179028379E+02  0.71179028379E+02  0.00000000000E+00 0. -1.
         25    2    1    2    0    0 -0.76943211229E+02  0.30301522294E+02  0.16111576661E+03  0.22004907879E+03  0.12499946726E+03 0.  0.
          2    1    1    2  501    0  0.36250230053E+02 -0.38956630481E+02 -0.24418550174E+02  0.58548815786E+02  0.00000000000E+00 0. -1.
          1    1    1    2  502    0  0.40692981176E+02  0.86551081870E+01  0.18918903578E+04  0.18923477365E+04  0.00000000000E+00 0. -1.
         22    1    3    3    0    0 -0.88513608658E+02 -0.23726516161E+02  0.78525627843E+02  0.12068090452E+03  0.00000000000E+00 0. -1.
         22    1    3    3    0    0  0.11570397429E+02  0.54028038455E+02  0.82590138768E+02  0.99368174270E+02  0.00000000000E+00 0. -1.
</event>
<event>
 7    1  0.6330892E-006  0.4801233E+02  0.7818608E-02  0.1521738E+00
          2   -1    0    0  502    0  0.00000000000E+00  0.00000000000E+00  0.66860460029E+03  0.66860460029E+03  0.00000000000E+00 0. -1.
          1   -1    0    0  501    0 -0.00000000000E+00 -0.00000000000E+00 -0.73242020826E+03  0.73242020826E+03  0.00000000000E+00 0. -1.
         25    2    1    2    0    0  0.20873257355E+02 -0.60781456834E+02  0.62188848096E+02  0.15369176226E+03  0.12499450624E+03 0.  0.
          2    1    1    2  501    0  0.13300982828E+02  0.27362607279E+02 -0.68531189085E+03  0.68598689212E+03  0.00000000000E+00 0. -1.
          1    1    1    2  502    0 -0.34174240183E+02  0.33418849556E+02  0.55930743479E+03  0.56134615417E+03  0.00000000000E+00 0. -1.
         22    1    3    3    0    0  0.24410759367E+02 -0.48895242273E+02 -0.28859913329E+02  0.61802301633E+02  0.00000000000E+00 0. -1.
         22    1    3    3    0    0 -0.35375020120E+01 -0.11886214562E+02  0.91048761425E+02  0.91889460626E+02  0.00000000000E+00 0. -1.
</event>
<event>
 7    1  0.6330892E-006  0.7918470E+02  0.7818608E-02  0.1504975E+00
          2   -1    0    0  502    0  0.00000000000E+00  0.00000000000E+00  0.95875561166E+02  0.95875561166E+02  0.00000000000E+00 0. -1.
          1   -1    0    0  501    0 -0.00000000000E+00 -0.00000000000E+00 -0.10029815310E+04  0.10029815310E+04  0.00000000000E+00 0. -1.
         25    2    1    2    0    0  0.51621241260E+02 -0.41630842045E+02 -0.58094811403E+03  0.59793264433E+03  0.12499942561E+03 0.  0.
          2    1    1    2  501    0  0.19698865559E+02  0.62156107347E+01 -0.39507439375E+03  0.39561402366E+03  0.00000000000E+00 0. -1.
          1    1    1    2  502    0 -0.71320106819E+02  0.35415231310E+02  0.68916537922E+02  0.10531042420E+03  0.00000000000E+00 0. -1.
         22    1    3    3    0    0  0.77562167340E+02  0.10569976186E+02 -0.40753066643E+03  0.41498055168E+03  0.00000000000E+00 0.  1.
         22    1    3    3    0    0 -0.25940926080E+02 -0.52200818231E+02 -0.17341744760E+03  0.18295209264E+03  0.00000000000E+00 0.  1.
</event>
<event>
 7    1  0.6330892E-006  0.7897873E+02  0.7818608E-02  0.1364669E+00
          2   -1    0    0  502    0  0.00000000000E+00  0.00000000000E+00  0.21732576958E+03  0.21732576958E+03  0.00000000000E+00 0. -1.
          1   -1    0    0  501    0 -0.00000000000E+00 -0.00000000000E+00 -0.71590906522E+03  0.71590906522E+03  0.00000000000E+00 0. -1.
         25    2    1    2    0    0  0.63426394274E+02 -0.67734660746E+02 -0.34886673579E+03  0.38202585820E+03  0.12499946096E+03 0.  0.
          2    1    1    2  501    0  0.15075776554E+02  0.57775315879E+02 -0.33996032759E+03  0.34516415008E+03  0.00000000000E+00 0. -1.
          1    1    1    2  502    0 -0.78502170828E+02  0.99593448672E+01  0.19024376774E+03  0.20604482653E+03  0.00000000000E+00 0. -1.
         22    1    3    3    0    0  0.71924597737E+02  0.14007424629E+02 -0.17459863890E+03  0.18935163166E+03  0.00000000000E+00 0.  1.
         22    1    3    3    0    0 -0.84982034627E+01 -0.81742085375E+02 -0.17426809688E+03  0.19267422655E+03  0.00000000000E+00 0.  1.
</event>
<event>
 7    1  0.6330892E-006  0.1234806E+03  0.7818608E-02  0.1364851E+00
          2   -1    0    0  502    0  0.00000000000E+00  0.00000000000E+00  0.14478367527E+04  0.14478367527E+04  0.00000000000E+00 0. -1.
          1   -1    0    0  501    0 -0.00000000000E+00 -0.00000000000E+00 -0.25081426143E+03  0.25081426143E+03  0.00000000000E+00 0. -1.
         25    2    1    2    0    0  0.69976504178E+02  0.11977561507E+03  0.77223921045E+02  0.20206322244E+03  0.12499241089E+03 0.  0.
          2    1    1    2  501    0 -0.86833647865E+02 -0.85571114148E+02 -0.16836032131E+03  0.20786460923E+03  0.00000000000E+00 0. -1.
          1    1    1    2  502    0  0.16857143687E+02 -0.34204500921E+02  0.12881588915E+04  0.12887231824E+04  0.00000000000E+00 0. -1.
         22    1    3    3    0    0  0.97688227657E+02  0.46125503672E+02  0.45250675172E+02  0.11712461533E+03  0.00000000000E+00 0.  1.
         22    1    3    3    0    0 -0.27711723479E+02  0.73650111398E+02  0.31973245873E+02  0.84938607115E+02  0.00000000000E+00 0.  1.
</event>
<event>
 7    1  0.6330892E-006  0.9857660E+02  0.7818608E-02  0.1425823E+00
          2   -1    0    0  502    0  0.00000000000E+00  0.00000000000E+00  0.80970741120E+03  0.80970741120E+03  0.00000000000E+00 0. -1.
          1   -1    0    0  501    0 -0.00000000000E+00 -0.00000000000E+00 -0.52322215720E+02  0.52322215720E+02  0.00000000000E+00 0. -1.
         25    2    1    2    0    0 -0.39143957627E+02 -0.76902504769E+02  0.88897585141E+02  0.17599467246E+03  0.12500039773E+03 0.  0.
          2    1    1    2  501    0  0.20252110620E+02 -0.21271836342E+02  0.39888276449E+02  0.49534973544E+02  0.00000000000E+00 0. -1.
          1    1    1    2  502    0  0.18891847007E+02  0.98174341111E+02  0.62859933389E+03  0.63649998092E+03  0.00000000000E+00 0. -1.
         22    1    3    3    0    0  0.36981923177E+02 -0.43341030771E+02  0.70757076762E+02  0.90844215568E+02  0.00000000000E+00 0. -1.
         22    1    3    3    0    0 -0.76125880804E+02 -0.33561473998E+02  0.18140508378E+02  0.85150456895E+02  0.00000000000E+00 0. -1.
</event>
<event>
 7    1  0.6330892E-006  0.7984507E+02  0.7818608E-02  0.1337911E+00
          2   -1    0    0  502    0  0.00000000000E+00  0.00000000000E+00  0.30942262492E+03  0.30942262492E+03  0.00000000000E+00 0. -1.
          1   -1    0    0  501    0 -0.00000000000E+00 -0.00000000000E+00 -0.17877846444E+04  0.17877846444E+04  0.00000000000E+00 0. -1.
         25    2    1    2    0    0  0.50276878019E+01  0.28252644689E+02 -0.82388164767E+01  0.12851967091E+03  0.12500375249E+03 0.  0.
          2    1    1    2  501    0  0.73700595771E+02  0.83887046459E+01 -0.17110149470E+04  0.17126220531E+04  0.00000000000E+00 0. -1.
          1    1    1    2  502    0 -0.78728283573E+02 -0.36641349335E+02  0.24089174401E+03  0.25606554522E+03  0.00000000000E+00 0. -1.
         22    1    3    3    0    0 -0.82867437026E+01  0.74016419200E+02  0.14232633091E+02  0.75826567093E+02  0.00000000000E+00 0. -1.
         22    1    3    3    0    0  0.13314431505E+02 -0.45763774511E+02 -0.22471449567E+02  0.52693103813E+02  0.00000000000E+00 0. -1.
</event>
<event>
 7    1  0.6330892E-006  0.4741304E+02  0.7818608E-02  0.1574221E+00
          2   -1    0    0  502    0  0.00000000000E+00  0.00000000000E+00  0.13708716075E+04  0.13708716075E+04  0.00000000000E+00 0. -1.
          1   -1    0    0  501    0 -0.00000000000E+00 -0.00000000000E+00 -0.20820303978E+03  0.20820303978E+03  0.00000000000E+00 0. -1.
         25    2    1    2    0    0  0.47223715760E+02 -0.36436684405E+02  0.40698130290E+03  0.42990406590E+03  0.12500405461E+03 0.  0.
          2    1    1    2  501    0 -0.26000801881E+01  0.21816024179E+02 -0.19554731439E+03  0.19677767021E+03  0.00000000000E+00 0. -1.
          1    1    1    2  502    0 -0.44623635572E+02  0.14620660226E+02  0.95123457920E+03  0.95239291116E+03  0.00000000000E+00 0. -1.
         22    1    3    3    0    0  0.69691533936E+02 -0.69547677855E+02  0.29365245859E+03  0.30971851064E+03  0.00000000000E+00 0. -1.
         22    1    3    3    0    0 -0.22467818175E+02  0.33110993450E+02  0.11332884431E+03  0.12018555526E+03  0.00000000000E+00 0. -1.
</event>
<event>
 7    1  0.6330892E-006  0.9131774E+02  0.7818608E-02  0.1356562E+00
          2   -1    0    0  502    0  0.00000000000E+00  0.00000000000E+00  0.13176493137E+04  0.13176493137E+04  0.00000000000E+00 0. -1.
          1   -1    0    0  501    0 -0.00000000000E+00 -0.00000000000E+00 -0.13937991759E+03  0.13937991759E+03  0.00000000000E+00 0. -1.
         25    2    1    2    0    0 -0.11946410649E+03  0.47283350031E+02  0.98761788008E+02  0.20466060469E+03  0.12499873764E+03 0.  0.
          2    1    1    2  501    0  0.29102650874E+02 -0.46997805629E+02 -0.75643087330E+02  0.93689031816E+02  0.00000000000E+00 0. -1.
          1    1    1    2  502    0  0.90361455612E+02 -0.28554440192E+00  0.11551506954E+04  0.11586795947E+04  0.00000000000E+00 0. -1.
         22    1    3    3    0    0 -0.96963116758E+02 -0.26700764033E+02  0.68173328134E+02  0.12150053284E+03  0.00000000000E+00 0. -1.
         22    1    3    3    0    0 -0.22500989727E+02  0.73984114065E+02  0.30588459875E+02  0.83160071850E+02  0.00000000000E+00 0. -1.
</event>
<event>
 7    1  0.6330892E-006  0.9710725E+02  0.7818608E-02  0.1445850E+00
          2   -1    0    0  502    0  0.00000000000E+00  0.00000000000E+00  0.39494153175E+03  0.39494153175E+03  0.00000000000E+00 0. -1.
          1   -1    0    0  501    0 -0.00000000000E+00 -0.00000000000E+00 -0.41436552765E+03  0.41436552765E+03  0.00000000000E+00 0. -1.
         25    2    1    2    0    0 -0.77087936417E+02  0.86571298899E+02 -0.17337480819E+03  0.24314497621E+03  0.12499406229E+03 0.  0.
          2    1    1    2  501    0  0.55204349043E+02 -0.73195107081E+02 -0.19541717692E+03  0.21585392488E+03  0.00000000000E+00 0. -1.
          1    1    1    2  502    0  0.21883587374E+02 -0.13376191819E+02  0.34936798920E+03  0.35030815831E+03  0.00000000000E+00 0. -1.
         22    1    3    3    0    0 -0.78373867058E+02  0.11502971849E+03 -0.12539390156E+03  0.18734441471E+03  0.00000000000E+00 0.  1.
         22    1    3    3    0    0  0.12859306411E+01 -0.28458419590E+02 -0.47980906628E+02  0.55800561503E+02  0.00000000000E+00 0.  1.
</event>
<event>
 7    1  0.6330892E-006  0.1210914E+03  0.7818608E-02  0.1298196E+00
          2   -1    0    0  502    0  0.00000000000E+00  0.00000000000E+00  0.23729438406E+04  0.23729438406E+04  0.00000000000E+00 0. -1.
          1   -1    0    0  501    0 -0.00000000000E+00 -0.00000000000E+00 -0.78274867411E+03  0.78274867411E+03  0.00000000000E+00 0. -1.
         25    2    1    2    0    0  0.42711593307E+02  0.11818654501E+03  0.34494743743E+02  0.18060269515E+03  0.12504041956E+03 0.  0.
          2    1    1    2  501    0 -0.96755234892E+02 -0.73977695672E+02 -0.70392589597E+03  0.71438500960E+03  0.00000000000E+00 0. -1.
          1    1    1    2  502    0  0.54043641585E+02 -0.44208849342E+02  0.22596263187E+04  0.22607048100E+04  0.00000000000E+00 0. -1.
         22    1    3    3    0    0 -0.33245543374E+02 -0.10285982145E+01  0.19239772687E+02  0.38425161308E+02  0.00000000000E+00 0.  1.
         22    1    3    3    0    0  0.75957136682E+02  0.11921514323E+03  0.15254971056E+02  0.14217753384E+03  0.00000000000E+00 0.  1.
</event>
<event>
 7    1  0.6330892E-006  0.4878898E+02  0.7818608E-02  0.1465085E+00
          2   -1    0    0  502    0  0.00000000000E+00  0.00000000000E+00  0.10642693280E+04  0.10642693280E+04  0.00000000000E+00 0. -1.
          1   -1    0    0  501    0 -0.00000000000E+00 -0.00000000000E+00 -0.14202941318E+04  0.14202941318E+04  0.00000000000E+00 0. -1.
         25    2    1    2    0    0 -0.67024968815E+02  0.38771338314E+02 -0.33047864895E+00  0.14704039414E+03  0.12500082069E+03 0.  0.
          2    1    1    2  501    0  0.48660502568E+02  0.15996845406E+01 -0.13456719662E+04  0.13465524290E+04  0.00000000000E+00 0. -1.
          1    1    1    2  502    0  0.18364466247E+02 -0.40371022854E+02  0.98997764104E+03  0.99097063673E+03  0.00000000000E+00 0. -1.
         22    1    3    3    0    0 -0.61019339515E+02 -0.36708932210E+02 -0.30139436546E+01  0.71274044050E+02  0.00000000000E+00 0. -1.
         22    1    3    3    0    0 -0.60056293000E+01  0.75480270523E+02  0.26834650056E+01  0.75766350090E+02  0.00000000000E+00 0. -1.
</event>
<event>
 7    1  0.6330892E-006  0.6127685E+02  0.7818608E-02  0.1443807E+00
          2   -1    0    0  502    0  0.00000000000E+00  0.00000000000E+00  0.15177063769E+04  0.15177063769E+04  0.00000000000E+00 0. -1.
          1   -1    0    0  501    0 -0.00000000000E+00 -0.00000000000E+00 -0.22242020415E+03  0.22242020415E+03  0.00000000000E+00 0. -1.
         25    2    1    2    0    0 -0.48678059909E+02 -0.54926997670E+02  0.13185142708E+02  0.14554951478E+03  0.12499713867E+03 0.  0.
          2    1    1    2  501    0  0.40848959649E+02 -0.58520804267E+01 -0.15284776618E+03  0.15832032079E+03  0.00000000000E+00 0. -1.
          1    1    1    2  502    0  0.78291002597E+01  0.60779078096E+02  0.14349487962E+04  0.14362567455E+04  0.00000000000E+00 0. -1.
         22    1    3    3    0    0 -0.40718771427E+02 -0.28471938259E+02  0.67969648540E+02  0.84193483937E+02  0.00000000000E+00 0. -1.
         22    1    3    3    0    0 -0.79592884813E+01 -0.26455059410E+02 -0.54784505832E+02  0.61356030843E+02  0.00000000000E+00 0. -1.
</event>
<event>
 7    1  0.6330892E-006  0.9474710E+02  0.7818608E-02  0.1342254E+00
          2   -1    0    0  502    0  0.00000000000E+00  0.00000000000E+00  0.32441192012E+04  0.32441192012E+04  0.00000000000E+00 0. -1.
          1   -1    0    0  501    0 -0.00000000000E+00 -0.00000000000E+00 -0.53943923445E+03  0.53943923445E+03  0.00000000000E+00 0. -1.
         25    2    1    2    0    0  0.76275466377E+02  0.12737556325E+03  0.71007480456E+03  0.73611788388E+03  0.12498331897E+03 0.  0.
          2    1    1    2  501    0 -0.29224661605E+02 -0.89818989334E+02 -0.52181787742E+03  0.53029749093E+03  0.00000000000E+00 0. -1.
          1    1    1    2  502    0 -0.47050804772E+02 -0.37556573913E+02  0.25164230396E+04  0.25171430608E+04  0.00000000000E+00 0. -1.
         22    1    3    3    0    0  0.54952488929E+01  0.90591562569E+01 -0.20306900167E+01  0.10788409263E+02  0.00000000000E+00 0. -1.
         22    1    3    3    0    0  0.70780217484E+02  0.11831640699E+03  0.71210549457E+03  0.72532947462E+03  0.00000000000E+00 0. -1.
</event>
<event>
 7    1  0.6330892E-006  0.1841154E+03  0.7818608E-02  0.1251852E+00
          2   -1    0    0  502    0  0.00000000000E+00  0.00000000000E+00  0.23738048294E+04  0.23738048294E+04  0.00000000000E+00 0. -1.
          1   -1    0    0  501    0 -0.00000000000E+00 -0.00000000000E+00 -0.18147107910E+04  0.18147107910E+04  0.00000000000E+00 0. -1.
         25    2    1    2    0    0  0.17994540235E+03  0.11140823338E+03 -0.18877929584E+03  0.30992836975E+03  0.12500331815E+03 0.  0.
          2    1    1    2  501    0 -0.17824613369E+03 -0.39791781595E+02 -0.15594720998E+04  0.15701300265E+04  0.00000000000E+00 0. -1.
          1    1    1    2  502    0 -0.16992686574E+01 -0.71616451780E+02  0.23073454341E+04  0.23084572241E+04  0.00000000000E+00 0. -1.
         22    1    3    3    0    0  0.14288766798E+03  0.13908393448E+03 -0.14897724397E+03  0.24890850871E+03  0.00000000000E+00 0. -1.
         22    1    3    3    0    0  0.37057734373E+02 -0.27675701101E+02 -0.39802051873E+02  0.61019861042E+02  0.00000000000E+00 0. -1.
</event>
<event>
 7    1  0.6330892E-006  0.1672728E+03  0.7818608E-02  0.1282270E+00
          2   -1    0    0  502    0  0.00000000000E+00  0.00000000000E+00  0.60064510187E+03  0.60064510187E+03  0.00000000000E+00 0. -1.
          1   -1    0    0  501    0 -0.00000000000E+00 -0.00000000000E+00 -0.36660745344E+03  0.36660745344E+03  0.00000000000E+00 0. -1.
         25    2    1    2    0    0 -0.19260606466E+03 -0.90085255074E+02  0.19717868020E+03  0.31577987508E+03  0.12500019302E+03 0.  0.
          2    1    1    2  501    0  0.52505101444E+02  0.26184798822E+02 -0.28696479053E+03  0.29290138336E+03  0.00000000000E+00 0. -1.
          1    1    1    2  502    0  0.14010096322E+03  0.63900456252E+02  0.32382375876E+03  0.35857129687E+03  0.00000000000E+00 0. -1.
         22    1    3    3    0    0 -0.14183445188E+02 -0.64935081538E+02  0.53244068168E+02  0.85162584078E+02  0.00000000000E+00 0.  1.
         22    1    3    3    0    0 -0.17842261947E+03 -0.25150173536E+02  0.14393461203E+03  0.23061729100E+03  0.00000000000E+00 0.  1.
</event>
<event>
 7    1  0.6330892E-006  0.1097744E+03  0.7818608E-02  0.1333646E+00
          2   -1    0    0  502    0  0.00000000000E+00  0.00000000000E+00  0.18030043401E+04  0.18030043401E+04  0.00000000000E+00 0. -1.
          1   -1    0    0  501    0 -0.00000000000E+00 -0.00000000000E+00 -0.23348328851E+04  0.23348328851E+04  0.00000000000E+00 0. -1.
         25    2    1    2    0    0 -0.13760266123E+03  0.90763686884E+02  0.54546365983E+03  0.58337787874E+03  0.12500642370E+03 0.  0.
          2    1    1    2  501    0  0.87059861664E+02 -0.66658967130E+02 -0.23139439820E+04  0.23165404355E+04  0.00000000000E+00 0. -1.
          1    1    1    2  502    0  0.50542799567E+02 -0.24104719754E+02  0.12366517771E+04  0.12379189109E+04  0.00000000000E+00 0. -1.
         22    1    3    3    0    0 -0.11040027414E+03  0.89755836550E+01  0.21495411171E+03  0.24181408515E+03  0.00000000000E+00 0.  1.
         22    1    3    3    0    0 -0.27202387088E+02  0.81788103229E+02  0.33050954812E+03  0.34156379359E+03  0.00000000000E+00 0.  1.
</event>
<event>
 7    1  0.6330892E-006  0.7119727E+02  0.7818608E-02  0.1434809E+00
          2   -1    0    0  502    0  0.00000000000E+00  0.00000000000E+00  0.67791121388E+03  0.67791121388E+03  0.00000000000E+00 0. -1.
          1   -1    0    0  501    0 -0.00000000000E+00 -0.00000000000E+00 -0.32484797807E+03  0.32484797807E+03  0.00000000000E+00 0. -1.
         25    2    1    2    0    0  0.98390544508E+02 -0.40481668814E+02  0.17944606995E+03  0.24319787513E+03  0.12499939876E+03 0.  0.
          2    1    1    2  501    0 -0.34777181726E+02  0.15287043629E+02 -0.28921492175E+03  0.29169918929E+03  0.00000000000E+00 0. -1.
          1    1    1    2  502    0 -0.63613362782E+02  0.25194625184E+02  0.46283208760E+03  0.46786212753E+03  0.00000000000E+00 0. -1.
         22    1    3    3    0    0  0.39204739801E+01 -0.27603851768E+02 -0.11194851780E+02  0.30044424692E+02  0.00000000000E+00 0.  1.
         22    1    3    3    0    0  0.94470070528E+02 -0.12877817045E+02  0.19064092173E+03  0.21315345044E+03  0.00000000000E+00 0.  1.
</event>
<event>
 7    1  0.6330892E-006  0.8572275E+02  0.7818608E-02  0.1391784E+00
          2   -1    0    0  502    0  0.00000000000E+00  0.00000000000E+00  0.15397686897E+03  0.15397686897E+03  0.00000000000E+00 0. -1.
          1   -1    0    0  501    0 -0.00000000000E+00 -0.00000000000E+00 -0.16452849792E+04  0.16452849792E+04  0.00000000000E+00 0. -1.
         25    2    1    2    0    0  0.83679211153E+02  0.32904138889E+02 -0.40363366953E+03  0.43200823498E+03  0.12500433264E+03 0.  0.
          2    1    1    2  501    0  0.15299041611E+01 -0.44045445262E+02 -0.12138193671E+04  0.12146191987E+04  0.00000000000E+00 0. -1.
          1    1    1    2  502    0 -0.85209115314E+02  0.11141306373E+02  0.12614492639E+03  0.15263441451E+03  0.00000000000E+00 0. -1.
         22    1    3    3    0    0  0.15835011438E+02 -0.45211215187E+02 -0.16720600374E+03  0.17393288721E+03  0.00000000000E+00 0.  1.
         22    1    3    3    0    0  0.67844199714E+02  0.78115354076E+02 -0.23642766579E+03  0.25807534777E+03  0.00000000000E+00 0.  1.
</event>
<event>
 7    1  0.6330892E-006  0.4905535E+02  0.7818608E-02  0.1494226E+00
          2   -1    0    0  502    0  0.00000000000E+00  0.00000000000E+00  0.65812593493E+03  0.65812593493E+03  0.00000000000E+00 0. -1.
          1   -1    0    0  501    0 -0.00000000000E+00 -0.00000000000E+00 -0.31755711781E+03  0.31755711781E+03  0.00000000000E+00 0. -1.
         25    2    1    2    0    0 -0.23820272261E+02 -0.17063234951E+02  0.95003260876E+02  0.15971830441E+03  0.12500303128E+03 0.  0.
          2    1    1    2  501    0  0.15585771230E+02 -0.32340851044E+02 -0.28288099632E+03  0.28514996929E+03  0.00000000000E+00 0. -1.
          1    1    1    2  502    0  0.82345010312E+01  0.49404085996E+02  0.52844655256E+03  0.53081477903E+03  0.00000000000E+00 0. -1.
         22    1    3    3    0    0 -0.37270659099E+00 -0.65161179091E+02  0.81841835400E+02  0.10461455058E+03  0.00000000000E+00 0. -1.
         22    1    3    3    0    0 -0.23447565670E+02  0.48097944139E+02  0.13161425475E+02  0.55103753836E+02  0.00000000000E+00 0. -1.
</event>
<event>
 7    1  0.6330892E-006  0.6781485E+02  0.7818608E-02  0.1469881E+00
          2   -1    0    0  502    0  0.00000000000E+00  0.00000000000E+00  0.10254528108E+04  0.10254528108E+04  0.00000000000E+00 0. -1.
          1   -1    0    0  501    0 -0.00000000000E+00 -0.00000000000E+00 -0.51179351404E+03  0.51179351404E+03  0.00000000000E+00 0. -1.
         25    2    1    2    0    0 -0.57802623917E+01  0.37356840375E+02  0.43866768693E+02  0.13776092801E+03  0.12499933974E+03 0.  0.
          2    1    1    2  501    0 -0.37702159345E+01  0.30595901907E+02 -0.46307373823E+03  0.46409870801E+03  0.00000000000E+00 0. -1.
          1    1    1    2  502    0  0.95504783261E+01 -0.67952742281E+02  0.93286626630E+03  0.93538668882E+03  0.00000000000E+00 0. -1.
         22    1    3    3    0    0  0.26474767246E+02 -0.37414228305E+02  0.12478293398E+01  0.45850789071E+02  0.00000000000E+00 0.  1.
         22    1    3    3    0    0 -0.32255029638E+02  0.74771068680E+02  0.42618939353E+02  0.91910138940E+02  0.00000000000E+00 0.  1.
</event>
<event>
 7    1  0.6330892E-006  0.9809529E+02  0.7818608E-02  0.1458470E+00
          2   -1    0    0  502    0  0.00000000000E+00  0.00000000000E+00  0.13234011646E+04  0.13234011646E+04  0.00000000000E+00 0. -1.
          1   -1    0    0  501    0 -0.00000000000E+00 -0.00000000000E+00 -0.15060946371E+03  0.15060946371E+03  0.00000000000E+00 0. -1.
         25    2    1    2    0    0  0.16487970911E+02 -0.11515349221E+03  0.16996660937E+03  0.24092584760E+03  0.12499774314E+03 0.  0.
          2    1    1    2  501    0 -0.30424276889E+01  0.96318254917E+02 -0.94821302848E+02  0.13519446021E+03  0.00000000000E+00 0. -1.
          1    1    1    2  502    0 -0.13445543222E+02  0.18835237290E+02  0.10976463944E+04  0.10978903205E+04  0.00000000000E+00 0. -1.
         22    1    3    3    0    0 -0.18981367586E+02 -0.43108044433E+02 -0.60185276648E+01  0.47484929036E+02  0.00000000000E+00 0.  1.
         22    1    3    3    0    0  0.35469338497E+02 -0.72045447774E+02  0.17598513704E+03  0.19344091857E+03  0.00000000000E+00 0.  1.
</event>
<event>
 7    1  0.6330892E-006  0.7305870E+02  0.7818608E-02  0.1456105E+00
          2   -1    0    0  502    0  0.00000000000E+00  0.00000000000E+00  0.53434066496E+03  0.53434066496E+03  0.00000000000E+00 0. -1.
          1   -1    0    0  501    0 -0.00000000000E+00 -0.00000000000E+00 -0.11203705784E+04  0.11203705784E+04  0.00000000000E+00 0. -1.
         25    2    1    2    0    0 -0.35179784545E+02  0.86510876492E+02 -0.69055372092E+03  0.70796254053E+03  0.12499907329E+03 0.  0.
          2    1    1    2  501    0  0.10773751366E+02 -0.66417855303E+02 -0.41794386298E+03  0.42332549867E+03  0.00000000000E+00 0. -1.
          1    1    1    2  502    0  0.24406033179E+02 -0.20093021188E+02  0.52246767047E+03  0.52342320415E+03  0.00000000000E+00 0. -1.
         22    1    3    3    0    0 -0.47704698326E+02  0.11520321465E+03 -0.55805113996E+03  0.57181167679E+03  0.00000000000E+00 0.  1.
         22    1    3    3    0    0  0.12524913781E+02 -0.28692338162E+02 -0.13250258097E+03  0.13615086374E+03  0.00000000000E+00 0.  1.
</event>
<event>
 7    1  0.6330892E-006  0.1418739E+03  0.7818608E-02  0.1286266E+00
          2   -1    0    0  502    0  0.00000000000E+00  0.00000000000E+00  0.15632238115E+04  0.15632238115E+04  0.00000000000E+00 0. -1.
          1   -1    0    0  501    0 -0.00000000000E+00 -0.00000000000E+00 -0.35704860517E+03  0.35704860517E+03  0.00000000000E+00 0. -1.
         25    2    1    2    0    0 -0.97782886514E+02 -0.13973806022E+03  0.57182689168E+03  0.60967122508E+03  0.12499916106E+03 0.  0.
          2    1    1    2  501    0 -0.16597645375E+02  0.64511683430E+02 -0.32996344974E+03  0.33662013798E+03  0.00000000000E+00 0. -1.
          1    1    1    2  502    0  0.11438053189E+03  0.75226376786E+02  0.96431176441E+03  0.97398105363E+03  0.00000000000E+00 0. -1.
         22    1    3    3    0    0 -0.31356851132E+02 -0.37352097147E+02  0.37442388722E+03  0.37758665044E+03  0.00000000000E+00 0. -1.
         22    1    3    3    0    0 -0.66426035382E+02 -0.10238596307E+03  0.19740300447E+03  0.23208457463E+03  0.00000000000E+00 0. -1.
</event>
<event>
 7    1  0.6330892E-006  0.7474728E+02  0.7818608E-02  0.1382224E+00
          2   -1    0    0  502    0  0.00000000000E+00  0.00000000000E+00  0.95378060583E+03  0.95378060583E+03  0.00000000000E+00 0. -1.
          1   -1    0    0  501    0 -0.00000000000E+00 -0.00000000000E+00 -0.20885844416E+03  0.20885844416E+03  0.00000000000E+00 0. -1.
         25    2    1    2    0    0 -0.58430498436E+02 -0.11539523674E+02  0.90037784300E+02  0.16516325157E+03  0.12499925325E+03 0.  0.
          2    1    1    2  501    0  0.16368795012E+02 -0.52085934012E+02 -0.16513006035E+03  0.17392187557E+03  0.00000000000E+00 0. -1.
          1    1    1    2  502    0  0.42061703424E+02  0.63625457686E+02  0.82001443773E+03  0.82355392285E+03  0.00000000000E+00 0. -1.
         22    1    3    3    0    0 -0.64432127941E+02 -0.63302763160E+01  0.11881482989E+03  0.13530903633E+03  0.00000000000E+00 0.  1.
         22    1    3    3    0    0  0.60016295051E+01 -0.52092473578E+01 -0.28777045591E+02  0.29854215242E+02  0.00000000000E+00 0.  1.
</event>
<event>
 7    1  0.6330892E-006  0.6606677E+02  0.7818608E-02  0.1476958E+00
          2   -1    0    0  502    0  0.00000000000E+00  0.00000000000E+00  0.25564249733E+04  0.25564249733E+04  0.00000000000E+00 0. -1.
          1   -1    0    0  501    0 -0.00000000000E+00 -0.00000000000E+00 -0.60303684716E+02  0.60303684716E+02  0.00000000000E+00 0. -1.
         25    2    1    2    0    0 -0.58345107169E+02  0.52706297515E+01  0.12559004333E+03  0.18662816022E+03  0.12500112054E+03 0.  0.
          2    1    1    2  501    0 -0.31752743233E+01 -0.29918137310E+02 -0.21609092771E+02  0.37042275814E+02  0.00000000000E+00 0. -1.
          1    1    1    2  502    0  0.61520381492E+02  0.24647507558E+02  0.23921403380E+04  0.23930582220E+04  0.00000000000E+00 0. -1.
         22    1    3    3    0    0  0.36998080818E+02  0.13450569959E+02  0.20100898710E+02  0.44202058158E+02  0.00000000000E+00 0. -1.
         22    1    3    3    0    0 -0.95343187986E+02 -0.81799402078E+01  0.10548914462E+03  0.14242610206E+03  0.00000000000E+00 0. -1.
</event>
<event>
 7    1  0.6330892E-006  0.9580203E+02  0.7818608E-02  0.1350357E+00
          2   -1    0    0  502    0  0.00000000000E+00  0.00000000000E+00  0.17654550136E+04  0.17654550136E+04  0.00000000000E+00 0. -1.
          1   -1    0    0  501    0 -0.00000000000E+00 -0.00000000000E+00 -0.12491006853E+03  0.12491006853E+03  0.00000000000E+00 0. -1.
         25    2    1    2    0    0  0.31024141374E+02 -0.27449980306E+02 -0.55444342723E+02  0.14287324580E+03  0.12499076149E+03 0.  0.
          2    1    1    2  501    0  0.34138157950E+02 -0.43810205064E+02  0.72702334248E+01  0.56014321294E+02  0.00000000000E+00 0. -1.
          1    1    1    2  502    0 -0.65162299324E+02  0.71260185370E+02  0.16887190544E+04  0.16914775151E+04  0.00000000000E+00 0. -1.
         22    1    3    3    0    0 -0.13402297273E+01 -0.54749191328E+02 -0.77683809503E+02  0.95047590320E+02  0.00000000000E+00 0.  1.
         22    1    3    3    0    0  0.32364371101E+02  0.27299211022E+02  0.22239466779E+02  0.47825655477E+02  0.00000000000E+00 0.  1.
</event>
<event>
 7    1  0.6330892E-006  0.1135547E+03  0.7818608E-02  0.1321386E+00
          2   -1    0    0  502    0  0.00000000000E+00  0.00000000000E+00  0.23457439181E+04  0.23457439181E+04  0.00000000000E+00 0. -1.
          1   -1    0    0  501    0 -0.00000000000E+00 -0.00000000000E+00 -0.44470424753E+03  0.44470424753E+03  0.00000000000E+00 0. -1.
         25    2    1    2    0    0 -0.16979625455E+03 -0.21613803438E+02  0.39819060379E+03  0.45108268682E+03  0.12498763477E+03 0.  0.
          2    1    1    2  501    0  0.11250907178E+03  0.27209229478E+01 -0.41020369204E+03  0.42536192074E+03  0.00000000000E+00 0. -1.
          1    1    1    2  502    0  0.57287182778E+02  0.18892880491E+02  0.19130527588E+04  0.19140035581E+04  0.00000000000E+00 0. -1.
         22    1    3    3    0    0 -0.10971303555E+03  0.43266368501E+02  0.17517634968E+03  0.21117689812E+03  0.00000000000E+00 0.  1.
         22    1    3    3    0    0 -0.60083219006E+02 -0.64880171940E+02  0.22301425410E+03  0.23990578869E+03  0.00000000000E+00 0.  1.
</event>
<event>
 7    1  0.6330892E-006  0.1675926E+03  0.7818608E-02  0.1211679E+00
          2   -1    0    0  502    0  0.00000000000E+00  0.00000000000E+00  0.20495166064E+04  0.20495166064E+04  0.00000000000E+00 0. -1.
          1   -1    0    0  501    0 -0.00000000000E+00 -0.00000000000E+00 -0.10816299613E+04  0.10816299613E+04  0.00000000000E+00 0. -1.
         25    2    1    2    0    0 -0.28523163572E+02 -0.80832326000E+02  0.17590989697E+01  0.15157616581E+03  0.12499921530E+03 0.  0.
          2    1    1    2  501    0  0.14575589185E+03  0.10138295080E+03 -0.99707692082E+03  0.10127614076E+04  0.00000000000E+00 0. -1.
          1    1    1    2  502    0 -0.11723272828E+03 -0.20550624796E+02  0.19632044669E+04  0.19668089942E+04  0.00000000000E+00 0. -1.
         22    1    3    3    0    0 -0.77771360769E+02 -0.58488646003E+02  0.46277057981E+01  0.97420336317E+02  0.00000000000E+00 0. -1.
         22    1    3    3    0    0  0.49248197197E+02 -0.22343679997E+02 -0.28686068283E+01  0.54155829493E+02  0.00000000000E+00 0. -1.
</event>
<event>
 7    1  0.6330892E-006  0.1296612E+03  0.7818608E-02  0.1347899E+00
          2   -1    0    0  502    0  0.00000000000E+00  0.00000000000E+00  0.57835301943E+03  0.57835301943E+03  0.00000000000E+00 0. -1.
          1   -1    0    0  501    0 -0.00000000000E+00 -0.00000000000E+00 -0.16285431688E+03  0.16285431688E+03  0.00000000000E+00 0. -1.
         25    2    1    2    0    0  0.98931615103E+02  0.49717300689E+01  0.78266160084E+02  0.17765942986E+03  0.12500039455E+03 0.  0.
          2    1    1    2  501    0  0.34237580736E+02  0.24166975442E+02 -0.98470494596E+02  0.10701725535E+03  0.00000000000E+00 0. -1.
          1    1    1    2  502    0 -0.13316919584E+03 -0.29138705511E+02  0.43570303707E+03  0.45653065109E+03  0.00000000000E+00 0. -1.
         22    1    3    3    0    0  0.12152016059E+03  0.12692857739E+01  0.31424239301E+02  0.12552387555E+03  0.00000000000E+00 0.  1.
         22    1    3    3    0    0 -0.22588545489E+02  0.37024442950E+01  0.46841920783E+02  0.52135554315E+02  0.00000000000E+00 0.  1.
</event>
<event>
 7    1  0.6330892E-006  0.1205229E+03  0.7818608E-02  0.1304598E+00
          2   -1    0    0  502    0  0.00000000000E+00  0.00000000000E+00  0.95268931385E+02  0.95268931385E+02  0.00000000000E+00 0. -1.
          1   -1    0    0  501    0 -0.00000000000E+00 -0.00000000000E+00 -0.13926550293E+04  0.13926550293E+04  0.00000000000E+00 0. -1.
         25    2    1    2    0    0  0.91753140320E+02 -0.14516881414E+03 -0.36690418954E+03  0.42395413254E+03  0.12500319531E+03 0.  0.
          2    1    1    2  501    0 -0.94734377169E+01  0.65458523485E+02 -0.94604913146E+03  0.94835833072E+03  0.00000000000E+00 0. -1.
          1    1    1    2  502    0 -0.82279702603E+02  0.79710290659E+02  0.15567223099E+02  0.11561149741E+03  0.00000000000E+00 0. -1.
         22    1    3    3    0    0  0.88651270365E+02 -0.12930304565E+03 -0.19007524721E+03  0.24638775325E+03  0.00000000000E+00 0.  1.
         22    1    3    3    0    0  0.31018699544E+01 -0.15865768495E+02 -0.17682894233E+03  0.17756637929E+03  0.00000000000E+00 0.  1.
</event>
<event>
 7    1  0.6330892E-006  0.1879060E+03  0.7818608E-02  0.1280101E+00
          2   -1    0    0  502    0  0.00000000000E+00  0.00000000000E+00  0.80277439064E+03  0.80277439064E+03  0.00000000000E+00 0. -1.
          1   -1    0    0  501    0 -0.00000000000E+00 -0.00000000000E+00 -0.14054246673E+04  0.14054246673E+04  0.00000000000E+00 0. -1.
         25    2    1    2    0    0 -0.41322873475E+02 -0.19296028007E+03  0.38606513491E+03  0.45123408860E+03  0.12499865907E+03 0.  0.
          2    1    1    2  501    0  0.52561801618E+02  0.89405231483E+01 -0.13501622475E+04  0.13512145539E+04  0.00000000000E+00 0. -1.
          1    1    1    2  502    0 -0.11238928142E+02  0.18401975692E+03  0.36144683594E+03  0.40575041547E+03  0.00000000000E+00 0. -1.
         22    1    3    3    0    0 -0.68331874328E+02 -0.17452764972E+03  0.37008294225E+03  0.41483795597E+03  0.00000000000E+00 0. -1.
         22    1    3    3    0    0  0.27009000852E+02 -0.18432630351E+02  0.15982192658E+02  0.36396132636E+02  0.00000000000E+00 0. -1.
</event>
<event>
 7    1  0.6330892E-006  0.1004822E+03  0.7818608E-02  0.1306943E+00
          2   -1    0    0  502    0  0.00000000000E+00  0.00000000000E+00  0.21905229581E+04  0.21905229581E+04  0.00000000000E+00 0. -1.
          1   -1    0    0  501    0 -0.00000000000E+00 -0.00000000000E+00 -0.66192931379E+03  0.66192931379E+03  0.00000000000E+00 0. -1.
         25    2    1    2    0    0  0.24099211593E+02 -0.84655044817E+02  0.54894658865E+02  0.16243693530E+03  0.12500034306E+03 0.  0.
          2    1    1    2  501    0 -0.77636321909E+02 -0.14846558736E+01 -0.60443778930E+03  0.60940515572E+03  0.00000000000E+00 0. -1.
          1    1    1    2  502    0  0.53537110316E+02  0.86139700690E+02  0.20781367748E+04  0.20806101809E+04  0.00000000000E+00 0. -1.
         22    1    3    3    0    0 -0.36030156005E+02 -0.47551790015E+02 -0.16593127661E+02  0.61924766943E+02  0.00000000000E+00 0.  1.
         22    1    3    3    0    0  0.60129367598E+02 -0.37103254802E+02  0.71487786526E+02  0.10051216835E+03  0.00000000000E+00 0.  1.
</event>
<event>
 7    1  0.6330892E-006  0.9898679E+02  0.7818608E-02  0.1288036E+00
          2   -1    0    0  502    0  0.00000000000E+00  0.00000000000E+00  0.97630710368E+03  0.97630710368E+03  0.00000000000E+00 0. -1.
          1   -1    0    0  501    0 -0.00000000000E+00 -0.00000000000E+00 -0.22999861937E+03  0.22999861937E+03  0.00000000000E+00 0. -1.
         25    2    1    2    0    0 -0.58245475910E+02  0.76114861904E+02 -0.60349542074E+02  0.16868196833E+03  0.12500212616E+03 0.  0.
          2    1    1    2  501    0  0.10839843442E+03  0.92260106391E+01 -0.86505871520E+02  0.13899138702E+03  0.00000000000E+00 0. -1.
          1    1    1    2  502    0 -0.50152958512E+02 -0.85340872543E+02  0.89316389790E+03  0.89863236770E+03  0.00000000000E+00 0. -1.
         22    1    3    3    0    0 -0.59222420455E+02 -0.18166136254E+02 -0.13508950187E+02  0.63401855857E+02  0.00000000000E+00 0. -1.
         22    1    3    3    0    0  0.97694454497E+00  0.94280998158E+02 -0.46840591887E+02  0.10528011247E+03  0.00000000000E+00 0. -1.
</event>
<event>
 7    1  0.6330892E-006  0.6991340E+02  0.7818608E-02  0.1430635E+00
          2   -1    0    0  502    0  0.00000000000E+00  0.00000000000E+00  0.11467454149E+04  0.11467454149E+04  0.00000000000E+00 0. -1.
          1   -1    0    0  501    0 -0.00000000000E+00 -0.00000000000E+00 -0.54040540241E+03  0.54040540241E+03  0.00000000000E+00 0. -1.
         25    2    1    2    0    0 -0.24655173985E+02  0.18143197833E+02 -0.10843764340E+03  0.16828735516E+03  0.12499943267E+03 0.  0.
          2    1    1    2  501    0 -0.36023027214E+02  0.17215284027E+02 -0.39994394306E+03  0.40193181273E+03  0.00000000000E+00 0. -1.
          1    1    1    2  502    0  0.60678201198E+02 -0.35358481860E+02  0.11147215989E+04  0.11169316494E+04  0.00000000000E+00 0. -1.
         22    1    3    3    0    0 -0.18554192527E+02  0.47747846290E+02  0.44537661289E+01  0.51419363263E+02  0.00000000000E+00 0.  1.
         22    1    3    3    0    0 -0.61009814581E+01 -0.29604648457E+02 -0.11289140952E+03  0.11686799189E+03  0.00000000000E+00 0.  1.
</event>
<event>
 7    1  0.6330892E-006  0.1367761E+03  0.7818608E-02  0.1281209E+00
          2   -1    0    0  502    0  0.00000000000E+00  0.00000000000E+00  0.31372365446E+04  0.31372365446E+04  0.00000000000E+00 0. -1.
          1   -1    0    0  501    0 -0.00000000000E+00 -0.00000000000E+00 -0.44732497895E+03  0.44732497895E+03  0.00000000000E+00 0. -1.
         25    2    1    2    0    0  0.14892330467E+03 -0.69575090040E+02 -0.60038707904E+02  0.21505405296E+03  0.12499902167E+03 0.  0.
          2    1    1    2  501    0 -0.84985882410E+02  0.10371310780E+03 -0.29481752085E+03  0.32387710562E+03  0.00000000000E+00 0. -1.
          1    1    1    2  502    0 -0.63937422264E+02 -0.34138017763E+02  0.30447677944E+04  0.30456303650E+04  0.00000000000E+00 0. -1.
         22    1    3    3    0    0  0.52098955204E+02  0.27441114434E+02  0.12173674122E+02  0.60129146313E+02  0.00000000000E+00 0. -1.
         22    1    3    3    0    0  0.96824349470E+02 -0.97016204474E+02 -0.72212382026E+02  0.15492490664E+03  0.00000000000E+00 0. -1.
</event>
<event>
 7    1  0.6330892E-006  0.7637678E+02  0.7818608E-02  0.1357068E+00
          2   -1    0    0  502    0  0.00000000000E+00  0.00000000000E+00  0.44425252814E+02  0.44425252814E+02  0.00000000000E+00 0. -1.
          1   -1    0    0  501    0 -0.00000000000E+00 -0.00000000000E+00 -0.27033711873E+04  0.27033711873E+04  0.00000000000E+00 0. -1.
         25    2    1    2    0    0 -0.57058797996E+02 -0.50946931844E+02 -0.11447538429E+04  0.11540960133E+04  0.12499980326E+03 0.  0.
          2    1    1    2  501    0  0.60342997966E+02 -0.26263809541E+02 -0.15149870478E+04  0.15164157808E+04  0.00000000000E+00 0. -1.
          1    1    1    2  502    0 -0.32841999700E+01  0.77210741385E+02  0.79495625123E+00  0.77284646018E+02  0.00000000000E+00 0. -1.
         22    1    3    3    0    0 -0.36436457848E+02 -0.50698763336E+02 -0.11205886002E+04  0.11223265082E+04  0.00000000000E+00 0. -1.
         22    1    3    3    0    0 -0.20622340148E+02 -0.24816850818E+00 -0.24165242644E+02  0.31769505077E+02  0.00000000000E+00 0. -1.
</event>
<event>
 7    1  0.6330892E-006  0.7673176E+02  0.7818608E-02  0.1351311E+00
          2   -1    0    0  502    0  0.00000000000E+00  0.00000000000E+00  0.45050186878E+03  0.45050186878E+03  0.00000000000E+00 0. -1.
          1   -1    0    0  501    0 -0.00000000000E+00 -0.00000000000E+00 -0.21055731544E+03  0.21055731544E+03  0.00000000000E+00 0. -1.
         25    2    1    2    0    0  0.64627643285E+01  0.13283922833E+02  0.69900217585E+02  0.14397568444E+03  0.12499890944E+03 0.  0.
          2    1    1    2  501    0 -0.57973554231E+02 -0.58865751498E+02 -0.15993333867E+03  0.18001328426E+03  0.00000000000E+00 0. -1.
          1    1    1    2  502    0  0.51510789903E+02  0.45581828666E+02  0.32997767442E+03  0.33707021553E+03  0.00000000000E+00 0. -1.
         22    1    3    3    0    0 -0.11990080582E+02  0.43590670804E+02 -0.18401893369E+02  0.48811251706E+02  0.00000000000E+00 0. -1.
         22    1    3    3    0    0  0.18452844911E+02 -0.30306747971E+02  0.88302110954E+02  0.95164432730E+02  0.00000000000E+00 0. -1.
</event>
<event>
 7    1  0.6330892E-006  0.7531886E+02  0.7818608E-02  0.1484864E+00
          2   -1    0    0  502    0  0.00000000000E+00  0.00000000000E+00  0.72074666200E+03  0.72074666200E+03  0.00000000000E+00 0. -1.
          1   -1    0    0  501    0 -0.00000000000E+00 -0.00000000000E+00 -0.26355591264E+03  0.26355591264E+03  0.00000000000E+00 0. -1.
         25    2    1    2    0    0  0.82408711934E+02 -0.31504346394E+02  0.23404409493E+03  0.27961150737E+03  0.12498894766E+03 0.  0.
          2    1    1    2  501    0 -0.60823735869E+02  0.44035456785E+02 -0.23456918189E+03  0.24629524841E+03  0.00000000000E+00 0. -1.
          1    1    1    2  502    0 -0.21584976066E+02 -0.12531110391E+02  0.45771583632E+03  0.45839581885E+03  0.00000000000E+00 0. -1.
         22    1    3    3    0    0  0.10730792964E+01 -0.61200791674E+02  0.62655712912E+02  0.87592389859E+02  0.00000000000E+00 0. -1.
         22    1    3    3    0    0  0.81335632638E+02  0.29696445280E+02  0.17138838202E+03  0.19201911751E+03  0.00000000000E+00 0. -1.
</event>
<event>
 7    1  0.6330892E-006  0.5649531E+02  0.7818608E-02  0.1505827E+00
          2   -1    0    0  502    0  0.00000000000E+00  0.00000000000E+00  0.49407477597E+03  0.49407477597E+03  0.00000000000E+00 0. -1.
          1   -1    0    0  501    0 -0.00000000000E+00 -0.00000000000E+00 -0.84675661724E+03  0.84675661724E+03  0.00000000000E+00 0. -1.
         25    2    1    2    0    0 -0.74685866497E+02 -0.11619196248E+02 -0.63470349035E+03  0.65129265434E+03  0.12498246502E+03 0.  0.
          2    1    1    2  501    0  0.49778495029E+02 -0.28083913329E+01 -0.20027310039E+03  0.20638580467E+03  0.00000000000E+00 0. -1.
          1    1    1    2  502    0  0.24907371467E+02  0.14427587581E+02  0.48229474949E+03  0.48315293419E+03  0.00000000000E+00 0. -1.
         22    1    3    3    0    0  0.11368200024E+02 -0.30034028100E+02 -0.38866584218E+03  0.38999027641E+03  0.00000000000E+00 0.  1.
         22    1    3    3    0    0 -0.86054066520E+02  0.18414831852E+02 -0.24603764817E+03  0.26130237793E+03  0.00000000000E+00 0.  1.
</event>
<event>
 7    1  0.6330892E-006  0.1203718E+03  0.7818608E-02  0.1284455E+00
          2   -1    0    0  502    0  0.00000000000E+00  0.00000000000E+00  0.23677199387E+04  0.23677199387E+04  0.00000000000E+00 0. -1.
          1   -1    0    0  501    0 -0.00000000000E+00 -0.00000000000E+00 -0.61854147761E+03  0.61854147761E+03  0.00000000000E+00 0. -1.
         25    2    1    2    0    0  0.26604333961E+02  0.59996604735E+02 -0.35863587995E+03  0.38541968642E+03  0.12498502761E+03 0.  0.
          2    1    1    2  501    0 -0.55884217199E+02  0.57054494873E+02 -0.23845410380E+03  0.25147290259E+03  0.00000000000E+00 0. -1.
          1    1    1    2  502    0  0.29279883239E+02 -0.11705109961E+03  0.23462684449E+04  0.23493688274E+04  0.00000000000E+00 0. -1.
         22    1    3    3    0    0  0.37138308343E+02  0.68044414528E+02 -0.10040214704E+03  0.12684592002E+03  0.00000000000E+00 0. -1.
         22    1    3    3    0    0 -0.10533974382E+02 -0.80478097936E+01 -0.25823373290E+03  0.25857376640E+03  0.00000000000E+00 0. -1.
</event>
<event>
 7    1  0.6330892E-006  0.9597450E+02  0.7818608E-02  0.1319241E+00
          2   -1    0    0  502    0  0.00000000000E+00  0.00000000000E+00  0.31431708346E+04  0.31431708346E+04  0.00000000000E+00 0. -1.
          1   -1    0    0  501    0 -0.00000000000E+00 -0.00000000000E+00 -0.88075557387E+02  0.88075557387E+02  0.00000000000E+00 0. -1.
         25    2    1    2    0    0  0.60095294932E+02  0.27295673741E+02  0.33731893546E+03  0.36573835546E+03  0.12499592857E+03 0.  0.
          2    1    1    2  501    0 -0.93687106678E+02  0.37236895129E+02 -0.38761199957E+02  0.10801060568E+03  0.00000000000E+00 0. -1.
          1    1    1    2  502    0  0.33591811746E+02 -0.64532568871E+02  0.27565375417E+04  0.27574974308E+04  0.00000000000E+00 0. -1.
         22    1    3    3    0    0  0.64732286328E+02  0.43447489004E+02  0.95252589986E+02  0.12308943534E+03  0.00000000000E+00 0. -1.
         22    1    3    3    0    0 -0.46369913957E+01 -0.16151815262E+02  0.24206634547E+03  0.24264892012E+03  0.00000000000E+00 0. -1.
</event>
<event>
 7    1  0.6330892E-006  0.4714526E+02  0.7818608E-02  0.1497637E+00
          2   -1    0    0  502    0  0.00000000000E+00  0.00000000000E+00  0.96854836951E+03  0.96854836951E+03  0.00000000000E+00 0. -1.
          1   -1    0    0  501    0 -0.00000000000E+00 -0.00000000000E+00 -0.16795018492E+03  0.16795018492E+03  0.00000000000E+00 0. -1.
         25    2    1    2    0    0  0.18977096089E+02 -0.69703218216E+02  0.42224735808E+03  0.44624508890E+03  0.12499271644E+03 0.  0.
          2    1    1    2  501    0  0.88878962308E+01  0.46151505767E+02 -0.15176891266E+03  0.15887969988E+03  0.00000000000E+00 0. -1.
          1    1    1    2  502    0 -0.27864992320E+02  0.23551712449E+02  0.53011973917E+03  0.53137376564E+03  0.00000000000E+00 0. -1.
         22    1    3    3    0    0  0.26049046071E+02  0.28227566868E+02  0.19414843106E+03  0.19791149946E+03  0.00000000000E+00 0. -1.
         22    1    3    3    0    0 -0.70719499820E+01 -0.97930785084E+02  0.22809892701E+03  0.24833358945E+03  0.00000000000E+00 0. -1.
</event>
<event>
 7    1  0.6330892E-006  0.9389563E+02  0.7818608E-02  0.1403760E+00
          2   -1    0    0  502    0  0.00000000000E+00  0.00000000000E+00  0.95629651680E+03  0.95629651680E+03  0.00000000000E+00 0. -1.
          1   -1    0    0  501    0 -0.00000000000E+00 -0.00000000000E+00 -0.39890700036E+03  0.39890700036E+03  0.00000000000E+00 0. -1.
         25    2    1    2    0    0 -0.10951755858E+03 -0.42838288277E+02 -0.22796218614E+03  0.28534355689E+03  0.12499989028E+03 0.  0.
          2    1    1    2  501    0  0.81796882011E+02  0.18964016794E+02 -0.12946614922E+03  0.15431087983E+03  0.00000000000E+00 0. -1.
          1    1    1    2  502    0  0.27720676566E+02  0.23874271482E+02  0.91481785180E+03  0.91554908045E+03  0.00000000000E+00 0. -1.
         22    1    3    3    0    0 -0.98477129861E+02  0.54445514565E+01 -0.73128485169E+02  0.12278095776E+03  0.00000000000E+00 0.  1.
         22    1    3    3    0    0 -0.11040428716E+02 -0.48282839733E+02 -0.15483370097E+03  0.16256259912E+03  0.00000000000E+00 0.  1.
</event>
<event>
 7    1  0.6330892E-006  0.4665168E+02  0.7818608E-02  0.1471043E+00
          2   -1    0    0  502    0  0.00000000000E+00  0.00000000000E+00  0.10072433597E+04  0.10072433597E+04  0.00000000000E+00 0. -1.
          1   -1    0    0  501    0 -0.00000000000E+00 -0.00000000000E+00 -0.46213607950E+03  0.46213607950E+03  0.00000000000E+00 0. -1.
         25    2    1    2    0    0  0.74907493215E+02 -0.21395867992E+02  0.37880412990E+03  0.40643071500E+03  0.12499776622E+03 0.  0.
          2    1    1    2  501    0 -0.32196090150E+02  0.33672696458E+02 -0.44630538407E+03  0.44873035841E+03  0.00000000000E+00 0. -1.
          1    1    1    2  502    0 -0.42711403065E+02 -0.12276828466E+02  0.61260853439E+03  0.61421836579E+03  0.00000000000E+00 0. -1.
         22    1    3    3    0    0  0.88862003368E+01  0.43437608676E+01 -0.82890137288E+01  0.12905059608E+02  0.00000000000E+00 0. -1.
         22    1    3    3    0    0  0.66021292879E+02 -0.25739628859E+02  0.38709314363E+03  0.39352565539E+03  0.00000000000E+00 0. -1.
</event>
<event>
 7    1  0.6330892E-006  0.5786438E+02  0.7818608E-02  0.1480704E+00
          2   -1    0    0  502    0  0.00000000000E+00  0.00000000000E+00  0.18048828641E+03  0.18048828641E+03  0.00000000000E+00 0. -1.
          1   -1    0    0  501    0 -0.00000000000E+00 -0.00000000000E+00 -0.12869789289E+04  0.12869789289E+04  0.00000000000E+00 0. -1.
         25    2    1    2    0    0  0.71086894981E+01 -0.32453651032E+02  0.85563278321E+01  0.12962288752E+03  0.12500043716E+03 0.  0.
          2    1    1    2  501    0  0.28058598330E+02 -0.18215013480E+02 -0.12176612719E+04  0.12181207020E+04  0.00000000000E+00 0. -1.
          1    1    1    2  502    0 -0.35167287828E+02  0.50668664512E+02  0.10261430153E+03  0.11972362580E+03  0.00000000000E+00 0. -1.
         22    1    3    3    0    0  0.12958692566E+02 -0.27258856236E+02 -0.56522090218E+02  0.64075889685E+02  0.00000000000E+00 0. -1.
         22    1    3    3    0    0 -0.58500030682E+01 -0.51947947969E+01  0.65078418050E+02  0.65546997832E+02  0.00000000000E+00 0. -1.
</event>
<event>
 7    1  0.6330892E-006  0.9067660E+02  0.7818608E-02  0.1330831E+00
          2   -1    0    0  502    0  0.00000000000E+00  0.00000000000E+00  0.18483061945E+04  0.18483061945E+04  0.00000000000E+00 0. -1.
          1   -1    0    0  501    0 -0.00000000000E+00 -0.00000000000E+00 -0.41097289321E+03  0.41097289321E+03  0.00000000000E+00 0. -1.
         25    2    1    2    0    0  0.67142920581E+01  0.10572010987E+03 -0.56805803230E+02  0.17341667850E+03  0.12499848701E+03 0.  0.
          2    1    1    2  501    0 -0.63612160390E+02 -0.65837254717E+02 -0.28808652274E+03  0.30228280739E+03  0.00000000000E+00 0. -1.
          1    1    1    2  502    0  0.56897868332E+02 -0.39882855149E+02  0.17822256273E+04  0.17835796018E+04  0.00000000000E+00 0. -1.
         22    1    3    3    0    0  0.14197925147E+02  0.83133763356E+02 -0.95863755837E+02  0.12768188349E+03  0.00000000000E+00 0.  1.
         22    1    3    3    0    0 -0.74836330889E+01  0.22586346510E+02  0.39057952607E+02  0.45734795011E+02  0.00000000000E+00 0.  1.
</event>
<event>
 7    1  0.6330892E-006  0.1397380E+03  0.7818608E-02  0.1374353E+00
          2   -1    0    0  502    0  0.00000000000E+00  0.00000000000E+00  0.52917873972E+03  0.52917873972E+03  0.00000000000E+00 0. -1.
          1   -1    0    0  501    0 -0.00000000000E+00 -0.00000000000E+00 -0.24247895053E+04  0.24247895053E+04  0.00000000000E+00 0. -1.
         25    2    1    2    0    0 -0.12215488407E+03  0.48876245196E+02 -0.11072303660E+04  0.11220048046E+04  0.12499998029E+03 0.  0.
          2    1    1    2  501    0 -0.15920144737E+02 -0.26769600433E+02 -0.13006137307E+04  0.13009866022E+04  0.00000000000E+00 0. -1.
          1    1    1    2  502    0  0.13807502881E+03 -0.22106644763E+02  0.51223333110E+03  0.53097683830E+03  0.00000000000E+00 0. -1.
         22    1    3    3    0    0 -0.86485651557E+02 -0.31594301437E+02 -0.63503425806E+03  0.64167474371E+03  0.00000000000E+00 0. -1.
         22    1    3    3    0    0 -0.35669232513E+02  0.80470546634E+02 -0.47219610791E+03  0.48033006085E+03  0.00000000000E+00 0. -1.
</event>
<event>
 7    1  0.6330892E-006  0.4592731E+02  0.7818608E-02  0.1544200E+00
          2   -1    0    0  502    0  0.00000000000E+00  0.00000000000E+00  0.27772079207E+03  0.27772079207E+03  0.00000000000E+00 0. -1.
          1   -1    0    0  501    0 -0.00000000000E+00 -0.00000000000E+00 -0.24008827581E+03  0.24008827581E+03  0.00000000000E+00 0. -1.
         25    2    1    2    0    0  0.27623335706E+02 -0.55932833667E+02  0.18633322174E+02  0.14093806258E+03  0.12499922492E+03 0.  0.
          2    1    1    2  501    0 -0.34714008056E+02  0.29423880861E+02 -0.17506170288E+03  0.18087959237E+03  0.00000000000E+00 0. -1.
          1    1    1    2  502    0  0.70906723507E+01  0.26508952806E+02  0.19406089696E+03  0.19599141293E+03  0.00000000000E+00 0. -1.
         22    1    3    3    0    0  0.65533359618E+02 -0.18832437843E+02  0.45006592845E+02  0.81699910266E+02  0.00000000000E+00 0. -1.
         22    1    3    3    0    0 -0.37910023913E+02 -0.37100395824E+02 -0.26373270672E+02  0.59238152312E+02  0.00000000000E+00 0. -1.
</event>
<event>
 7    1  0.6330892E-006  0.3865895E+02  0.7818608E-02  0.1522450E+00
          2   -1    0    0  502    0  0.00000000000E+00  0.00000000000E+00  0.13575972385E+04  0.13575972385E+04  0.00000000000E+00 0. -1.
          1   -1    0    0  501    0 -0.00000000000E+00 -0.00000000000E+00 -0.63205016236E+03  0.63205016236E+03  0.00000000000E+00 0. -1.
         25    2    1    2    0    0  0.85060544545E+01 -0.21532407083E+02  0.53079045329E+01  0.12722839855E+03  0.12499157584E+03 0.  0.
          2    1    1    2  501    0  0.30291734588E+02  0.22285075584E+02 -0.57017884556E+03  0.57141764910E+03  0.00000000000E+00 0. -1.
          1    1    1    2  502    0 -0.38797789042E+02 -0.75266850125E+00  0.12904180172E+04  0.12910013532E+04  0.00000000000E+00 0. -1.
         22    1    3    3    0    0 -0.38608838376E+02  0.35895061473E+02  0.49170409473E+01  0.52945964252E+02  0.00000000000E+00 0. -1.
         22    1    3    3    0    0  0.47114892830E+02 -0.57427468555E+02  0.39086358564E+00  0.74282434299E+02  0.00000000000E+00 0. -1.
</event>
<event>
 7    1  0.6330892E-006  0.1017957E+03  0.7818608E-02  0.1306407E+00
          2   -1    0    0  502    0  0.00000000000E+00  0.00000000000E+00  0.19805167894E+04  0.19805167894E+04  0.00000000000E+00 0. -1.
          1   -1    0    0  501    0 -0.00000000000E+00 -0.00000000000E+00 -0.74951758654E+03  0.74951758654E+03  0.00000000000E+00 0. -1.
         25    2    1    2    0    0  0.82992646459E+02  0.66890066595E+02 -0.78489888030E+02  0.18206010990E+03  0.12499264265E+03 0.  0.
          2    1    1    2  501    0 -0.10335720071E+03  0.73931875761E+01 -0.61413157877E+03  0.62281214360E+03  0.00000000000E+00 0. -1.
          1    1    1    2  502    0  0.20364554256E+02 -0.74283254172E+02  0.19236206696E+04  0.19251621224E+04  0.00000000000E+00 0. -1.
         22    1    3    3    0    0  0.41750699455E+02  0.85533743847E+02 -0.94429765680E+02  0.13407506438E+03  0.00000000000E+00 0.  1.
         22    1    3    3    0    0  0.41241947004E+02 -0.18643677251E+02  0.15939877650E+02  0.47985045521E+02  0.00000000000E+00 0.  1.
</event>
<event>
 7    1  0.7249235E-006  0.1924975E+03  0.7818608E-02  0.1336009E+00
          2   -1    0    0  502    0  0.00000000000E+00  0.00000000000E+00  0.13956920719E+04  0.13956920719E+04  0.00000000000E+00 0. -1.
          1   -1    0    0  501    0 -0.00000000000E+00 -0.00000000000E+00 -0.16142187804E+04  0.16142187804E+04  0.00000000000E+00 0. -1.
         25    2    1    2    0    0 -0.84918946086E+02 -0.20147250818E+03 -0.76146049399E+03  0.80202859494E+03  0.12500153697E+03 0.  0.
          2    1    1    2  501    0 -0.40538292215E+01  0.31016977864E+02 -0.82545649756E+03  0.82604897906E+03  0.00000000000E+00 0. -1.
          1    1    1    2  502    0  0.88972775307E+02  0.17045553031E+03  0.13683902830E+04  0.13818332783E+04  0.00000000000E+00 0. -1.
         22    1    3    3    0    0 -0.15582425762E+02 -0.15575614531E+03 -0.60464100883E+03  0.62457468597E+03  0.00000000000E+00 0.  1.
         22    1    3    3    0    0 -0.69336520324E+02 -0.45716362862E+02 -0.15681948516E+03  0.17745390897E+03  0.00000000000E+00 0.  1.
</event>
<event>
 7    1  0.6330892E-006  0.8897664E+02  0.7818608E-02  0.1425867E+00
          2   -1    0    0  502    0  0.00000000000E+00  0.00000000000E+00  0.43738754428E+03  0.43738754428E+03  0.00000000000E+00 0. -1.
          1   -1    0    0  501    0 -0.00000000000E+00 -0.00000000000E+00 -0.13396919751E+04  0.13396919751E+04  0.00000000000E+00 0. -1.
         25    2    1    2    0    0 -0.45725356161E+01  0.82412028729E+02 -0.33867057228E+03  0.37031655145E+03  0.12499576470E+03 0.  0.
          2    1    1    2  501    0 -0.27745320555E+02 -0.86109874839E+02 -0.98248955963E+03  0.98664606022E+03  0.00000000000E+00 0. -1.
          1    1    1    2  502    0  0.32317856171E+02  0.36978461094E+01  0.41885570104E+03  0.42011690776E+03  0.00000000000E+00 0. -1.
         22    1    3    3    0    0 -0.18177008839E+01  0.55610191632E+02 -0.33883509799E+03  0.34337300575E+03  0.00000000000E+00 0. -1.
         22    1    3    3    0    0 -0.27548347322E+01  0.26801837098E+02  0.16452571499E+00  0.26943545701E+02  0.00000000000E+00 0. -1.
</event>
<event>
 7    1  0.6330892E-006  0.1864379E+03  0.7818608E-02  0.1249804E+00
          2   -1    0    0  502    0  0.00000000000E+00  0.00000000000E+00  0.26206622324E+04  0.26206622324E+04  0.00000000000E+00 0. -1.
          1   -1    0    0  501    0 -0.00000000000E+00 -0.00000000000E+00 -0.18967090767E+03  0.18967090767E+03  0.00000000000E+00 0. -1.
         25    2    1    2    0    0  0.11650077962E+03 -0.13810739770E+03  0.68454078347E+03  0.71893476405E+03  0.12500010306E+03 0.  0.
          2    1    1    2  501    0 -0.56961056867E+02  0.17895378280E+03 -0.12044609590E+03  0.22310598467E+03  0.00000000000E+00 0. -1.
          1    1    1    2  502    0 -0.59539722758E+02 -0.40846385098E+02  0.18668966372E+04  0.18682923914E+04  0.00000000000E+00 0. -1.
         22    1    3    3    0    0  0.55160714023E+01 -0.76113785037E+02  0.40104168762E+03  0.40823788473E+03  0.00000000000E+00 0. -1.
         22    1    3    3    0    0  0.11098470822E+03 -0.61993612666E+02  0.28349909585E+03  0.31069687932E+03  0.00000000000E+00 0. -1.
</event>
<event>
 7    1  0.6330892E-006  0.9218218E+02  0.7818608E-02  0.1355934E+00
          2   -1    0    0  502    0  0.00000000000E+00  0.00000000000E+00  0.12715354289E+04  0.12715354289E+04  0.00000000000E+00 0. -1.
          1   -1    0    0  501    0 -0.00000000000E+00 -0.00000000000E+00 -0.29396772749E+02  0.29396772749E+02  0.00000000000E+00 0. -1.
         25    2    1    2    0    0 -0.18677021468E+02  0.52582606156E+02  0.48369624053E+03  0.50269284835E+03  0.12499714029E+03 0.  0.
          2    1    1    2  501    0  0.64451651308E+01  0.54673455426E+02  0.31707013324E+02  0.63530005318E+02  0.00000000000E+00 0. -1.
          1    1    1    2  502    0  0.12231856337E+02 -0.10725606158E+03  0.72673540226E+03  0.73470934794E+03  0.00000000000E+00 0. -1.
         22    1    3    3    0    0 -0.22311994003E+01  0.70183876258E+02  0.46952092954E+03  0.47474272824E+03  0.00000000000E+00 0.  1.
         22    1    3    3    0    0 -0.16445822067E+02 -0.17601270102E+02  0.14175310985E+02  0.27950120111E+02  0.00000000000E+00 0.  1.
</event>
<event>
 7    1  0.6330892E-006  0.1432662E+03  0.7818608E-02  0.1221687E+00
          2   -1    0    0  502    0  0.00000000000E+00  0.00000000000E+00  0.12244682953E+04  0.12244682953E+04  0.00000000000E+00 0. -1.
          1   -1    0    0  501    0 -0.00000000000E+00 -0.00000000000E+00 -0.13613979050E+03  0.13613979050E+03  0.00000000000E+00 0. -1.
         25    2    1    2    0    0  0.12967300027E+03 -0.21266317246E+03  0.87014070191E+03  0.91367934919E+03  0.12499760034E+03 0.  0.
          2    1    1    2  501    0 -0.10506143971E+03  0.89835125115E+02 -0.53127312889E+02  0.14809040209E+03  0.00000000000E+00 0. -1.
          1    1    1    2  502    0 -0.24611560561E+02  0.12282804734E+03  0.27131511582E+03  0.29883833456E+03  0.00000000000E+00 0. -1.
         22    1    3    3    0    0  0.91131016113E+02 -0.13772219077E+03  0.35302566828E+03  0.38974271821E+03  0.00000000000E+00 0. -1.
         22    1    3    3    0    0  0.38541984154E+02 -0.74940981687E+02  0.51711503363E+03  0.52393663098E+03  0.00000000000E+00 0. -1.
</event>
<event>
 7    1  0.6330892E-006  0.6758618E+02  0.7818608E-02  0.1507081E+00
          2   -1    0    0  502    0  0.00000000000E+00  0.00000000000E+00  0.49983437807E+03  0.49983437807E+03  0.00000000000E+00 0. -1.
          1   -1    0    0  501    0 -0.00000000000E+00 -0.00000000000E+00 -0.12478545657E+04  0.12478545657E+04  0.00000000000E+00 0. -1.
         25    2    1    2    0    0  0.41574984199E+02  0.78216761880E+02  0.21181285562E+03  0.26141157877E+03  0.12499994624E+03 0.  0.
          2    1    1    2  501    0 -0.22755111193E+02 -0.63556410493E+02 -0.12215808222E+04  0.12234446933E+04  0.00000000000E+00 0. -1.
          1    1    1    2  502    0 -0.18819873006E+02 -0.14660351387E+02  0.26174777896E+03  0.26283267170E+03  0.00000000000E+00 0. -1.
         22    1    3    3    0    0  0.11598315138E+02  0.93610857085E+02  0.74999083760E+02  0.12050882143E+03  0.00000000000E+00 0.  1.
         22    1    3    3    0    0  0.29976669061E+02 -0.15394095204E+02  0.13681377186E+03  0.14090275734E+03  0.00000000000E+00 0.  1.
</event>
<event>
 7    1  0.6330892E-006  0.5357079E+02  0.7818608E-02  0.1427207E+00
          2   -1    0    0  502    0  0.00000000000E+00  0.00000000000E+00  0.69171335594E+03  0.69171335594E+03  0.00000000000E+00 0. -1.
          1   -1    0    0  501    0 -0.00000000000E+00 -0.00000000000E+00 -0.92990794763E+02  0.92990794763E+02  0.00000000000E+00 0. -1.
         25    2    1    2    0    0  0.34087535103E+01  0.96268165359E+00  0.13626908057E+03  0.18495036597E+03  0.12499931678E+03 0.  0.
          2    1    1    2  501    0  0.41992078928E+02  0.33115349892E+02 -0.56446939245E+02  0.77757430778E+02  0.00000000000E+00 0. -1.
          1    1    1    2  502    0 -0.45400832438E+02 -0.34078031545E+02  0.51890041985E+03  0.52199635395E+03  0.00000000000E+00 0. -1.
         22    1    3    3    0    0 -0.58069118685E+02  0.33044273152E+01  0.93166806300E+02  0.10983166930E+03  0.00000000000E+00 0.  1.
         22    1    3    3    0    0  0.61477872195E+02 -0.23417456616E+01  0.43102274271E+02  0.75118696672E+02  0.00000000000E+00 0.  1.
</event>
<event>
 7    1  0.6330892E-006  0.5465892E+02  0.7818608E-02  0.1423593E+00
          2   -1    0    0  502    0  0.00000000000E+00  0.00000000000E+00  0.34562644464E+03  0.34562644464E+03  0.00000000000E+00 0. -1.
          1   -1    0    0  501    0 -0.00000000000E+00 -0.00000000000E+00 -0.24603564153E+04  0.24603564153E+04  0.00000000000E+00 0. -1.
         25    2    1    2    0    0 -0.23700620811E+01 -0.76323953483E+01 -0.11317920840E+03  0.16881356739E+03  0.12499846666E+03 0.  0.
          2    1    1    2  501    0 -0.51150022290E+02  0.19268436767E+02 -0.23166755287E+04  0.23173202418E+04  0.00000000000E+00 0. -1.
          1    1    1    2  502    0  0.53520084371E+02 -0.11636041419E+02  0.31512476644E+03  0.31984905083E+03  0.00000000000E+00 0. -1.
         22    1    3    3    0    0  0.44073613219E+02  0.38449458225E+02 -0.41194889036E+02  0.71539241698E+02  0.00000000000E+00 0.  1.
         22    1    3    3    0    0 -0.46443675301E+02 -0.46081853574E+02 -0.71984319361E+02  0.97274325688E+02  0.00000000000E+00 0.  1.
</event>
<event>
 7    1  0.6330892E-006  0.1558153E+03  0.7818608E-02  0.1296798E+00
          2   -1    0    0  502    0  0.00000000000E+00  0.00000000000E+00  0.58980962635E+03  0.58980962635E+03  0.00000000000E+00 0. -1.
          1   -1    0    0  501    0 -0.00000000000E+00 -0.00000000000E+00 -0.19284093721E+04  0.19284093721E+04  0.00000000000E+00 0. -1.
         25    2    1    2    0    0  0.18580247756E+03 -0.44147070203E+01  0.94114393884E+02  0.24294989815E+03  0.12500033427E+03 0.  0.
          2    1    1    2  501    0 -0.40423026773E+02 -0.37250026232E+02 -0.18399954441E+04  0.18408163461E+04  0.00000000000E+00 0. -1.
          1    1    1    2  502    0 -0.14537945079E+03  0.41664733253E+02  0.40728130447E+03  0.43445275425E+03  0.00000000000E+00 0. -1.
         22    1    3    3    0    0  0.12440177610E+02  0.15599691737E+02 -0.24757504473E+02  0.31796893386E+02  0.00000000000E+00 0.  1.
         22    1    3    3    0    0  0.17336229995E+03 -0.20014398757E+02  0.11887189836E+03  0.21115300477E+03  0.00000000000E+00 0.  1.
</event>
<event>
 7    1  0.6330892E-006  0.7160021E+02  0.7818608E-02  0.1380328E+00
          2   -1    0    0  502    0  0.00000000000E+00  0.00000000000E+00  0.16337158419E+04  0.16337158419E+04  0.00000000000E+00 0. -1.
          1   -1    0    0  501    0 -0.00000000000E+00 -0.00000000000E+00 -0.30075246713E+02  0.30075246713E+02  0.00000000000E+00 0. -1.
         25    2    1    2    0    0 -0.39461041426E+02 -0.68168806228E+02  0.41634821647E+03  0.44179253109E+03  0.12502257090E+03 0.  0.
          2    1    1    2  501    0 -0.30820280759E+02  0.48996348969E+02  0.35495963103E+02  0.67900628237E+02  0.00000000000E+00 0. -1.
          1    1    1    2  502    0  0.70281322185E+02  0.19172457260E+02  0.11517964156E+04  0.11540979293E+04  0.00000000000E+00 0. -1.
         22    1    3    3    0    0 -0.51783304811E+02  0.28698537220E+00  0.31276338561E+03  0.31702133745E+03  0.00000000000E+00 0.  1.
         22    1    3    3    0    0  0.12322263385E+02 -0.68455791601E+02  0.10358483086E+03  0.12477119364E+03  0.00000000000E+00 0.  1.
</event>
<event>
 7    1  0.6330892E-006  0.5784422E+02  0.7818608E-02  0.1543353E+00
          2   -1    0    0  502    0  0.00000000000E+00  0.00000000000E+00  0.64461254796E+03  0.64461254796E+03  0.00000000000E+00 0. -1.
          1   -1    0    0  501    0 -0.00000000000E+00 -0.00000000000E+00 -0.35762403521E+02  0.35762403521E+02  0.00000000000E+00 0. -1.
         25    2    1    2    0    0  0.41957216666E+02 -0.12858098380E+02  0.28615414228E+03  0.31533317000E+03  0.12500030493E+03 0.  0.
          2    1    1    2  501    0  0.91820311325E+01 -0.19890382907E+02 -0.11933471152E+02  0.24946838710E+02  0.00000000000E+00 0. -1.
          1    1    1    2  502    0 -0.51139247798E+02  0.32748481287E+02  0.33462947332E+03  0.34009494278E+03  0.00000000000E+00 0. -1.
         22    1    3    3    0    0  0.10536635827E+02 -0.25101302964E+02  0.27967243726E+03  0.28099424953E+03  0.00000000000E+00 0.  1.
         22    1    3    3    0    0  0.31420580838E+02  0.12243204584E+02  0.64817050153E+01  0.34338920464E+02  0.00000000000E+00 0.  1.
</event>
<event>
 7    1  0.6330892E-006  0.1180539E+03  0.7818608E-02  0.1378274E+00
          2   -1    0    0  502    0  0.00000000000E+00  0.00000000000E+00  0.76061046553E+02  0.76061046553E+02  0.00000000000E+00 0. -1.
          1   -1    0    0  501    0 -0.00000000000E+00 -0.00000000000E+00 -0.15364299815E+04  0.15364299815E+04  0.00000000000E+00 0. -1.
         25    2    1    2    0    0  0.60837942164E+01 -0.12477947998E+03 -0.18766678724E+03  0.25778110197E+03  0.12500136927E+03 0.  0.
          2    1    1    2  501    0 -0.33874901639E+02  0.11269843640E+02 -0.12296523765E+04  0.12301705107E+04  0.00000000000E+00 0. -1.
          1    1    1    2  502    0  0.27791107422E+02  0.11350963634E+03 -0.43049771250E+02  0.12453941544E+03  0.00000000000E+00 0. -1.
         22    1    3    3    0    0  0.63696474516E+02 -0.55010055051E+02 -0.70804451774E+02  0.10998462353E+03  0.00000000000E+00 0. -1.
         22    1    3    3    0    0 -0.57612680299E+02 -0.69769424930E+02 -0.11686233547E+03  0.14779647843E+03  0.00000000000E+00 0. -1.
</event>
<event>
 7    1  0.6330892E-006  0.5333941E+02  0.7818608E-02  0.1434094E+00
          2   -1    0    0  502    0  0.00000000000E+00  0.00000000000E+00  0.30655812774E+02  0.30655812774E+02  0.00000000000E+00 0. -1.
          1   -1    0    0  501    0 -0.00000000000E+00 -0.00000000000E+00 -0.10168928668E+04  0.10168928668E+04  0.00000000000E+00 0. -1.
         25    2    1    2    0    0 -0.13687052222E+02 -0.15438772829E+02 -0.29603186175E+03  0.32200161921E+03  0.12499795397E+03 0.  0.
          2    1    1    2  501    0 -0.41232851999E+02  0.33837025815E+02 -0.65623763322E+03  0.65840179500E+03  0.00000000000E+00 0. -1.
          1    1    1    2  502    0  0.54919904221E+02 -0.18398252985E+02 -0.33967559045E+02  0.67145265358E+02  0.00000000000E+00 0. -1.
         22    1    3    3    0    0 -0.23314388018E+02 -0.68533939551E+02 -0.15787478268E+03  0.17368047837E+03  0.00000000000E+00 0. -1.
         22    1    3    3    0    0  0.96273357966E+01  0.53095166722E+02 -0.13815707907E+03  0.14832114084E+03  0.00000000000E+00 0. -1.
</event>
<event>
 7    1  0.6330892E-006  0.9484948E+02  0.7818608E-02  0.1302297E+00
          2   -1    0    0  502    0  0.00000000000E+00  0.00000000000E+00  0.22918447410E+03  0.22918447410E+03  0.00000000000E+00 0. -1.
          1   -1    0    0  501    0 -0.00000000000E+00 -0.00000000000E+00 -0.28488677634E+03  0.28488677634E+03  0.00000000000E+00 0. -1.
         25    2    1    2    0    0  0.14786544790E+02 -0.13305419201E+02 -0.69286602804E+02  0.14429949983E+03  0.12500414487E+03 0.  0.
          2    1    1    2  501    0  0.64390379222E+02 -0.56757659363E+02 -0.15127133678E+03  0.17392691040E+03  0.00000000000E+00 0. -1.
          1    1    1    2  502    0 -0.79176924012E+02  0.70063078564E+02  0.16485563734E+03  0.19584484021E+03  0.00000000000E+00 0. -1.
         22    1    3    3    0    0  0.26873186503E+02 -0.66151875389E+02 -0.30507629174E+02  0.77646340597E+02  0.00000000000E+00 0.  1.
         22    1    3    3    0    0 -0.12086641713E+02  0.52846456188E+02 -0.38778973630E+02  0.66653159230E+02  0.00000000000E+00 0.  1.
</event>
<event>
 7    1  0.6330892E-006  0.9893024E+02  0.7818608E-02  0.1428196E+00
          2   -1    0    0  502    0  0.00000000000E+00  0.00000000000E+00  0.95186460339E+03  0.95186460339E+03  0.00000000000E+00 0. -1.
          1   -1    0    0  501    0 -0.00000000000E+00 -0.00000000000E+00 -0.10754832887E+03  0.10754832887E+03  0.00000000000E+00 0. -1.
         25    2    1    2    0    0  0.10249381622E+03  0.53366058777E+02  0.87563686266E+02  0.19142563038E+03  0.12499381673E+03 0.  0.
          2    1    1    2  501    0 -0.77999494026E+01 -0.27663237594E+02 -0.48716871990E+02  0.56563482401E+02  0.00000000000E+00 0. -1.
          1    1    1    2  502    0 -0.94693866817E+02 -0.25702821183E+02  0.80546946024E+03  0.81142381948E+03  0.00000000000E+00 0. -1.
         22    1    3    3    0    0  0.96424413621E+01  0.21481293046E+01  0.84774489410E+02  0.85348141102E+02  0.00000000000E+00 0. -1.
         22    1    3    3    0    0  0.92851374858E+02  0.51217929472E+02  0.27891968565E+01  0.10607748928E+03  0.00000000000E+00 0. -1.
</event>
<event>
 7    1  0.6330892E-006  0.9287116E+02  0.7818608E-02  0.1357653E+00
          2   -1    0    0  502    0  0.00000000000E+00  0.00000000000E+00  0.35084524894E+03  0.35084524894E+03  0.00000000000E+00 0. -1.
          1   -1    0    0  501    0 -0.00000000000E+00 -0.00000000000E+00 -0.30824960452E+04  0.30824960452E+04  0.00000000000E+00 0. -1.
         25    2    1    2    0    0  0.24063294287E+02 -0.11487141679E+03 -0.23599066543E+03  0.29170581961E+03  0.12500482588E+03 0.  0.
          2    1    1    2  501    0  0.33358921973E+02  0.42280868964E+02 -0.28117538138E+04  0.28122695459E+04  0.00000000000E+00 0. -1.
          1    1    1    2  502    0 -0.57422216259E+02  0.72590547829E+02  0.31609368294E+03  0.32936592864E+03  0.00000000000E+00 0. -1.
         22    1    3    3    0    0 -0.94975907163E+01 -0.13103978079E+03 -0.20376138325E+03  0.24244655016E+03  0.00000000000E+00 0. -1.
         22    1    3    3    0    0  0.33560885003E+02  0.16168363998E+02 -0.32229282184E+02  0.49259269449E+02  0.00000000000E+00 0. -1.
</event>
<event>
 7    1  0.6330892E-006  0.1230136E+03  0.7818608E-02  0.1361561E+00
          2   -1    0    0  502    0  0.00000000000E+00  0.00000000000E+00  0.24364588776E+03  0.24364588776E+03  0.00000000000E+00 0. -1.
          1   -1    0    0  501    0 -0.00000000000E+00 -0.00000000000E+00 -0.10592589546E+04  0.10592589546E+04  0.00000000000E+00 0. -1.
         25    2    1    2    0    0  0.40427930485E+02 -0.75127261783E+02 -0.44683738311E+03  0.47176964645E+03  0.12499771732E+03 0.  0.
          2    1    1    2  501    0  0.23312958659E+02 -0.31694899809E+02 -0.58251003230E+03  0.58383730478E+03  0.00000000000E+00 0. -1.
          1    1    1    2  502    0 -0.63740889144E+02  0.10682216159E+03  0.21373434862E+03  0.24729789109E+03  0.00000000000E+00 0. -1.
         22    1    3    3    0    0  0.62258724239E+01 -0.14400559903E+02  0.34971335737E+01  0.16073815857E+02  0.00000000000E+00 0.  1.
         22    1    3    3    0    0  0.34202058062E+02 -0.60726701879E+02 -0.45033451669E+03  0.45569583059E+03  0.00000000000E+00 0.  1.
</event>
<event>
 7    1  0.6330892E-006  0.7123392E+02  0.7818608E-02  0.1360881E+00
          2   -1    0    0  502    0  0.00000000000E+00  0.00000000000E+00  0.21068123465E+04  0.21068123465E+04  0.00000000000E+00 0. -1.
          1   -1    0    0  501    0 -0.00000000000E+00 -0.00000000000E+00 -0.23361925028E+03  0.23361925028E+03  0.00000000000E+00 0. -1.
         25    2    1    2    0    0  0.59826707739E+02  0.90565708898E+02 -0.51179718461E+02  0.17326174366E+03  0.12497554019E+03 0.  0.
          2    1    1    2  501    0  0.76228510952E+01 -0.67907410390E+02 -0.11111128638E+03  0.13044248620E+03  0.00000000000E+00 0. -1.
          1    1    1    2  502    0 -0.67449558834E+02 -0.22658298509E+02  0.20354841011E+04  0.20367273670E+04  0.00000000000E+00 0. -1.
         22    1    3    3    0    0  0.58472944602E+02  0.90640640676E+02 -0.86285144040E+02  0.13813014542E+03  0.00000000000E+00 0.  1.
         22    1    3    3    0    0  0.13537631368E+01 -0.74931777448E-01  0.35105425578E+02  0.35131598233E+02  0.00000000000E+00 0.  1.
</event>
<event>
 7    1  0.6330892E-006  0.1034412E+03  0.7818608E-02  0.1304255E+00
          2   -1    0    0  502    0  0.00000000000E+00  0.00000000000E+00  0.46755858929E+03  0.46755858929E+03  0.00000000000E+00 0. -1.
          1   -1    0    0  501    0 -0.00000000000E+00 -0.00000000000E+00 -0.21350425022E+03  0.21350425022E+03  0.00000000000E+00 0. -1.
         25    2    1    2    0    0 -0.10248481026E+03 -0.91777691824E+02  0.28944793084E+03  0.34399452600E+03  0.12500339275E+03 0.  0.
          2    1    1    2  501    0  0.77205103647E+02  0.39166984840E+01 -0.16281838643E+03  0.18023816332E+03  0.00000000000E+00 0. -1.
          1    1    1    2  502    0  0.25279706616E+02  0.87860993340E+02  0.12742479466E+03  0.15683015020E+03  0.00000000000E+00 0. -1.
         22    1    3    3    0    0 -0.52863944365E+02 -0.57279528123E+02  0.26920116608E+03  0.28025846781E+03  0.00000000000E+00 0. -1.
         22    1    3    3    0    0 -0.49620865898E+02 -0.34498163701E+02  0.20246764760E+02  0.63736058197E+02  0.00000000000E+00 0. -1.
</event>
<event>
 7    1  0.6330892E-006  0.1034877E+03  0.7818608E-02  0.1330808E+00
          2   -1    0    0  502    0  0.00000000000E+00  0.00000000000E+00  0.10540203616E+03  0.10540203616E+03  0.00000000000E+00 0. -1.
          1   -1    0    0  501    0 -0.00000000000E+00 -0.00000000000E+00 -0.29617902519E+03  0.29617902519E+03  0.00000000000E+00 0. -1.
         25    2    1    2    0    0  0.31210808659E+02  0.88113308688E+02 -0.64868711837E+02  0.16904786946E+03  0.12502464817E+03 0.  0.
          2    1    1    2  501    0  0.22699342687E+02 -0.11643031610E+03 -0.36039129334E+02  0.12397619735E+03  0.00000000000E+00 0. -1.
          1    1    1    2  502    0 -0.53910151346E+02  0.28317007410E+02 -0.89869147863E+02  0.10855699454E+03  0.00000000000E+00 0. -1.
         22    1    3    3    0    0  0.32874425607E+02 -0.19447337145E+02  0.81208568506E+01  0.39049649128E+02  0.00000000000E+00 0.  1.
         22    1    3    3    0    0 -0.16636169481E+01  0.10756064583E+03 -0.72989568688E+02  0.12999822034E+03  0.00000000000E+00 0.  1.
</event>
<event>
 7    1  0.6330892E-006  0.1232593E+03  0.7818608E-02  0.1320337E+00
          2   -1    0    0  502    0  0.00000000000E+00  0.00000000000E+00  0.26106721515E+03  0.26106721515E+03  0.00000000000E+00 0. -1.
          1   -1    0    0  501    0 -0.00000000000E+00 -0.00000000000E+00 -0.52514140674E+03  0.52514140674E+03  0.00000000000E+00 0. -1.
         25    2    1    2    0    0 -0.59520163745E+02 -0.10937648392E+03  0.68505025114E+02  0.18927518480E+03  0.12500516785E+03 0.  0.
          2    1    1    2  501    0  0.53213627080E+01  0.12383967596E+03 -0.45002238864E+03  0.46678124697E+03  0.00000000000E+00 0. -1.
          1    1    1    2  502    0  0.54198801037E+02 -0.14463192038E+02  0.11744317194E+03  0.13015219012E+03  0.00000000000E+00 0. -1.
         22    1    3    3    0    0  0.36297742058E+02 -0.21133543354E+02  0.35257297339E+02  0.54838214311E+02  0.00000000000E+00 0. -1.
         22    1    3    3    0    0 -0.95817905803E+02 -0.88242940570E+02  0.33247727775E+02  0.13443697049E+03  0.00000000000E+00 0. -1.
</event>
<event>
 7    1  0.6330892E-006  0.9212868E+02  0.7818608E-02  0.1418636E+00
          2   -1    0    0  502    0  0.00000000000E+00  0.00000000000E+00  0.16195998912E+04  0.16195998912E+04  0.00000000000E+00 0. -1.
          1   -1    0    0  501    0 -0.00000000000E+00 -0.00000000000E+00 -0.22444985281E+02  0.22444985281E+02  0.00000000000E+00 0. -1.
         25    2    1    2    0    0  0.79182969724E+02  0.96595970464E+01  0.29041273943E+03  0.32607987601E+03  0.12500110321E+03 0.  0.
          2    1    1    2  501    0  0.12227003939E+02 -0.30873242438E+02  0.95789494329E+02  0.10138187189E+03  0.00000000000E+00 0. -1.
          1    1    1    2  502    0 -0.91409973663E+02  0.21213645391E+02  0.12109526721E+04  0.12145831285E+04  0.00000000000E+00 0. -1.
         22    1    3    3    0    0  0.10687152344E+03  0.32819544595E+02  0.20897393010E+03  0.23699946939E+03  0.00000000000E+00 0.  1.
         22    1    3    3    0    0 -0.27688553719E+02 -0.23159947548E+02  0.81438809328E+02  0.89080406613E+02  0.00000000000E+00 0.  1.
</event>
<event>
 7    1  0.6330892E-006  0.4548206E+02  0.7818608E-02  0.1496599E+00
          2   -1    0    0  502    0  0.00000000000E+00  0.00000000000E+00  0.10885675806E+04  0.10885675806E+04  0.00000000000E+00 0. -1.
          1   -1    0    0  501    0 -0.00000000000E+00 -0.00000000000E+00 -0.50186230742E+02  0.50186230742E+02  0.00000000000E+00 0. -1.
         25    2    1    2    0    0  0.38886232503E+02  0.17658157099E+02  0.54155248101E+03  0.55742949626E+03  0.12499841607E+03 0.  0.
          2    1    1    2  501    0  0.43204197052E+01 -0.37844846032E+02 -0.32366233431E+02  0.49984712304E+02  0.00000000000E+00 0. -1.
          1    1    1    2  502    0 -0.43206652208E+02  0.20186688933E+02  0.52919510231E+03  0.53133960281E+03  0.00000000000E+00 0. -1.
         22    1    3    3    0    0 -0.14591298613E+02  0.52599804930E+02  0.13070630651E+03  0.14164668734E+03  0.00000000000E+00 0. -1.
         22    1    3    3    0    0  0.53477531116E+02 -0.34941647831E+02  0.41084617450E+03  0.41578280892E+03  0.00000000000E+00 0. -1.
</event>
<event>
 7    1  0.6330892E-006  0.9018559E+02  0.7818608E-02  0.1323257E+00
          2   -1    0    0  502    0  0.00000000000E+00  0.00000000000E+00  0.79922017440E+02  0.79922017440E+02  0.00000000000E+00 0. -1.
          1   -1    0    0  501    0 -0.00000000000E+00 -0.00000000000E+00 -0.23496873675E+04  0.23496873675E+04  0.00000000000E+00 0. -1.
         25    2    1    2    0    0  0.29502233966E+02  0.12086174383E+01 -0.57620156576E+03  0.59034280308E+03  0.12499815275E+03 0.  0.
          2    1    1    2  501    0 -0.10054485624E+03 -0.24290302450E+02 -0.17453249176E+04  0.17483873583E+04  0.00000000000E+00 0. -1.
          1    1    1    2  502    0  0.71042622278E+02  0.23081685011E+02  0.51761133229E+02  0.90879223568E+02  0.00000000000E+00 0. -1.
         22    1    3    3    0    0  0.24753181471E+02 -0.56883432194E+02 -0.19275917921E+03  0.20249579260E+03  0.00000000000E+00 0.  1.
         22    1    3    3    0    0  0.47490524948E+01  0.58092049633E+02 -0.38344238655E+03  0.38784701047E+03  0.00000000000E+00 0.  1.
</event>
<event>
 7    1  0.6330892E-006  0.6537594E+02  0.7818608E-02  0.1432425E+00
          2   -1    0    0  502    0  0.00000000000E+00  0.00000000000E+00  0.27597548242E+03  0.27597548242E+03  0.00000000000E+00 0. -1.
          1   -1    0    0  501    0 -0.00000000000E+00 -0.00000000000E+00 -0.30122346190E+03  0.30122346190E+03  0.00000000000E+00 0. -1.
         25    2    1    2    0    0  0.68510220387E+02  0.41493363393E+02  0.50940428981E+02  0.15695136579E+03  0.12499381751E+03 0.  0.
          2    1    1    2  501    0 -0.65234216438E+02  0.50092469929E+00 -0.24124049423E+03  0.24990544207E+03  0.00000000000E+00 0. -1.
          1    1    1    2  502    0 -0.32760039496E+01 -0.41994288093E+02  0.16505208578E+03  0.17034213646E+03  0.00000000000E+00 0. -1.
         22    1    3    3    0    0  0.22752373321E+02 -0.31657675283E+02  0.58540217996E+02  0.70333747370E+02  0.00000000000E+00 0. -1.
         22    1    3    3    0    0  0.45757847067E+02  0.73151038676E+02 -0.75997890149E+01  0.86617618419E+02  0.00000000000E+00 0. -1.
</event>
<event>
 7    1  0.6330892E-006  0.1525932E+03  0.7818608E-02  0.1269824E+00
          2   -1    0    0  502    0  0.00000000000E+00  0.00000000000E+00  0.83063647447E+03  0.83063647447E+03  0.00000000000E+00 0. -1.
          1   -1    0    0  501    0 -0.00000000000E+00 -0.00000000000E+00 -0.11580585216E+03  0.11580585216E+03  0.00000000000E+00 0. -1.
         25    2    1    2    0    0 -0.10846429261E+03 -0.78171978398E+02  0.11884010647E+03  0.21822744151E+03  0.12499953738E+03 0.  0.
          2    1    1    2  501    0  0.16680590633E+03  0.35202718800E+02  0.50315273808E+02  0.17775001710E+03  0.00000000000E+00 0. -1.
          1    1    1    2  502    0 -0.58341613723E+02  0.42969259598E+02  0.54567524203E+03  0.55046486802E+03  0.00000000000E+00 0. -1.
         22    1    3    3    0    0 -0.83114646852E+02  0.16746736427E+02  0.55237512886E+02  0.10119130660E+03  0.00000000000E+00 0. -1.
         22    1    3    3    0    0 -0.25349645759E+02 -0.94918714825E+02  0.63602593584E+02  0.11703613491E+03  0.00000000000E+00 0. -1.
</event>
<event>
 7    1  0.6330892E-006  0.1081800E+03  0.7818608E-02  0.1340753E+00
          2   -1    0    0  502    0  0.00000000000E+00  0.00000000000E+00  0.17957262225E+04  0.17957262225E+04  0.00000000000E+00 0. -1.
          1   -1    0    0  501    0 -0.00000000000E+00 -0.00000000000E+00 -0.51622193754E+02  0.51622193754E+02  0.00000000000E+00 0. -1.
         25    2    1    2    0    0  0.89098918234E+02 -0.41874460382E+02  0.27779074309E+03  0.32013298734E+03  0.12500137989E+03 0.  0.
          2    1    1    2  501    0  0.20898608742E+02  0.49157135974E+02 -0.32587957495E+01  0.53514443044E+02  0.00000000000E+00 0. -1.
          1    1    1    2  502    0 -0.10999752698E+03 -0.72826755922E+01  0.14695720814E+04  0.14737009858E+04  0.00000000000E+00 0. -1.
         22    1    3    3    0    0  0.10175624173E+02 -0.35137030152E+02  0.21758664489E+03  0.22064020996E+03  0.00000000000E+00 0.  1.
         22    1    3    3    0    0  0.78923294061E+02 -0.67374302298E+01  0.60204098197E+02  0.99492777382E+02  0.00000000000E+00 0.  1.
</event>
<event>
 7    1  0.6330892E-006  0.1017001E+03  0.7818608E-02  0.1303396E+00
          2   -1    0    0  502    0  0.00000000000E+00  0.00000000000E+00  0.62699248789E+03  0.62699248789E+03  0.00000000000E+00 0. -1.
          1   -1    0    0  501    0 -0.00000000000E+00 -0.00000000000E+00 -0.59218005982E+02  0.59218005982E+02  0.00000000000E+00 0. -1.
         25    2    1    2    0    0  0.55868263225E+02 -0.37604996729E+02  0.17402248804E+03  0.22460316439E+03  0.12500942563E+03 0.  0.
          2    1    1    2  501    0  0.63738265953E+02  0.47094655950E+02  0.41450128577E+02  0.89434816066E+02  0.00000000000E+00 0. -1.
          1    1    1    2  502    0 -0.11960652918E+03 -0.94896592212E+01  0.35230186528E+03  0.37217251341E+03  0.00000000000E+00 0. -1.
         22    1    3    3    0    0 -0.20775630328E+02 -0.39093091539E+02  0.12800472534E+02  0.46084148237E+02  0.00000000000E+00 0.  1.
         22    1    3    3    0    0  0.76643893553E+02  0.14880948108E+01  0.16122201551E+03  0.17851901616E+03  0.00000000000E+00 0.  1.
</event>
<event>
 7    1  0.6330892E-006  0.1471384E+03  0.7818608E-02  0.1333072E+00
          2   -1    0    0  502    0  0.00000000000E+00  0.00000000000E+00  0.60098778290E+03  0.60098778290E+03  0.00000000000E+00 0. -1.
          1   -1    0    0  501    0 -0.00000000000E+00 -0.00000000000E+00 -0.34148798166E+03  0.34148798166E+03  0.00000000000E+00 0. -1.
         25    2    1    2    0    0 -0.70505261474E+02 -0.15579004803E+03  0.13598709789E+03  0.25171302291E+03  0.12500169658E+03 0.  0.
          2    1    1    2  501    0  0.86164640878E+02  0.11683187623E+03 -0.26384030752E+03  0.30114073208E+03  0.00000000000E+00 0. -1.
          1    1    1    2  502    0 -0.15659379404E+02  0.38958171807E+02  0.38735301087E+03  0.38962200958E+03  0.00000000000E+00 0. -1.
         22    1    3    3    0    0  0.18714959639E+02 -0.10563330054E+03  0.51521308636E+02  0.11900877758E+03  0.00000000000E+00 0.  1.
         22    1    3    3    0    0 -0.89220221113E+02 -0.50156747494E+02  0.84465789259E+02  0.13270424533E+03  0.00000000000E+00 0.  1.
</event>
<event>
 7    1  0.6330892E-006  0.1200312E+03  0.7818608E-02  0.1266511E+00
          2   -1    0    0  502    0  0.00000000000E+00  0.00000000000E+00  0.25150189558E+04  0.25150189558E+04  0.00000000000E+00 0. -1.
          1   -1    0    0  501    0 -0.00000000000E+00 -0.00000000000E+00 -0.51029213825E+03  0.51029213825E+03  0.00000000000E+00 0. -1.
         25    2    1    2    0    0  0.39716523983E+02  0.16677766995E+03  0.10437541455E+03  0.23645514235E+03  0.12499845482E+03 0.  0.
          2    1    1    2  501    0 -0.84909452631E+02 -0.83076911129E+02 -0.43532576465E+03  0.45124262839E+03  0.00000000000E+00 0. -1.
          1    1    1    2  502    0  0.45192928649E+02 -0.83700758821E+02  0.23356771677E+04  0.23376133233E+04  0.00000000000E+00 0. -1.
         22    1    3    3    0    0 -0.33055026497E+02  0.99380181278E+02  0.20860047293E+02  0.10679043394E+03  0.00000000000E+00 0. -1.
         22    1    3    3    0    0  0.72771550480E+02  0.67397488672E+02  0.83515367260E+02  0.12966470841E+03  0.00000000000E+00 0. -1.
</event>
<event>
 7    1  0.6330892E-006  0.7163274E+02  0.7818608E-02  0.1365188E+00
          2   -1    0    0  502    0  0.00000000000E+00  0.00000000000E+00  0.35081018099E+04  0.35081018099E+04  0.00000000000E+00 0. -1.
          1   -1    0    0  501    0 -0.00000000000E+00 -0.00000000000E+00 -0.10732890961E+02  0.10732890961E+02  0.00000000000E+00 0. -1.
         25    2    1    2    0    0 -0.25350645474E+02 -0.10018824070E+03  0.12730297329E+04  0.12833196250E+04  0.12499688085E+03 0.  0.
          2    1    1    2  501    0 -0.28573228636E+02  0.62920923757E+02  0.23140218581E+03  0.24150040091E+03  0.00000000000E+00 0. -1.
          1    1    1    2  502    0  0.53923874110E+02  0.37267316947E+02  0.19929370002E+04  0.19940146749E+04  0.00000000000E+00 0. -1.
         22    1    3    3    0    0 -0.28611860168E+02 -0.34819442454E+02  0.11610121818E+03  0.12454125814E+03  0.00000000000E+00 0.  1.
         22    1    3    3    0    0  0.32612146941E+01 -0.65368798249E+02  0.11569285147E+04  0.11587783668E+04  0.00000000000E+00 0.  1.
</event>
<event>
 7    1  0.6330892E-006  0.9409741E+02  0.7818608E-02  0.1384391E+00
          2   -1    0    0  502    0  0.00000000000E+00  0.00000000000E+00  0.67811622419E+03  0.67811622419E+03  0.00000000000E+00 0. -1.
          1   -1    0    0  501    0 -0.00000000000E+00 -0.00000000000E+00 -0.20693279622E+03  0.20693279622E+03  0.00000000000E+00 0. -1.
         25    2    1    2    0    0  0.41290862942E+02  0.57231807430E+02 -0.71020033897E+02  0.16015482560E+03  0.12500123121E+03 0.  0.
          2    1    1    2  501    0 -0.59167720979E+02 -0.95914618485E+02 -0.55536383236E+02  0.12563726799E+03  0.00000000000E+00 0. -1.
          1    1    1    2  502    0  0.17876858037E+02  0.38682811054E+02  0.59773984510E+03  0.59925692682E+03  0.00000000000E+00 0. -1.
         22    1    3    3    0    0 -0.66333098233E+01  0.23952065676E+02 -0.94162057743E+02  0.97386833647E+02  0.00000000000E+00 0.  1.
         22    1    3    3    0    0  0.47924172765E+02  0.33279741754E+02  0.23142023846E+02  0.62767991955E+02  0.00000000000E+00 0.  1.
</event>
<event>
 7    1  0.6330892E-006  0.2087621E+03  0.7818608E-02  0.1177287E+00
          2   -1    0    0  502    0  0.00000000000E+00  0.00000000000E+00  0.14349439028E+04  0.14349439028E+04  0.00000000000E+00 0. -1.
          1   -1    0    0  501    0 -0.00000000000E+00 -0.00000000000E+00 -0.10979810415E+04  0.10979810415E+04  0.00000000000E+00 0. -1.
         25    2    1    2    0    0 -0.28153436837E+03  0.73108777035E+02 -0.71319495805E+03  0.78030612813E+03  0.12499644619E+03 0.  0.
          2    1    1    2  501    0  0.16423538864E+03  0.20544460468E+01 -0.32832351487E+03  0.36711553228E+03  0.00000000000E+00 0. -1.
          1    1    1    2  502    0  0.11729897973E+03 -0.75163223082E+02  0.13784813342E+04  0.13855032838E+04  0.00000000000E+00 0. -1.
         22    1    3    3    0    0 -0.20669270016E+03  0.10761192510E+03 -0.55487537254E+03  0.60182130054E+03  0.00000000000E+00 0.  1.
         22    1    3    3    0    0 -0.74841668207E+02 -0.34503148069E+02 -0.15831958551E+03  0.17848482760E+03  0.00000000000E+00 0.  1.
</event>
<event>
 7    1  0.6330892E-006  0.4973089E+02  0.7818608E-02  0.1470985E+00
          2   -1    0    0  502    0  0.00000000000E+00  0.00000000000E+00  0.26535259959E+04  0.26535259959E+04  0.00000000000E+00 0. -1.
          1   -1    0    0  501    0 -0.00000000000E+00 -0.00000000000E+00 -0.10147262054E+03  0.10147262054E+03  0.00000000000E+00 0. -1.
         25    2    1    2    0    0 -0.61966327503E+02  0.19029646056E+02  0.40675798494E+03  0.43044154582E+03  0.12500365149E+03 0.  0.
          2    1    1    2  501    0  0.34969756110E+02  0.22727560414E+02 -0.84486975091E+02  0.94220352391E+02  0.00000000000E+00 0. -1.
          1    1    1    2  502    0  0.26996571393E+02 -0.41757206471E+02  0.22297823656E+04  0.22303367183E+04  0.00000000000E+00 0. -1.
         22    1    3    3    0    0 -0.41917834567E+02  0.61728025056E+02  0.34362348886E+03  0.35163127851E+03  0.00000000000E+00 0.  1.
         22    1    3    3    0    0 -0.20048492937E+02 -0.42698379000E+02  0.63134496079E+02  0.78810267310E+02  0.00000000000E+00 0.  1.
</event>
<event>
 7    1  0.6330892E-006  0.6602151E+02  0.7818608E-02  0.1436777E+00
          2   -1    0    0  502    0  0.00000000000E+00  0.00000000000E+00  0.30785151891E+04  0.30785151891E+04  0.00000000000E+00 0. -1.
          1   -1    0    0  501    0 -0.00000000000E+00 -0.00000000000E+00 -0.65094451536E+01  0.65094451536E+01  0.00000000000E+00 0. -1.
         25    2    1    2    0    0 -0.55099389195E+02  0.16101292234E+02  0.12718339203E+04  0.12792504197E+04  0.12499968432E+03 0.  0.
          2    1    1    2  501    0  0.69381112541E+02  0.21652912240E+02  0.52990836586E+03  0.53486957625E+03  0.00000000000E+00 0. -1.
          1    1    1    2  502    0 -0.14281723345E+02 -0.37754204474E+02  0.12702634578E+04  0.12709046383E+04  0.00000000000E+00 0. -1.
         22    1    3    3    0    0  0.38233727067E+01  0.29403005820E+01  0.10294186883E+04  0.10294299876E+04  0.00000000000E+00 0.  1.
         22    1    3    3    0    0 -0.58922761902E+02  0.13160991652E+02  0.24241523203E+03  0.24982043209E+03  0.00000000000E+00 0.  1.
</event>
<event>
 7    1  0.6330892E-006  0.4386155E+02  0.7818608E-02  0.1530922E+00
          2   -1    0    0  502    0  0.00000000000E+00  0.00000000000E+00  0.64113985608E+03  0.64113985608E+03  0.00000000000E+00 0. -1.
          1   -1    0    0  501    0 -0.00000000000E+00 -0.00000000000E+00 -0.74757063235E+02  0.74757063235E+02  0.00000000000E+00 0. -1.
         25    2    1    2    0    0 -0.22178513748E+02 -0.32751714132E+02  0.37436412934E+03  0.39665884180E+03  0.12500069678E+03 0.  0.
          2    1    1    2  501    0  0.43140068170E+02  0.94588326399E+01 -0.54831921255E+02  0.70406495333E+02  0.00000000000E+00 0. -1.
          1    1    1    2  502    0 -0.20961554422E+02  0.23292881492E+02  0.24685058476E+03  0.24883158218E+03  0.00000000000E+00 0. -1.
         22    1    3    3    0    0 -0.64118977135E+02 -0.31729085944E+02  0.12700963222E+03  0.14577182444E+03  0.00000000000E+00 0. -1.
         22    1    3    3    0    0  0.41940463387E+02 -0.10226281880E+01  0.24735449711E+03  0.25088701736E+03  0.00000000000E+00 0. -1.
</event>
<event>
 7    1  0.6330892E-006  0.2019907E+03  0.7818608E-02  0.1275409E+00
          2   -1    0    0  502    0  0.00000000000E+00  0.00000000000E+00  0.30939194597E+03  0.30939194597E+03  0.00000000000E+00 0. -1.
          1   -1    0    0  501    0 -0.00000000000E+00 -0.00000000000E+00 -0.86844293909E+03  0.86844293909E+03  0.00000000000E+00 0. -1.
         25    2    1    2    0    0 -0.16241987761E+03  0.56824873205E+02 -0.29865326604E+01  0.21270444850E+03  0.12499992071E+03 0.  0.
          2    1    1    2  501    0  0.17674987302E+03 -0.10667809351E+03 -0.74299126999E+03  0.77113990983E+03  0.00000000000E+00 0. -1.
          1    1    1    2  502    0 -0.14329995405E+02  0.49853220300E+02  0.18692680953E+03  0.19399052674E+03  0.00000000000E+00 0. -1.
         22    1    3    3    0    0 -0.67035741626E+02  0.54627141583E+02  0.53635958919E+02  0.10175820037E+03  0.00000000000E+00 0. -1.
         22    1    3    3    0    0 -0.95384135987E+02  0.21977316224E+01 -0.56622491580E+02  0.11094624813E+03  0.00000000000E+00 0. -1.
</event>
<event>
 7    1  0.6330892E-006  0.1741186E+03  0.7818608E-02  0.1206575E+00
          2   -1    0    0  502    0  0.00000000000E+00  0.00000000000E+00  0.10911459512E+04  0.10911459512E+04  0.00000000000E+00 0. -1.
          1   -1    0    0  501    0 -0.00000000000E+00 -0.00000000000E+00 -0.13166013368E+04  0.13166013368E+04  0.00000000000E+00 0. -1.
         25    2    1    2    0    0 -0.25428238351E+03 -0.75826058060E+02  0.41205687326E+03  0.50579144274E+03  0.12499998042E+03 0.  0.
          2    1    1    2  501    0  0.12083529458E+03 -0.60195918839E+01 -0.12570943209E+04  0.12629028211E+04  0.00000000000E+00 0. -1.
          1    1    1    2  502    0  0.13344708893E+03  0.81845649944E+02  0.61958206207E+03  0.63905302409E+03  0.00000000000E+00 0. -1.
         22    1    3    3    0    0 -0.21739120243E+03 -0.77228835142E+02  0.40792545146E+03  0.46864314976E+03  0.00000000000E+00 0.  1.
         22    1    3    3    0    0 -0.36891181086E+02  0.14027770813E+01  0.41314218015E+01  0.37148292983E+02  0.00000000000E+00 0.  1.
</event>
<event>
 7    1  0.6330892E-006  0.3911128E+02  0.7818608E-02  0.1525630E+00
          2   -1    0    0  502    0  0.00000000000E+00  0.00000000000E+00  0.51738981629E+03  0.51738981629E+03  0.00000000000E+00 0. -1.
          1   -1    0    0  501    0 -0.00000000000E+00 -0.00000000000E+00 -0.71686776762E+03  0.71686776762E+03  0.00000000000E+00 0. -1.
         25    2    1    2    0    0  0.18461769946E+01 -0.10826267411E+02  0.26695976524E+03  0.29497928860E+03  0.12499859205E+03 0.  0.
          2    1    1    2  501    0  0.33022243376E+02 -0.15297651212E+02 -0.70037422696E+03  0.70131914595E+03  0.00000000000E+00 0. -1.
          1    1    1    2  502    0 -0.34868420371E+02  0.26123918623E+02  0.23393651039E+03  0.23795914935E+03  0.00000000000E+00 0. -1.
         22    1    3    3    0    0  0.10892934066E+02  0.46854052893E+02  0.20195017524E+03  0.20760017236E+03  0.00000000000E+00 0. -1.
         22    1    3    3    0    0 -0.90467570718E+01 -0.57680320303E+02  0.65009589999E+02  0.87379116245E+02  0.00000000000E+00 0. -1.
</event>
<event>
 7    1  0.6330892E-006  0.5696486E+02  0.7818608E-02  0.1522106E+00
          2   -1    0    0  502    0  0.00000000000E+00  0.00000000000E+00  0.51056867086E+03  0.51056867086E+03  0.00000000000E+00 0. -1.
          1   -1    0    0  501    0 -0.00000000000E+00 -0.00000000000E+00 -0.15454924932E+04  0.15454924932E+04  0.00000000000E+00 0. -1.
         25    2    1    2    0    0 -0.44004218387E+02 -0.23791413877E+02  0.10988202419E+03  0.17377505425E+03  0.12498522965E+03 0.  0.
          2    1    1    2  501    0  0.56984338282E+02  0.17495364406E+01 -0.15125646851E+04  0.15136387291E+04  0.00000000000E+00 0. -1.
          1    1    1    2  502    0 -0.12980119896E+02  0.22041877436E+02  0.36775883862E+03  0.36864738064E+03  0.00000000000E+00 0. -1.
         22    1    3    3    0    0  0.17176513095E+01  0.31427541693E+02 -0.10908862941E+02  0.33311319301E+02  0.00000000000E+00 0.  1.
         22    1    3    3    0    0 -0.45721869696E+02 -0.55218955569E+02  0.12079088713E+03  0.14046373495E+03  0.00000000000E+00 0.  1.
</event>
<event>
 7    1  0.6330892E-006  0.6437746E+02  0.7818608E-02  0.1386224E+00
          2   -1    0    0  502    0  0.00000000000E+00  0.00000000000E+00  0.39577932012E+03  0.39577932012E+03  0.00000000000E+00 0. -1.
          1   -1    0    0  501    0 -0.00000000000E+00 -0.00000000000E+00 -0.27685332570E+03  0.27685332570E+03  0.00000000000E+00 0. -1.
         25    2    1    2    0    0  0.16886672231E+02  0.95701343721E+02  0.11825776485E+03  0.19762006597E+03  0.12499953855E+03 0.  0.
          2    1    1    2  501    0  0.29764689169E+02 -0.53668524966E+02 -0.22891402048E+03  0.23699762882E+03  0.00000000000E+00 0. -1.
          1    1    1    2  502    0 -0.46651361400E+02 -0.42032818755E+02  0.22958225006E+03  0.23801495103E+03  0.00000000000E+00 0. -1.
         22    1    3    3    0    0  0.31297279446E+02  0.80142906149E+02  0.92093368866E+01  0.86528706177E+02  0.00000000000E+00 0.  1.
         22    1    3    3    0    0 -0.14410607215E+02  0.15558437572E+02  0.10904842796E+03  0.11109135979E+03  0.00000000000E+00 0.  1.
</event>
<event>
 7    1  0.6330892E-006  0.6924184E+02  0.7818608E-02  0.1474390E+00
          2   -1    0    0  502    0  0.00000000000E+00  0.00000000000E+00  0.16815927937E+04  0.16815927937E+04  0.00000000000E+00 0. -1.
          1   -1    0    0  501    0 -0.00000000000E+00 -0.00000000000E+00 -0.43558762105E+03  0.43558762105E+03  0.00000000000E+00 0. -1.
         25    2    1    2    0    0 -0.93175583012E+02 -0.29203407589E+02  0.30259404470E+03  0.34164772427E+03  0.12500193329E+03 0.  0.
          2    1    1    2  501    0  0.64210914091E+02  0.25235167341E+02 -0.41304211983E+03  0.41876443010E+03  0.00000000000E+00 0. -1.
          1    1    1    2  502    0  0.28964668921E+02  0.39682402485E+01  0.13564532477E+04  0.13567682603E+04  0.00000000000E+00 0. -1.
         22    1    3    3    0    0  0.82926637123E+01 -0.24773644832E+02  0.42226675608E+01  0.26463799256E+02  0.00000000000E+00 0. -1.
         22    1    3    3    0    0 -0.10146824672E+03 -0.44297627570E+01  0.29837137714E+03  0.31518392501E+03  0.00000000000E+00 0. -1.
</event>
<event>
 7    1  0.6330892E-006  0.5602371E+02  0.7818608E-02  0.1440599E+00
          2   -1    0    0  502    0  0.00000000000E+00  0.00000000000E+00  0.12489784607E+04  0.12489784607E+04  0.00000000000E+00 0. -1.
          1   -1    0    0  501    0 -0.00000000000E+00 -0.00000000000E+00 -0.12336517934E+03  0.12336517934E+03  0.00000000000E+00 0. -1.
         25    2    1    2    0    0  0.61791508695E+02  0.20026844280E+02  0.37110851125E+02  0.14567544071E+03  0.12499941487E+03 0.  0.
          2    1    1    2  501    0 -0.26810912898E+02 -0.50247196645E+02 -0.56798765095E+02  0.80434479780E+02  0.00000000000E+00 0. -1.
          1    1    1    2  502    0 -0.34980595798E+02  0.30220352366E+02  0.11453011953E+04  0.11462337195E+04  0.00000000000E+00 0. -1.
         22    1    3    3    0    0  0.21328135317E+02 -0.47015172386E+02 -0.12314833924E+02  0.53075144137E+02  0.00000000000E+00 0. -1.
         22    1    3    3    0    0  0.40463373379E+02  0.67042016666E+02  0.49425685049E+02  0.92600296578E+02  0.00000000000E+00 0. -1.
</event>
<event>
 7    1  0.6330892E-006  0.5592811E+02  0.7818608E-02  0.1416562E+00
          2   -1    0    0  502    0  0.00000000000E+00  0.00000000000E+00  0.28625761621E+04  0.28625761621E+04  0.00000000000E+00 0. -1.
          1   -1    0    0  501    0 -0.00000000000E+00 -0.00000000000E+00 -0.10540656012E+03  0.10540656012E+03  0.00000000000E+00 0. -1.
         25    2    1    2    0    0 -0.61557865528E+02 -0.10509991007E+02  0.16403502376E+04  0.16462906085E+04  0.12499614031E+03 0.  0.
          2    1    1    2  501    0  0.19679466030E+02  0.52351432658E+02 -0.94025071913E+02  0.10940140782E+03  0.00000000000E+00 0. -1.
          1    1    1    2  502    0  0.41878399497E+02 -0.41841441651E+02  0.12108444363E+04  0.12122907058E+04  0.00000000000E+00 0. -1.
         22    1    3    3    0    0  0.36590425952E+02  0.10126583066E+02  0.35166536794E+03  0.35370883219E+03  0.00000000000E+00 0.  1.
         22    1    3    3    0    0 -0.98148291479E+02 -0.20636574072E+02  0.12886848696E+04  0.12925817764E+04  0.00000000000E+00 0.  1.
</event>
<event>
 7    1  0.6330892E-006  0.4648119E+02  0.7818608E-02  0.1555172E+00
          2   -1    0    0  502    0  0.00000000000E+00  0.00000000000E+00  0.10873930241E+04  0.10873930241E+04  0.00000000000E+00 0. -1.
          1   -1    0    0  501    0 -0.00000000000E+00 -0.00000000000E+00 -0.71239376969E+02  0.71239376969E+02  0.00000000000E+00 0. -1.
         25    2    1    2    0    0 -0.49829783436E+01 -0.63586815901E+02  0.28429932271E+03  0.31704787131E+03  0.12500053830E+03 0.  0.
          2    1    1    2  501    0  0.16489470688E+02  0.19146193989E+02 -0.51247515936E+02  0.57138317069E+02  0.00000000000E+00 0. -1.
          1    1    1    2  502    0 -0.11506492345E+02  0.44440621912E+02  0.78310184031E+03  0.78444621264E+03  0.00000000000E+00 0. -1.
         22    1    3    3    0    0  0.15822160173E+02  0.12881176253E+02  0.20115217904E+03  0.20218423427E+03  0.00000000000E+00 0. -1.
         22    1    3    3    0    0 -0.20805138517E+02 -0.76467992154E+02  0.83147143668E+02  0.11486363703E+03  0.00000000000E+00 0. -1.
</event>
<event>
 7    1  0.6330892E-006  0.1103050E+03  0.7818608E-02  0.1288949E+00
          2   -1    0    0  502    0  0.00000000000E+00  0.00000000000E+00  0.41880966170E+03  0.41880966170E+03  0.00000000000E+00 0. -1.
          1   -1    0    0  501    0 -0.00000000000E+00 -0.00000000000E+00 -0.57700648847E+03  0.57700648847E+03  0.00000000000E+00 0. -1.
         25    2    1    2    0    0  0.18727287022E+02  0.11925114533E+03 -0.84712514041E+02  0.19330209447E+03  0.12497176781E+03 0.  0.
          2    1    1    2  501    0  0.67737069699E+02 -0.48898480304E+02 -0.42531748688E+03  0.43344473308E+03  0.00000000000E+00 0. -1.
          1    1    1    2  502    0 -0.86464356722E+02 -0.70352665031E+02  0.35183317415E+03  0.36906932261E+03  0.00000000000E+00 0. -1.
         22    1    3    3    0    0 -0.28005609613E+02  0.12309643211E+03 -0.68879092302E+02  0.14381020522E+03  0.00000000000E+00 0. -1.
         22    1    3    3    0    0  0.46732896636E+02 -0.38452867745E+01 -0.15833421739E+02  0.49491889258E+02  0.00000000000E+00 0. -1.
</event>
<event>
 7    1  0.6330892E-006  0.6975960E+02  0.7818608E-02  0.1443637E+00
          2   -1    0    0  502    0  0.00000000000E+00  0.00000000000E+00  0.52893142944E+03  0.52893142944E+03  0.00000000000E+00 0. -1.
          1   -1    0    0  501    0 -0.00000000000E+00 -0.00000000000E+00 -0.60007753666E+03  0.60007753666E+03  0.00000000000E+00 0. -1.
         25    2    1    2    0    0  0.13958797286E+02  0.76347561355E+02 -0.32758201622E+02  0.15074078875E+03  0.12500354984E+03 0.  0.
          2    1    1    2  501    0  0.29221136537E+02 -0.21526112633E+02 -0.50508258852E+03  0.50638490259E+03  0.00000000000E+00 0. -1.
          1    1    1    2  502    0 -0.43179933823E+02 -0.54821448722E+02  0.46669468293E+03  0.47188327476E+03  0.00000000000E+00 0. -1.
         22    1    3    3    0    0  0.51693898809E+02  0.33348657756E+01 -0.43771897073E+02  0.67818577670E+02  0.00000000000E+00 0. -1.
         22    1    3    3    0    0 -0.37735101523E+02  0.73012695579E+02  0.11013695450E+02  0.82922211079E+02  0.00000000000E+00 0. -1.
</event>
<event>
 7    1  0.6330892E-006  0.1849702E+03  0.7818608E-02  0.1333102E+00
          2   -1    0    0  502    0  0.00000000000E+00  0.00000000000E+00  0.49704283663E+03  0.49704283663E+03  0.00000000000E+00 0. -1.
          1   -1    0    0  501    0 -0.00000000000E+00 -0.00000000000E+00 -0.11757204382E+04  0.11757204382E+04  0.00000000000E+00 0. -1.
         25    2    1    2    0    0 -0.11200883316E+02  0.16588909542E+03 -0.35306809658E+02  0.21098856259E+03  0.12499980389E+03 0.  0.
          2    1    1    2  501    0  0.40146520333E+02 -0.18253597258E+03 -0.10435753712E+04  0.10601795507E+04  0.00000000000E+00 0. -1.
          1    1    1    2  502    0 -0.28945637017E+02  0.16646877165E+02  0.40020457932E+03  0.40159516149E+03  0.00000000000E+00 0. -1.
         22    1    3    3    0    0  0.12284984882E+02  0.80941143320E+02  0.43545435672E+02  0.92728606715E+02  0.00000000000E+00 0. -1.
         22    1    3    3    0    0 -0.23485868197E+02  0.84947952099E+02 -0.78852245331E+02  0.11825995588E+03  0.00000000000E+00 0. -1.
</event>
<event>
 7    1  0.6330892E-006  0.1080290E+03  0.7818608E-02  0.1313697E+00
          2   -1    0    0  502    0  0.00000000000E+00  0.00000000000E+00  0.34968626124E+04  0.34968626124E+04  0.00000000000E+00 0. -1.
          1   -1    0    0  501    0 -0.00000000000E+00 -0.00000000000E+00 -0.12042224349E+03  0.12042224349E+03  0.00000000000E+00 0. -1.
         25    2    1    2    0    0  0.75731285615E+02 -0.14823044492E+03  0.40780028960E+03  0.45785808416E+03  0.12500182641E+03 0.  0.
          2    1    1    2  501    0 -0.68822794000E+01  0.67584901125E+02 -0.82259462894E+02  0.10668506861E+03  0.00000000000E+00 0. -1.
          1    1    1    2  502    0 -0.68849006215E+02  0.80645543800E+02  0.30508995422E+04  0.30527417031E+04  0.00000000000E+00 0. -1.
         22    1    3    3    0    0 -0.29377047904E+02 -0.61143602848E+02  0.96603298367E+02  0.11804129942E+03  0.00000000000E+00 0.  1.
         22    1    3    3    0    0  0.10510833352E+03 -0.87086842077E+02  0.31119699123E+03  0.33981678474E+03  0.00000000000E+00 0.  1.
</event>
<event>
 7    1  0.6330892E-006  0.2595865E+03  0.7818608E-02  0.1201960E+00
          2   -1    0    0  502    0  0.00000000000E+00  0.00000000000E+00  0.92406801094E+03  0.92406801094E+03  0.00000000000E+00 0. -1.
          1   -1    0    0  501    0 -0.00000000000E+00 -0.00000000000E+00 -0.84003236143E+03  0.84003236143E+03  0.00000000000E+00 0. -1.
         25    2    1    2    0    0  0.30276193160E+03  0.64639370603E+02  0.21025872483E+03  0.39455792679E+03  0.12499676302E+03 0.  0.
          2    1    1    2  501    0 -0.55207770352E+02 -0.65011866818E+02 -0.72062277177E+03  0.72565254766E+03  0.00000000000E+00 0. -1.
          1    1    1    2  502    0 -0.24755416125E+03  0.37249621456E+00  0.59439969645E+03  0.64388989792E+03  0.00000000000E+00 0. -1.
         22    1    3    3    0    0  0.30553522298E+02  0.29667990282E+02 -0.87023519521E+01  0.43467669614E+02  0.00000000000E+00 0.  1.
         22    1    3    3    0    0  0.27220840930E+03  0.34971380321E+02  0.21896107678E+03  0.35109025717E+03  0.00000000000E+00 0.  1.
</event>
<event>
 7    1  0.6330892E-006  0.5578054E+02  0.7818608E-02  0.1476715E+00
          2   -1    0    0  502    0  0.00000000000E+00  0.00000000000E+00  0.34717324586E+03  0.34717324586E+03  0.00000000000E+00 0. -1.
          1   -1    0    0  501    0 -0.00000000000E+00 -0.00000000000E+00 -0.47159548244E+03  0.47159548244E+03  0.00000000000E+00 0. -1.
         25    2    1    2    0    0  0.21982258545E+02 -0.71274709510E+01  0.39882824143E+02  0.13328336488E+03  0.12505916663E+03 0.  0.
          2    1    1    2  501    0  0.28734740080E+02 -0.21177882469E+02 -0.42089400944E+03  0.42240496585E+03  0.00000000000E+00 0. -1.
          1    1    1    2  502    0 -0.50716998625E+02  0.28305353420E+02  0.25658894872E+03  0.26308039757E+03  0.00000000000E+00 0. -1.
         22    1    3    3    0    0  0.20811460923E+02  0.13111788060E+02  0.82500583349E+02  0.86089384624E+02  0.00000000000E+00 0. -1.
         22    1    3    3    0    0  0.11707976214E+01 -0.20239259011E+02 -0.42617759206E+02  0.47193980253E+02  0.00000000000E+00 0. -1.
</event>
<event>
 7    1  0.6330892E-006  0.5381068E+02  0.7818608E-02  0.1489135E+00
          2   -1    0    0  502    0  0.00000000000E+00  0.00000000000E+00  0.24347674613E+03  0.24347674613E+03  0.00000000000E+00 0. -1.
          1   -1    0    0  501    0 -0.00000000000E+00 -0.00000000000E+00 -0.31927952695E+03  0.31927952695E+03  0.00000000000E+00 0. -1.
         25    2    1    2    0    0 -0.24692896892E+02  0.29719922780E+02 -0.10519693391E+03  0.16788841209E+03  0.12500844389E+03 0.  0.
          2    1    1    2  501    0  0.23258131929E+02  0.24672192490E+02 -0.17761751936E+03  0.18082489034E+03  0.00000000000E+00 0. -1.
          1    1    1    2  502    0  0.14347649629E+01 -0.54392115270E+02  0.20701167245E+03  0.21404297065E+03  0.00000000000E+00 0. -1.
         22    1    3    3    0    0  0.15636310345E+02 -0.23617861063E+02  0.13710533468E+02  0.31468655681E+02  0.00000000000E+00 0. -1.
         22    1    3    3    0    0 -0.40329207237E+02  0.53337783843E+02 -0.11890746738E+03  0.13641975641E+03  0.00000000000E+00 0. -1.
</event>
<event>
 7    1  0.6330892E-006  0.1077055E+03  0.7818608E-02  0.1275526E+00
          2   -1    0    0  502    0  0.00000000000E+00  0.00000000000E+00  0.13333616834E+04  0.13333616834E+04  0.00000000000E+00 0. -1.
          1   -1    0    0  501    0 -0.00000000000E+00 -0.00000000000E+00 -0.11952951534E+03  0.11952951534E+03  0.00000000000E+00 0. -1.
         25    2    1    2    0    0 -0.84062523996E+02 -0.12511301739E+03  0.11129161500E+03  0.22523360790E+03  0.12499831798E+03 0.  0.
          2    1    1    2  501    0  0.99006662075E+02  0.29096944446E+02 -0.16414566598E+02  0.10449109679E+03  0.00000000000E+00 0. -1.
          1    1    1    2  502    0 -0.14944138079E+02  0.96016072948E+02  0.11189551196E+04  0.11231664940E+04  0.00000000000E+00 0. -1.
         22    1    3    3    0    0 -0.52793900832E+02 -0.97621399729E+02  0.13699080272E+03  0.17630545562E+03  0.00000000000E+00 0.  1.
         22    1    3    3    0    0 -0.31268623165E+02 -0.27491617664E+02 -0.25699187723E+02  0.48928152285E+02  0.00000000000E+00 0.  1.
</event>
<event>
 7    1  0.6330892E-006  0.1774221E+03  0.7818608E-02  0.1244958E+00
          2   -1    0    0  502    0  0.00000000000E+00  0.00000000000E+00  0.30726792176E+03  0.30726792176E+03  0.00000000000E+00 0. -1.
          1   -1    0    0  501    0 -0.00000000000E+00 -0.00000000000E+00 -0.63180792699E+03  0.63180792699E+03  0.00000000000E+00 0. -1.
         25    2    1    2    0    0 -0.15208701544E+03  0.15602986291E+02  0.80932625898E+02  0.21342152080E+03  0.12499896864E+03 0.  0.
          2    1    1    2  501    0 -0.50366791999E+02 -0.61707190070E+02 -0.49367529712E+03  0.50005988644E+03  0.00000000000E+00 0. -1.
          1    1    1    2  502    0  0.20245380744E+03  0.46104203778E+02  0.88202665985E+02  0.22559444151E+03  0.00000000000E+00 0. -1.
         22    1    3    3    0    0 -0.91686617507E+02  0.31146259060E+02  0.10833132067E+03  0.14530037963E+03  0.00000000000E+00 0.  1.
         22    1    3    3    0    0 -0.60400397931E+02 -0.15543272768E+02 -0.27398694773E+02  0.68121141167E+02  0.00000000000E+00 0.  1.
</event>
<event>
 7    1  0.6330892E-006  0.5198149E+02  0.7818608E-02  0.1451630E+00
          2   -1    0    0  502    0  0.00000000000E+00  0.00000000000E+00  0.16107620491E+04  0.16107620491E+04  0.00000000000E+00 0. -1.
          1   -1    0    0  501    0 -0.00000000000E+00 -0.00000000000E+00 -0.22425707511E+03  0.22425707511E+03  0.00000000000E+00 0. -1.
         25    2    1    2    0    0 -0.90618872033E+02 -0.31023510911E+02  0.38156465940E+03  0.41278343585E+03  0.12499734960E+03 0.  0.
          2    1    1    2  501    0  0.44924203749E+02  0.94728301631E+01 -0.20558869855E+03  0.21065286982E+03  0.00000000000E+00 0. -1.
          1    1    1    2  502    0  0.45694668284E+02  0.21550680748E+02  0.12105290131E+04  0.12115828185E+04  0.00000000000E+00 0. -1.
         22    1    3    3    0    0 -0.97581821519E+02 -0.52257376039E+02  0.37261868009E+03  0.38871290948E+03  0.00000000000E+00 0.  1.
         22    1    3    3    0    0  0.69629494859E+01  0.21233865128E+02  0.89459793087E+01  0.24070526368E+02  0.00000000000E+00 0.  1.
</event>
<event>
 7    1  0.6330892E-006  0.1909151E+03  0.7818608E-02  0.1230740E+00
          2   -1    0    0  502    0  0.00000000000E+00  0.00000000000E+00  0.33996856795E+03  0.33996856795E+03  0.00000000000E+00 0. -1.
          1   -1    0    0  501    0 -0.00000000000E+00 -0.00000000000E+00 -0.68147566081E+03  0.68147566081E+03  0.00000000000E+00 0. -1.
         25    2    1    2    0    0 -0.18863329060E+02  0.23583897545E+03  0.14809153211E+03  0.30583053161E+03  0.12500145864E+03 0.  0.
          2    1    1    2  501    0  0.35706249973E+02 -0.77759433648E+02 -0.54162546815E+03  0.54834260601E+03  0.00000000000E+00 0. -1.
          1    1    1    2  502    0 -0.16842920913E+02 -0.15807954180E+03  0.52026843180E+02  0.16727109114E+03  0.00000000000E+00 0. -1.
         22    1    3    3    0    0 -0.22373950379E+02  0.13070331405E+03  0.11041729970E+02  0.13306340504E+03  0.00000000000E+00 0.  1.
         22    1    3    3    0    0  0.35106213193E+01  0.10513566140E+03  0.13704980214E+03  0.17276712658E+03  0.00000000000E+00 0.  1.
</event>
<event>
 7    1  0.6330892E-006  0.3088486E+03  0.7818608E-02  0.1328745E+00
          2   -1    0    0  502    0  0.00000000000E+00  0.00000000000E+00  0.42650592653E+03  0.42650592653E+03  0.00000000000E+00 0. -1.
          1   -1    0    0  501    0 -0.00000000000E+00 -0.00000000000E+00 -0.46963296823E+03  0.46963296823E+03  0.00000000000E+00 0. -1.
         25    2    1    2    0    0 -0.30464104806E+03  0.97484244262E+02 -0.54848645288E+02  0.34776754597E+03  0.12499818437E+03 0.  0.
          2    1    1    2  501    0  0.19133418447E+02  0.81022629497E+01 -0.18484931826E+03  0.18601345335E+03  0.00000000000E+00 0. -1.
          1    1    1    2  502    0  0.28550762961E+03 -0.10558650721E+03  0.19657092185E+03  0.36235789544E+03  0.00000000000E+00 0. -1.
         22    1    3    3    0    0 -0.15174055422E+03 -0.11319900895E+02 -0.49565647974E+02  0.16003152630E+03  0.00000000000E+00 0. -1.
         22    1    3    3    0    0 -0.15290049384E+03  0.10880414516E+03 -0.52829973145E+01  0.18773601967E+03  0.00000000000E+00 0. -1.
</event>
<event>
 7    1  0.6330892E-006  0.4557582E+02  0.7818608E-02  0.1558688E+00
          2   -1    0    0  502    0  0.00000000000E+00  0.00000000000E+00  0.13613631257E+04  0.13613631257E+04  0.00000000000E+00 0. -1.
          1   -1    0    0  501    0 -0.00000000000E+00 -0.00000000000E+00 -0.73920111283E+03  0.73920111283E+03  0.00000000000E+00 0. -1.
         25    2    1    2    0    0  0.42748804701E+02  0.14801595101E+02 -0.62895558545E+03  0.64284988164E+03  0.12499717733E+03 0.  0.
          2    1    1    2  501    0  0.16419898959E+01 -0.25146375912E+02 -0.10137183215E+03  0.10445709505E+03  0.00000000000E+00 0. -1.
          1    1    1    2  502    0 -0.44390794597E+02  0.10344780811E+02  0.13524894305E+04  0.13532572619E+04  0.00000000000E+00 0. -1.
         22    1    3    3    0    0 -0.68614482926E+01  0.19124599962E+02 -0.54396791009E+03  0.54434723936E+03  0.00000000000E+00 0.  1.
         22    1    3    3    0    0  0.49610252994E+02 -0.43230048609E+01 -0.84987675363E+02  0.98502642283E+02  0.00000000000E+00 0.  1.
</event>
<event>
 7    1  0.6330892E-006  0.6857876E+02  0.7818608E-02  0.1453567E+00
          2   -1    0    0  502    0  0.00000000000E+00  0.00000000000E+00  0.78404236398E+03  0.78404236398E+03  0.00000000000E+00 0. -1.
          1   -1    0    0  501    0 -0.00000000000E+00 -0.00000000000E+00 -0.11005605275E+04  0.11005605275E+04  0.00000000000E+00 0. -1.
         25    2    1    2    0    0  0.85519394059E+02 -0.19334946205E+02  0.33885874757E+03  0.37166824858E+03  0.12499851718E+03 0.  0.
          2    1    1    2  501    0 -0.19791723081E+02  0.28025204295E+02 -0.10813191809E+04  0.10818633441E+04  0.00000000000E+00 0. -1.
          1    1    1    2  502    0 -0.65727670977E+02 -0.86902580898E+01  0.42594226987E+03  0.43107129872E+03  0.00000000000E+00 0. -1.
         22    1    3    3    0    0 -0.16867968833E+02  0.28502635214E+02  0.13047051398E+03  0.13460863124E+03  0.00000000000E+00 0. -1.
         22    1    3    3    0    0  0.10238736289E+03 -0.47837581419E+02  0.20838823359E+03  0.23705961734E+03  0.00000000000E+00 0. -1.
</event>
<event>
 7    1  0.6330892E-006  0.1263857E+03  0.7818608E-02  0.1306666E+00
          2   -1    0    0  502    0  0.00000000000E+00  0.00000000000E+00  0.10159258239E+04  0.10159258239E+04  0.00000000000E+00 0. -1.
          1   -1    0    0  501    0 -0.00000000000E+00 -0.00000000000E+00 -0.20482518601E+03  0.20482518601E+03  0.00000000000E+00 0. -1.
         25    2    1    2    0    0 -0.96424650839E+02 -0.32772654574E+02  0.68677735368E+03  0.70544957781E+03  0.12499685249E+03 0.  0.
          2    1    1    2  501    0  0.86321810933E+02  0.93834192889E+02 -0.17114683672E+03  0.21341872110E+03  0.00000000000E+00 0. -1.
          1    1    1    2  502    0  0.10102839906E+02 -0.61061538315E+02  0.29547012096E+03  0.30188271102E+03  0.00000000000E+00 0. -1.
         22    1    3    3    0    0 -0.90369274803E+02  0.32206833176E+02  0.41589703519E+03  0.42681873179E+03  0.00000000000E+00 0. -1.
         22    1    3    3    0    0 -0.60553760355E+01 -0.64979487750E+02  0.27088031849E+03  0.27863084602E+03  0.00000000000E+00 0. -1.
</event>
<event>
 7    1  0.6330892E-006  0.9126118E+02  0.7818608E-02  0.1420173E+00
          2   -1    0    0  502    0  0.00000000000E+00  0.00000000000E+00  0.49794377754E+02  0.49794377754E+02  0.00000000000E+00 0. -1.
          1   -1    0    0  501    0 -0.00000000000E+00 -0.00000000000E+00 -0.19963420928E+04  0.19963420928E+04  0.00000000000E+00 0. -1.
         25    2    1    2    0    0 -0.11926274088E+03 -0.22733688580E+02 -0.46848998563E+03  0.49984845502E+03  0.12500075758E+03 0.  0.
          2    1    1    2  501    0  0.87953652265E+02  0.11908216758E+02 -0.15024999568E+04  0.15051191882E+04  0.00000000000E+00 0. -1.
          1    1    1    2  502    0  0.31309088611E+02  0.10825471822E+02  0.24442227327E+02  0.41168827364E+02  0.00000000000E+00 0. -1.
         22    1    3    3    0    0 -0.47722634927E+02  0.51617516593E+02 -0.16705465634E+03  0.18124314086E+03  0.00000000000E+00 0.  1.
         22    1    3    3    0    0 -0.71540105949E+02 -0.74351205173E+02 -0.30143532929E+03  0.31860531416E+03  0.00000000000E+00 0.  1.
</event>
<event>
 7    1  0.6330892E-006  0.1240788E+03  0.7818608E-02  0.1278493E+00
          2   -1    0    0  502    0  0.00000000000E+00  0.00000000000E+00  0.15156102447E+04  0.15156102447E+04  0.00000000000E+00 0. -1.
          1   -1    0    0  501    0 -0.00000000000E+00 -0.00000000000E+00 -0.34849326843E+03  0.34849326843E+03  0.00000000000E+00 0. -1.
         25    2    1    2    0    0  0.20322729853E+03  0.19934170011E+02  0.21426423944E+01  0.23943275722E+03  0.12499899325E+03 0.  0.
          2    1    1    2  501    0 -0.81358394258E+02 -0.10155274968E+02 -0.21975640348E+03  0.23455318117E+03  0.00000000000E+00 0. -1.
          1    1    1    2  502    0 -0.12186890427E+03 -0.97788950433E+01  0.13847307374E+04  0.13901175747E+04  0.00000000000E+00 0. -1.
         22    1    3    3    0    0  0.14355982835E+03 -0.20358728392E+02  0.49549454135E+02  0.15322875233E+03  0.00000000000E+00 0. -1.
         22    1    3    3    0    0  0.59667470183E+02  0.40292898403E+02 -0.47406811740E+02  0.86204004890E+02  0.00000000000E+00 0. -1.
</event>
<event>
 7    1  0.6330892E-006  0.9746522E+02  0.7818608E-02  0.1438094E+00
          2   -1    0    0  502    0  0.00000000000E+00  0.00000000000E+00  0.19909881858E+04  0.19909881858E+04  0.00000000000E+00 0. -1.
          1   -1    0    0  501    0 -0.00000000000E+00 -0.00000000000E+00 -0.23317692182E+03  0.23317692182E+03  0.00000000000E+00 0. -1.
         25    2    1    2    0    0 -0.78673433444E+02 -0.25734560425E+02  0.56769430822E+03  0.58716190438E+03  0.12502198862E+03 0.  0.
          2    1    1    2  501    0  0.97578297449E+02  0.63538131617E+01 -0.21260788338E+03  0.23401710867E+03  0.00000000000E+00 0. -1.
          1    1    1    2  502    0 -0.18904864006E+02  0.19380747263E+02  0.14027248392E+04  0.14029860946E+04  0.00000000000E+00 0. -1.
         22    1    3    3    0    0  0.27074812700E+02  0.16291997543E+02  0.19299032706E+03  0.19556007007E+03  0.00000000000E+00 0. -1.
         22    1    3    3    0    0 -0.10574824614E+03 -0.42026557969E+02  0.37470398116E+03  0.39160183431E+03  0.00000000000E+00 0. -1.
</event>
<event>
 7    1  0.6330892E-006  0.1361235E+03  0.7818608E-02  0.1293246E+00
          2   -1    0    0  502    0  0.00000000000E+00  0.00000000000E+00  0.34819793366E+02  0.34819793366E+02  0.00000000000E+00 0. -1.
          1   -1    0    0  501    0 -0.00000000000E+00 -0.00000000000E+00 -0.12252855003E+04  0.12252855003E+04  0.00000000000E+00 0. -1.
         25    2    1    2    0    0 -0.50030249075E+02  0.16999833050E+03 -0.52529762092E+03  0.56830008714E+03  0.12499976121E+03 0.  0.
          2    1    1    2  501    0  0.27390379909E+02 -0.58981908547E+02 -0.36935372102E+03  0.37503502460E+03  0.00000000000E+00 0. -1.
          1    1    1    2  502    0  0.22639869167E+02 -0.11101642195E+03 -0.29581436500E+03  0.31677018193E+03  0.00000000000E+00 0. -1.
         22    1    3    3    0    0 -0.81090315308E+02  0.55632917727E+02 -0.23545546649E+03  0.25516648971E+03  0.00000000000E+00 0. -1.
         22    1    3    3    0    0  0.31060066233E+02  0.11436541277E+03 -0.28984215443E+03  0.31313359743E+03  0.00000000000E+00 0. -1.
</event>
<event>
 7    1  0.6330892E-006  0.6669653E+02  0.7818608E-02  0.1409584E+00
          2   -1    0    0  502    0  0.00000000000E+00  0.00000000000E+00  0.36467757406E+03  0.36467757406E+03  0.00000000000E+00 0. -1.
          1   -1    0    0  501    0 -0.00000000000E+00 -0.00000000000E+00 -0.43670122752E+03  0.43670122752E+03  0.00000000000E+00 0. -1.
         25    2    1    2    0    0 -0.65017367663E+02  0.78580285994E+02 -0.13519583706E+03  0.21048729774E+03  0.12499947482E+03 0.  0.
          2    1    1    2  501    0  0.59014994104E+01 -0.48849223545E+02 -0.25816487237E+03  0.26281205388E+03  0.00000000000E+00 0. -1.
          1    1    1    2  502    0  0.59115868253E+02 -0.29731062449E+02  0.32133705597E+03  0.32807944997E+03  0.00000000000E+00 0. -1.
         22    1    3    3    0    0 -0.50472140372E+02  0.10377830753E+03 -0.13953269151E+03  0.18107110776E+03  0.00000000000E+00 0.  1.
         22    1    3    3    0    0 -0.14545227291E+02 -0.25198021532E+02  0.43368544493E+01  0.29416189974E+02  0.00000000000E+00 0.  1.
</event>
<event>
 7    1  0.6330892E-006  0.6588577E+02  0.7818608E-02  0.1502064E+00
          2   -1    0    0  502    0  0.00000000000E+00  0.00000000000E+00  0.33102741419E+03  0.33102741419E+03  0.00000000000E+00 0. -1.
          1   -1    0    0  501    0 -0.00000000000E+00 -0.00000000000E+00 -0.62649845874E+02  0.62649845874E+02  0.00000000000E+00 0. -1.
         25    2    1    2    0    0  0.38082671545E+02 -0.58447209565E+02  0.13081245197E+03  0.19391515699E+03  0.12499929737E+03 0.  0.
          2    1    1    2  501    0 -0.13489024175E+02  0.64487902502E+02  0.64215774191E+01  0.66195770249E+02  0.00000000000E+00 0. -1.
          1    1    1    2  502    0 -0.24593647370E+02 -0.60406929365E+01  0.13114353894E+03  0.13356633283E+03  0.00000000000E+00 0. -1.
         22    1    3    3    0    0 -0.13078053245E+02 -0.17868554209E+02 -0.19832605870E+02  0.29726300843E+02  0.00000000000E+00 0.  1.
         22    1    3    3    0    0  0.51160724790E+02 -0.40578655356E+02  0.15064505784E+03  0.16418885614E+03  0.00000000000E+00 0.  1.
</event>
<event>
 7    1  0.6330892E-006  0.8622677E+02  0.7818608E-02  0.1369282E+00
          2   -1    0    0  502    0  0.00000000000E+00  0.00000000000E+00  0.35069711037E+04  0.35069711037E+04  0.00000000000E+00 0. -1.
          1   -1    0    0  501    0 -0.00000000000E+00 -0.00000000000E+00 -0.12548137450E+02  0.12548137450E+02  0.00000000000E+00 0. -1.
         25    2    1    2    0    0  0.60122830674E+02  0.38831632243E+02  0.18761001969E+04  0.18816217797E+04  0.12500369116E+03 0.  0.
          2    1    1    2  501    0 -0.32100072041E+02 -0.83383989055E+02  0.20536816905E+03  0.22396291906E+03  0.00000000000E+00 0. -1.
          1    1    1    2  502    0 -0.28022758633E+02  0.44552356812E+02  0.14129546003E+04  0.14139345423E+04  0.00000000000E+00 0. -1.
         22    1    3    3    0    0  0.39952091794E+02 -0.40078524213E+02  0.51811974664E+03  0.52120104528E+03  0.00000000000E+00 0.  1.
         22    1    3    3    0    0  0.20170738880E+02  0.78910156456E+02  0.13579804502E+04  0.13604207345E+04  0.00000000000E+00 0.  1.
</event>
<event>
 7    1  0.6330892E-006  0.4905945E+02  0.7818608E-02  0.1456079E+00
          2   -1    0    0  502    0  0.00000000000E+00  0.00000000000E+00  0.71159457656E+03  0.71159457656E+03  0.00000000000E+00 0. -1.
          1   -1    0    0  501    0 -0.00000000000E+00 -0.00000000000E+00 -0.43342156865E+03  0.43342156865E+03  0.00000000000E+00 0. -1.
         25    2    1    2    0    0 -0.12527041565E+02 -0.40937326316E+01 -0.77816581916E+02  0.14782282176E+03  0.12498992278E+03 0.  0.
          2    1    1    2  501    0  0.23141536203E+02 -0.43803678142E+02 -0.31779086003E+03  0.32162917100E+03  0.00000000000E+00 0. -1.
          1    1    1    2  502    0 -0.10614494638E+02  0.47897410773E+02  0.67378044987E+03  0.67556415245E+03  0.00000000000E+00 0. -1.
         22    1    3    3    0    0 -0.45512875697E+02  0.18670921035E+02  0.10976618615E+02  0.50403485026E+02  0.00000000000E+00 0. -1.
         22    1    3    3    0    0  0.32985834132E+02 -0.22764653666E+02 -0.88793200531E+02  0.97419336738E+02  0.00000000000E+00 0. -1.
</event>
<event>
 7    1  0.6330892E-006  0.8627521E+02  0.7818608E-02  0.1425982E+00
          2   -1    0    0  502    0  0.00000000000E+00  0.00000000000E+00  0.22797977861E+04  0.22797977861E+04  0.00000000000E+00 0. -1.
          1   -1    0    0  501    0 -0.00000000000E+00 -0.00000000000E+00 -0.41778475303E+02  0.41778475303E+02  0.00000000000E+00 0. -1.
         25    2    1    2    0    0 -0.97396665290E+02  0.56864159064E+02  0.44743883416E+03  0.47806552900E+03  0.12500198685E+03 0.  0.
          2    1    1    2  501    0  0.64215863025E+02 -0.52123559800E+02  0.38707423986E+02  0.91317069718E+02  0.00000000000E+00 0. -1.
          1    1    1    2  502    0  0.33180802265E+02 -0.47405992636E+01  0.17518730527E+04  0.17521936627E+04  0.00000000000E+00 0. -1.
         22    1    3    3    0    0 -0.13416379184E+02 -0.15663613833E+02  0.40697897401E+01  0.21021684453E+02  0.00000000000E+00 0. -1.
         22    1    3    3    0    0 -0.83980286106E+02  0.72527772896E+02  0.44336904442E+03  0.45704384455E+03  0.00000000000E+00 0. -1.
</event>
<event>
 7    1  0.8187800E-006  0.7566195E+02  0.7818608E-02  0.1425134E+00
          2   -1    0    0  502    0  0.00000000000E+00  0.00000000000E+00  0.89578211228E+03  0.89578211228E+03  0.00000000000E+00 0. -1.
          1   -1    0    0  501    0 -0.00000000000E+00 -0.00000000000E+00 -0.14768744590E+04  0.14768744590E+04  0.00000000000E+00 0. -1.
         25    2    1    2    0    0 -0.10723311870E+03  0.18506846602E+02 -0.38392547248E+03  0.41816696336E+03  0.12499358266E+03 0.  0.
          2    1    1    2  501    0  0.37198932132E+02  0.97975879166E+01 -0.10738597489E+04  0.10745485162E+04  0.00000000000E+00 0. -1.
          1    1    1    2  502    0  0.70034186565E+02 -0.28304434519E+02  0.87669287471E+03  0.87994109171E+03  0.00000000000E+00 0. -1.
         22    1    3    3    0    0 -0.43724387345E+02 -0.26300362039E+02 -0.38007741676E+02  0.63624834141E+02  0.00000000000E+00 0.  1.
         22    1    3    3    0    0 -0.63508731352E+02  0.44807208642E+02 -0.34591773081E+03  0.35454212922E+03  0.00000000000E+00 0.  1.
</event>
<event>
 7    1  0.6330892E-006  0.6794777E+02  0.7818608E-02  0.1474871E+00
          2   -1    0    0  502    0  0.00000000000E+00  0.00000000000E+00  0.72200910761E+02  0.72200910761E+02  0.00000000000E+00 0. -1.
          1   -1    0    0  501    0 -0.00000000000E+00 -0.00000000000E+00 -0.11328626870E+04  0.11328626870E+04  0.00000000000E+00 0. -1.
         25    2    1    2    0    0 -0.49544510482E+02  0.10299480641E+02 -0.15908972653E+03  0.20855711067E+03  0.12500315797E+03 0.  0.
          2    1    1    2  501    0 -0.10184834095E+02  0.27888724965E+02 -0.92219590497E+03  0.92267372292E+03  0.00000000000E+00 0. -1.
          1    1    1    2  502    0  0.59729344577E+02 -0.38188205606E+02  0.20623855303E+02  0.73832764127E+02  0.00000000000E+00 0. -1.
         22    1    3    3    0    0 -0.88923347787E+02  0.24201628310E+02 -0.12045704801E+03  0.15166733666E+03  0.00000000000E+00 0. -1.
         22    1    3    3    0    0  0.39378837305E+02 -0.13902147668E+02 -0.38632678524E+02  0.56889774013E+02  0.00000000000E+00 0. -1.
</event>
<event>
 7    1  0.6330892E-006  0.3063546E+02  0.7818608E-02  0.1600578E+00
          2   -1    0    0  502    0  0.00000000000E+00  0.00000000000E+00  0.59670450801E+03  0.59670450801E+03  0.00000000000E+00 0. -1.
          1   -1    0    0  501    0 -0.00000000000E+00 -0.00000000000E+00 -0.18569897590E+03  0.18569897590E+03  0.00000000000E+00 0. -1.
         25    2    1    2    0    0 -0.24679284813E+02 -0.35959693350E+02  0.25365978022E+03  0.28612970970E+03  0.12499904011E+03 0.  0.
          2    1    1    2  501    0  0.29702422610E+02  0.74583148166E+01 -0.16743172522E+03  0.17020940920E+03  0.00000000000E+00 0. -1.
          1    1    1    2  502    0 -0.50231377970E+01  0.28501378533E+02  0.32477747711E+03  0.32606436501E+03  0.00000000000E+00 0. -1.
         22    1    3    3    0    0 -0.55679971714E+02 -0.61873501706E+02  0.11676688130E+03  0.14339837527E+03  0.00000000000E+00 0. -1.
         22    1    3    3    0    0  0.31000686900E+02  0.25913808357E+02  0.13689289892E+03  0.14273133442E+03  0.00000000000E+00 0. -1.
</event>
<event>
 7    1  0.6330892E-006  0.6114750E+02  0.7818608E-02  0.1433963E+00
          2   -1    0    0  502    0  0.00000000000E+00  0.00000000000E+00  0.38997367134E+03  0.38997367134E+03  0.00000000000E+00 0. -1.
          1   -1    0    0  501    0 -0.00000000000E+00 -0.00000000000E+00 -0.69916222298E+03  0.69916222298E+03  0.00000000000E+00 0. -1.
         25    2    1    2    0    0  0.45181396312E+02 -0.11846486528E+02  0.98565335605E+01  0.13381154399E+03  0.12500672076E+03 0.  0.
          2    1    1    2  501    0  0.86488409416E+01  0.43667000896E+02 -0.63332315184E+03  0.63488567796E+03  0.00000000000E+00 0. -1.
          1    1    1    2  502    0 -0.53830237254E+02 -0.31820514369E+02  0.31427806665E+03  0.32043867238E+03  0.00000000000E+00 0. -1.
         22    1    3    3    0    0  0.72629426537E+02 -0.56155588935E+00  0.46815532919E+02  0.86412053943E+02  0.00000000000E+00 0.  1.
         22    1    3    3    0    0 -0.27448030225E+02 -0.11284930638E+02 -0.36958999358E+02  0.47399490043E+02  0.00000000000E+00 0.  1.
</event>
<event>
 7    1  0.6330892E-006  0.1311235E+03  0.7818608E-02  0.1285487E+00
          2   -1    0    0  502    0  0.00000000000E+00  0.00000000000E+00  0.64572597134E+03  0.64572597134E+03  0.00000000000E+00 0. -1.
          1   -1    0    0  501    0 -0.00000000000E+00 -0.00000000000E+00 -0.53271794374E+03  0.53271794374E+03  0.00000000000E+00 0. -1.
         25    2    1    2    0    0 -0.13135862601E+03 -0.13998003285E+03  0.15250404851E+03  0.27519502543E+03  0.12500127593E+03 0.  0.
          2    1    1    2  501    0  0.60835849250E+02  0.39629629434E+02 -0.45975750596E+03  0.46545512391E+03  0.00000000000E+00 0. -1.
          1    1    1    2  502    0  0.70522776759E+02  0.10035040342E+03  0.42026148505E+03  0.43779376575E+03  0.00000000000E+00 0. -1.
         22    1    3    3    0    0 -0.12920409132E+03 -0.72506452619E+02  0.14494054767E+03  0.20726467438E+03  0.00000000000E+00 0.  1.
         22    1    3    3    0    0 -0.21545346943E+01 -0.67473580235E+02  0.75635008384E+01  0.67930351055E+02  0.00000000000E+00 0.  1.
</event>
<event>
 7    1  0.6330892E-006  0.5533961E+02  0.7818608E-02  0.1429215E+00
          2   -1    0    0  502    0  0.00000000000E+00  0.00000000000E+00  0.13214164380E+03  0.13214164380E+03  0.00000000000E+00 0. -1.
          1   -1    0    0  501    0 -0.00000000000E+00 -0.00000000000E+00 -0.81495131212E+03  0.81495131212E+03  0.00000000000E+00 0. -1.
         25    2    1    2    0    0  0.86135639856E+02 -0.44010359696E+02 -0.23781164299E+03  0.28553121532E+03  0.12496974501E+03 0.  0.
          2    1    1    2  501    0 -0.35301473607E+02  0.40088459685E+02 -0.54590149759E+03  0.54850863594E+03  0.00000000000E+00 0. -1.
          1    1    1    2  502    0 -0.50834166249E+02  0.39219000105E+01  0.10090347225E+03  0.11305310465E+03  0.00000000000E+00 0. -1.
         22    1    3    3    0    0  0.81481622928E+02 -0.24467958190E+02 -0.24858187079E+03  0.26273728768E+03  0.00000000000E+00 0.  1.
         22    1    3    3    0    0  0.46540169274E+01 -0.19542401506E+02  0.10770227804E+02  0.22793927637E+02  0.00000000000E+00 0.  1.
</event>
<event>
 7    1  0.7443571E-006  0.9460688E+02  0.7818608E-02  0.1395848E+00
          2   -1    0    0  502    0  0.00000000000E+00  0.00000000000E+00  0.18158278658E+04  0.18158278658E+04  0.00000000000E+00 0. -1.
          1   -1    0    0  501    0 -0.00000000000E+00 -0.00000000000E+00 -0.12047365438E+04  0.12047365438E+04  0.00000000000E+00 0. -1.
         25    2    1    2    0    0  0.71223787638E+02 -0.10780771777E+03 -0.11101560051E+03  0.21129689138E+03  0.12500632309E+03 0.  0.
          2    1    1    2  501    0 -0.79378968763E+01  0.37833622235E+02 -0.10419612705E+04  0.10426781298E+04  0.00000000000E+00 0. -1.
          1    1    1    2  502    0 -0.63285890761E+02  0.69974095538E+02  0.17640681930E+04  0.17665893885E+04  0.00000000000E+00 0. -1.
         22    1    3    3    0    0  0.20384681482E+01  0.22832972659E+02  0.48986291483E+01  0.23441342973E+02  0.00000000000E+00 0.  1.
         22    1    3    3    0    0  0.69185319490E+02 -0.13064069043E+03 -0.11591422966E+03  0.18785554841E+03  0.00000000000E+00 0.  1.
</event>
<event>
 7    1  0.6330892E-006  0.1889315E+03  0.7818608E-02  0.1175517E+00
          2   -1    0    0  502    0  0.00000000000E+00  0.00000000000E+00  0.20824872119E+03  0.20824872119E+03  0.00000000000E+00 0. -1.
          1   -1    0    0  501    0 -0.00000000000E+00 -0.00000000000E+00 -0.14282584585E+04  0.14282584585E+04  0.00000000000E+00 0. -1.
         25    2    1    2    0    0 -0.27945189723E+02 -0.59242919692E+02 -0.79101912954E+01  0.14134422819E+03  0.12499985022E+03 0.  0.
          2    1    1    2  501    0 -0.38097509098E+02  0.20173111107E+03 -0.12993744459E+04  0.13154926119E+04  0.00000000000E+00 0. -1.
          1    1    1    2  502    0  0.66042698821E+02 -0.14248819138E+03  0.87274899931E+02  0.17967033953E+03  0.00000000000E+00 0. -1.
         22    1    3    3    0    0  0.43104726737E+02 -0.20344122032E+02 -0.31313103502E+02  0.57029915126E+02  0.00000000000E+00 0. -1.
         22    1    3    3    0    0 -0.71049916461E+02 -0.38898797659E+02  0.23402912207E+02  0.84314313068E+02  0.00000000000E+00 0. -1.
</event>
<event>
 7    1  0.6330892E-006  0.1748380E+03  0.7818608E-02  0.1280638E+00
          2   -1    0    0  502    0  0.00000000000E+00  0.00000000000E+00  0.93024218597E+02  0.93024218597E+02  0.00000000000E+00 0. -1.
          1   -1    0    0  501    0 -0.00000000000E+00 -0.00000000000E+00 -0.18236356857E+04  0.18236356857E+04  0.00000000000E+00 0. -1.
         25    2    1    2    0    0 -0.60090849706E+02  0.17362739045E+03 -0.70990987219E+03  0.74387771606E+03  0.12499859555E+03 0.  0.
          2    1    1    2  501    0  0.30810767845E+01 -0.17377204356E+03 -0.10780196248E+04  0.10919398003E+04  0.00000000000E+00 0. -1.
          1    1    1    2  502    0  0.57009772921E+02  0.14465311519E+00  0.57318029865E+02  0.80842387896E+02  0.00000000000E+00 0. -1.
         22    1    3    3    0    0  0.38688615006E+02  0.40378184197E+02 -0.15958437970E+03  0.16909873132E+03  0.00000000000E+00 0. -1.
         22    1    3    3    0    0 -0.98779464712E+02  0.13324920625E+03 -0.55032549250E+03  0.57477898475E+03  0.00000000000E+00 0. -1.
</event>
<event>
 7    1  0.6330892E-006  0.9107598E+02  0.7818608E-02  0.1364572E+00
          2   -1    0    0  502    0  0.00000000000E+00  0.00000000000E+00  0.21418541672E+04  0.21418541672E+04  0.00000000000E+00 0. -1.
          1   -1    0    0  501    0 -0.00000000000E+00 -0.00000000000E+00 -0.12657910731E+02  0.12657910731E+02  0.00000000000E+00 0. -1.
         25    2    1    2    0    0 -0.97754258262E+02  0.64022350491E+02  0.15132078306E+04  0.15228534409E+04  0.12501962837E+03 0.  0.
          2    1    1    2  501    0  0.46766767329E+02 -0.73277971419E+02  0.34691841558E+03  0.35764392724E+03  0.00000000000E+00 0. -1.
          1    1    1    2  502    0  0.50987490933E+02  0.92556209272E+01  0.26907001029E+03  0.27401470980E+03  0.00000000000E+00 0. -1.
         22    1    3    3    0    0 -0.11110858883E+03  0.81011442583E+02  0.10268620142E+04  0.10360277837E+04  0.00000000000E+00 0.  1.
         22    1    3    3    0    0  0.13354330571E+02 -0.16989092091E+02  0.48634581634E+03  0.48682565716E+03  0.00000000000E+00 0.  1.
</event>
<event>
 7    1  0.6330892E-006  0.9346296E+02  0.7818608E-02  0.1389028E+00
          2   -1    0    0  502    0  0.00000000000E+00  0.00000000000E+00  0.24610381979E+04  0.24610381979E+04  0.00000000000E+00 0. -1.
          1   -1    0    0  501    0 -0.00000000000E+00 -0.00000000000E+00 -0.93703945580E+02  0.93703945580E+02  0.00000000000E+00 0. -1.
         25    2    1    2    0    0  0.82372834845E+01  0.66738143740E+02  0.11068385782E+04  0.11159016298E+04  0.12499190604E+03 0.  0.
          2    1    1    2  501    0 -0.46742041391E+02 -0.81747173335E+02 -0.63899607374E+02  0.11380060898E+03  0.00000000000E+00 0. -1.
          1    1    1    2  502    0  0.38504757906E+02  0.15009029595E+02  0.13243952815E+04  0.13250399046E+04  0.00000000000E+00 0. -1.
         22    1    3    3    0    0  0.52559640166E+02  0.79669372215E+02  0.71015059329E+03  0.71653582590E+03  0.00000000000E+00 0.  1.
         22    1    3    3    0    0 -0.44322356681E+02 -0.12931228475E+02  0.39668798490E+03  0.39936580392E+03  0.00000000000E+00 0.  1.
</event>
<event>
 7    1  0.6330892E-006  0.3925157E+02  0.7818608E-02  0.1523935E+00
          2   -1    0    0  502    0  0.00000000000E+00  0.00000000000E+00  0.36372543943E+03  0.36372543943E+03  0.00000000000E+00 0. -1.
          1   -1    0    0  501    0 -0.00000000000E+00 -0.00000000000E+00 -0.14145281201E+03  0.14145281201E+03  0.00000000000E+00 0. -1.
         25    2    1    2    0    0  0.94144024052E+01  0.49618296159E+01  0.19320398256E+03  0.23036058371E+03  0.12499987570E+03 0.  0.
          2    1    1    2  501    0 -0.14152862826E+02  0.36611226177E+02 -0.11672008291E+03  0.12314326276E+03  0.00000000000E+00 0. -1.
          1    1    1    2  502    0  0.47384604206E+01 -0.41573055793E+02  0.14578872778E+03  0.15167440497E+03  0.00000000000E+00 0. -1.
         22    1    3    3    0    0 -0.47015930178E+02  0.15221157606E+02  0.15174692075E+03  0.15959106895E+03  0.00000000000E+00 0.  1.
         22    1    3    3    0    0  0.56430332583E+02 -0.10259327991E+02  0.41457061803E+02  0.70769514762E+02  0.00000000000E+00 0.  1.
</event>
<event>
 7    1  0.6330892E-006  0.1545209E+03  0.7818608E-02  0.1314700E+00
          2   -1    0    0  502    0  0.00000000000E+00  0.00000000000E+00  0.15245351319E+04  0.15245351319E+04  0.00000000000E+00 0. -1.
          1   -1    0    0  501    0 -0.00000000000E+00 -0.00000000000E+00 -0.42729533611E+03  0.42729533611E+03  0.00000000000E+00 0. -1.
         25    2    1    2    0    0  0.15882608336E+02  0.19595199497E+03 -0.14776940378E+03  0.27587974576E+03  0.12499758335E+03 0.  0.
          2    1    1    2  501    0  0.13584580991E+02 -0.45063537744E+02 -0.20879808789E+03  0.21403715748E+03  0.00000000000E+00 0. -1.
          1    1    1    2  502    0 -0.29467189327E+02 -0.15088845723E+03  0.14538072874E+04  0.14619135648E+04  0.00000000000E+00 0. -1.
         22    1    3    3    0    0  0.45950766431E+01  0.99174063278E+02 -0.48220811404E+00  0.99281630129E+02  0.00000000000E+00 0.  1.
         22    1    3    3    0    0  0.11287531693E+02  0.96777931696E+02 -0.14728719567E+03  0.17659811563E+03  0.00000000000E+00 0.  1.
</event>
<event>
 7    1  0.6330892E-006  0.7909902E+02  0.7818608E-02  0.1333069E+00
          2   -1    0    0  502    0  0.00000000000E+00  0.00000000000E+00  0.16508321111E+04  0.16508321111E+04  0.00000000000E+00 0. -1.
          1   -1    0    0  501    0 -0.00000000000E+00 -0.00000000000E+00 -0.66562526229E+03  0.66562526229E+03  0.00000000000E+00 0. -1.
         25    2    1    2    0    0 -0.36876765944E+02  0.61714308814E+02  0.47477220978E+03  0.49618161164E+03  0.12497595278E+03 0.  0.
          2    1    1    2  501    0  0.78333347191E+02  0.10979179183E+02 -0.65102131049E+03  0.65580896789E+03  0.00000000000E+00 0. -1.
          1    1    1    2  502    0 -0.41456581247E+02 -0.72693487998E+02  0.11614559495E+04  0.11644667939E+04  0.00000000000E+00 0. -1.
         22    1    3    3    0    0  0.18967283587E+02 -0.27177495055E+02  0.62376535520E+02  0.70634313670E+02  0.00000000000E+00 0. -1.
         22    1    3    3    0    0 -0.55844049530E+02  0.88891803869E+02  0.41239567426E+03  0.42554729797E+03  0.00000000000E+00 0. -1.
</event>
<event>
 7    1  0.6330892E-006  0.1474267E+03  0.7818608E-02  0.1352768E+00
          2   -1    0    0  502    0  0.00000000000E+00  0.00000000000E+00  0.10090085333E+04  0.10090085333E+04  0.00000000000E+00 0. -1.
          1   -1    0    0  501    0 -0.00000000000E+00 -0.00000000000E+00 -0.40433386532E+03  0.40433386532E+03  0.00000000000E+00 0. -1.
         25    2    1    2    0    0  0.39526263950E+02  0.17299810698E+03  0.46444112379E+02  0.22197512486E+03  0.12500091969E+03 0.  0.
          2    1    1    2  501    0 -0.22418244945E+02 -0.14205349551E+03 -0.29985266291E+03  0.33255584907E+03  0.00000000000E+00 0. -1.
          1    1    1    2  502    0 -0.17108019004E+02 -0.30944611468E+02  0.85808321850E+03  0.85881142469E+03  0.00000000000E+00 0. -1.
         22    1    3    3    0    0  0.56920030081E+02  0.15952304897E+03  0.75573915457E+02  0.18546943057E+03  0.00000000000E+00 0. -1.
         22    1    3    3    0    0 -0.17393766131E+02  0.13475058007E+02 -0.29129803078E+02  0.36505694294E+02  0.00000000000E+00 0. -1.
</event>
<event>
 7    1  0.6330892E-006  0.6557374E+02  0.7818608E-02  0.1397277E+00
          2   -1    0    0  502    0  0.00000000000E+00  0.00000000000E+00  0.65686714076E+03  0.65686714076E+03  0.00000000000E+00 0. -1.
          1   -1    0    0  501    0 -0.00000000000E+00 -0.00000000000E+00 -0.13886079865E+04  0.13886079865E+04  0.00000000000E+00 0. -1.
         25    2    1    2    0    0  0.10458827903E+03 -0.43173202653E+02 -0.12158209117E+03  0.20787815548E+03  0.12501395560E+03 0.  0.
          2    1    1    2  501    0 -0.49463895313E+02  0.41756440897E+02 -0.12217806818E+04  0.12234943039E+04  0.00000000000E+00 0. -1.
          1    1    1    2  502    0 -0.55124383719E+02  0.14167617558E+01  0.61162192720E+03  0.61410266790E+03  0.00000000000E+00 0. -1.
         22    1    3    3    0    0  0.81147651428E+02  0.22366564008E+02 -0.10805383917E+03  0.13697020361E+03  0.00000000000E+00 0.  1.
         22    1    3    3    0    0  0.23440627604E+02 -0.65539766660E+02 -0.13528251995E+02  0.70907951870E+02  0.00000000000E+00 0.  1.
</event>
<event>
 7    1  0.6330892E-006  0.6616367E+02  0.7818608E-02  0.1512662E+00
          2   -1    0    0  502    0  0.00000000000E+00  0.00000000000E+00  0.14049161655E+04  0.14049161655E+04  0.00000000000E+00 0. -1.
          1   -1    0    0  501    0 -0.00000000000E+00 -0.00000000000E+00 -0.54147622377E+03  0.54147622377E+03  0.00000000000E+00 0. -1.
         25    2    1    2    0    0 -0.54099767362E+02  0.68596491882E+02  0.25040876663E+03  0.29319109996E+03  0.12499682861E+03 0.  0.
          2    1    1    2  501    0  0.47158846952E+02 -0.46182264731E+02 -0.51786861572E+03  0.52205810171E+03  0.00000000000E+00 0. -1.
          1    1    1    2  502    0  0.69409204106E+01 -0.22414227151E+02  0.11308997908E+04  0.11311431876E+04  0.00000000000E+00 0. -1.
         22    1    3    3    0    0 -0.85698824749E+02  0.58116948954E+02  0.11952396813E+03  0.15813869633E+03  0.00000000000E+00 0. -1.
         22    1    3    3    0    0  0.31599057387E+02  0.10479542928E+02  0.13088479850E+03  0.13505240363E+03  0.00000000000E+00 0. -1.
</event>
<event>
 7    1  0.6330892E-006  0.5743188E+02  0.7818608E-02  0.1530442E+00
          2   -1    0    0  502    0  0.00000000000E+00  0.00000000000E+00  0.10623772713E+03  0.10623772713E+03  0.00000000000E+00 0. -1.
          1   -1    0    0  501    0 -0.00000000000E+00 -0.00000000000E+00 -0.11765207398E+03  0.11765207398E+03  0.00000000000E+00 0. -1.
         25    2    1    2    0    0  0.42058541668E+02  0.77993868022E+01 -0.44916814045E+01  0.13219348893E+03  0.12500076780E+03 0.  0.
          2    1    1    2  501    0  0.21885740173E+02 -0.98682871669E+01 -0.13224328681E+02  0.27408969036E+02  0.00000000000E+00 0. -1.
          1    1    1    2  502    0 -0.63944281841E+02  0.20689003647E+01  0.63016632400E+01  0.64287343144E+02  0.00000000000E+00 0. -1.
         22    1    3    3    0    0 -0.27423403689E+02  0.28020261770E+02  0.32496863156E+02  0.50923710141E+02  0.00000000000E+00 0. -1.
         22    1    3    3    0    0  0.69481945357E+02 -0.20220874968E+02 -0.36988544560E+02  0.81269778785E+02  0.00000000000E+00 0. -1.
</event>
<event>
 7    1  0.6330892E-006  0.1512172E+03  0.7818608E-02  0.1233461E+00
          2   -1    0    0  502    0  0.00000000000E+00  0.00000000000E+00  0.90704873983E+03  0.90704873983E+03  0.00000000000E+00 0. -1.
          1   -1    0    0  501    0 -0.00000000000E+00 -0.00000000000E+00 -0.26696155041E+04  0.26696155041E+04  0.00000000000E+00 0. -1.
         25    2    1    2    0    0 -0.19536526379E+03 -0.34866328059E+01  0.20306542957E+03  0.30828483493E+03  0.12499691139E+03 0.  0.
          2    1    1    2  501    0  0.68389609892E+02  0.79734060843E+02 -0.26075152537E+04  0.26096303296E+04  0.00000000000E+00 0. -1.
          1    1    1    2  502    0  0.12697565390E+03 -0.76247428037E+02  0.64188305987E+03  0.65874907933E+03  0.00000000000E+00 0. -1.
         22    1    3    3    0    0 -0.50685735726E+01 -0.90801903510E+01 -0.15352360670E+02  0.18542795717E+02  0.00000000000E+00 0. -1.
         22    1    3    3    0    0 -0.19029669022E+03  0.55935575451E+01  0.21841779024E+03  0.28974203921E+03  0.00000000000E+00 0. -1.
</event>
<event>
 7    1  0.6330892E-006  0.8775524E+02  0.7818608E-02  0.1372250E+00
          2   -1    0    0  502    0  0.00000000000E+00  0.00000000000E+00  0.29818422285E+04  0.29818422285E+04  0.00000000000E+00 0. -1.
          1   -1    0    0  501    0 -0.00000000000E+00 -0.00000000000E+00 -0.37829661349E+03  0.37829661349E+03  0.00000000000E+00 0. -1.
         25    2    1    2    0    0  0.11358408113E+02 -0.83801704238E+02  0.21209917810E+03  0.26031279744E+03  0.12499980838E+03 0.  0.
          2    1    1    2  501    0 -0.50254402038E+02  0.45736557328E+01 -0.35167906570E+03  0.35528099936E+03  0.00000000000E+00 0. -1.
          1    1    1    2  502    0  0.38895993925E+02  0.79228048506E+02  0.27431255027E+04  0.27445450452E+04  0.00000000000E+00 0. -1.
         22    1    3    3    0    0 -0.24941126483E+02 -0.54293285039E+02  0.20433676964E+03  0.21289278057E+03  0.00000000000E+00 0. -1.
         22    1    3    3    0    0  0.36299534596E+02 -0.29508419199E+02  0.77624084562E+01  0.47420016877E+02  0.00000000000E+00 0. -1.
</event>
<event>
 7    1  0.6330892E-006  0.1408933E+03  0.7818608E-02  0.1340380E+00
          2   -1    0    0  502    0  0.00000000000E+00  0.00000000000E+00  0.63719280057E+03  0.63719280057E+03  0.00000000000E+00 0. -1.
          1   -1    0    0  501    0 -0.00000000000E+00 -0.00000000000E+00 -0.15091258606E+04  0.15091258606E+04  0.00000000000E+00 0. -1.
         25    2    1    2    0    0 -0.52767286290E+02 -0.89918777698E+02  0.43652578752E+03  0.46588563185E+03  0.12499954285E+03 0.  0.
          2    1    1    2  501    0  0.88835785446E+02  0.10971800160E+03 -0.14887895509E+04  0.14954678745E+04  0.00000000000E+00 0. -1.
          1    1    1    2  502    0 -0.36068499156E+02 -0.19799223899E+02  0.18033070341E+03  0.18496515480E+03  0.00000000000E+00 0. -1.
         22    1    3    3    0    0  0.15067507068E+02 -0.85452984815E+02  0.31394751190E+03  0.32571810298E+03  0.00000000000E+00 0. -1.
         22    1    3    3    0    0 -0.67834793358E+02 -0.44657928827E+01  0.12257827562E+03  0.14016752888E+03  0.00000000000E+00 0. -1.
</event>
<event>
 7    1  0.6330892E-006  0.1537885E+03  0.7818608E-02  0.1378832E+00
          2   -1    0    0  502    0  0.00000000000E+00  0.00000000000E+00  0.95490682599E+03  0.95490682599E+03  0.00000000000E+00 0. -1.
          1   -1    0    0  501    0 -0.00000000000E+00 -0.00000000000E+00 -0.13599770841E+04  0.13599770841E+04  0.00000000000E+00 0. -1.
         25    2    1    2    0    0  0.14628905848E+03  0.57556566989E+02 -0.38239148593E+01  0.20087935886E+03  0.12499858982E+03 0.  0.
          2    1    1    2  501    0 -0.13113268051E+03 -0.80239138679E+02 -0.12527080167E+04  0.12621059679E+04  0.00000000000E+00 0. -1.
          1    1    1    2  502    0 -0.15156377977E+02  0.22682571689E+02  0.85146167343E+03  0.85189858327E+03  0.00000000000E+00 0. -1.
         22    1    3    3    0    0 -0.56882382295E+01  0.46232515371E+02 -0.12515299305E+02  0.48233123975E+02  0.00000000000E+00 0.  1.
         22    1    3    3    0    0  0.15197729671E+03  0.11324051618E+02  0.86913844460E+01  0.15264623489E+03  0.00000000000E+00 0.  1.
</event>
<event>
 7    1  0.6330892E-006  0.6420108E+02  0.7818608E-02  0.1397061E+00
          2   -1    0    0  502    0  0.00000000000E+00  0.00000000000E+00  0.51195135704E+03  0.51195135704E+03  0.00000000000E+00 0. -1.
          1   -1    0    0  501    0 -0.00000000000E+00 -0.00000000000E+00 -0.18721538363E+03  0.18721538363E+03  0.00000000000E+00 0. -1.
         25    2    1    2    0    0 -0.69133780660E+02  0.11056165432E+02  0.23834907054E+03  0.27809534080E+03  0.12500008291E+03 0.  0.
          2    1    1    2  501    0  0.32981037303E+02  0.45774387866E+02 -0.15789594548E+03  0.16767281534E+03  0.00000000000E+00 0. -1.
          1    1    1    2  502    0  0.36152743357E+02 -0.56830553297E+02  0.24428284835E+03  0.25339858452E+03  0.00000000000E+00 0. -1.
         22    1    3    3    0    0  0.27541399574E+01 -0.39345102465E+01  0.19025056664E+03  0.19031117614E+03  0.00000000000E+00 0. -1.
         22    1    3    3    0    0 -0.71887920618E+02  0.14990675678E+02  0.48098503895E+02  0.87784164660E+02  0.00000000000E+00 0. -1.
</event>
<event>
 7    1  0.6330892E-006  0.1574766E+03  0.7818608E-02  0.1286775E+00
          2   -1    0    0  502    0  0.00000000000E+00  0.00000000000E+00  0.15918100343E+04  0.15918100343E+04  0.00000000000E+00 0. -1.
          1   -1    0    0  501    0 -0.00000000000E+00 -0.00000000000E+00 -0.82028572576E+02  0.82028572576E+02  0.00000000000E+00 0. -1.
         25    2    1    2    0    0  0.62698667180E+02  0.15242065137E+03  0.65142953094E+03  0.68348257462E+03  0.12499927279E+03 0.  0.
          2    1    1    2  501    0 -0.32150293919E+01 -0.15778781952E+03  0.30981595029E+02  0.16083280646E+03  0.00000000000E+00 0. -1.
          1    1    1    2  502    0 -0.59483637788E+02  0.53671681514E+01  0.82737033580E+03  0.82952322585E+03  0.00000000000E+00 0. -1.
         22    1    3    3    0    0  0.73933821243E+02  0.25257659695E+02  0.28175451093E+03  0.29238632616E+03  0.00000000000E+00 0. -1.
         22    1    3    3    0    0 -0.11235154063E+02  0.12716299167E+03  0.36967502001E+03  0.39109624846E+03  0.00000000000E+00 0. -1.
</event>
<event>
 7    1  0.6330892E-006  0.1514123E+03  0.7818608E-02  0.1319475E+00
          2   -1    0    0  502    0  0.00000000000E+00  0.00000000000E+00  0.23261838647E+04  0.23261838647E+04  0.00000000000E+00 0. -1.
          1   -1    0    0  501    0 -0.00000000000E+00 -0.00000000000E+00 -0.60433578046E+03  0.60433578046E+03  0.00000000000E+00 0. -1.
         25    2    1    2    0    0 -0.44115564191E+01 -0.10731419411E+03  0.12348814717E+02  0.16526211803E+03  0.12499310519E+03 0.  0.
          2    1    1    2  501    0 -0.99339814233E+01 -0.44933412672E+02 -0.52425702783E+03  0.52627286344E+03  0.00000000000E+00 0. -1.
          1    1    1    2  502    0  0.14345537842E+02  0.15224760679E+03  0.22337562973E+04  0.22389846637E+04  0.00000000000E+00 0. -1.
         22    1    3    3    0    0  0.25307044403E+01 -0.12970669726E+03  0.33172516876E+02  0.13390536829E+03  0.00000000000E+00 0. -1.
         22    1    3    3    0    0 -0.69422608595E+01  0.22392503150E+02 -0.20823702158E+02  0.31356749748E+02  0.00000000000E+00 0. -1.
</event>
<event>
 7    1  0.6330892E-006  0.1173657E+03  0.7818608E-02  0.1416590E+00
          2   -1    0    0  502    0  0.00000000000E+00  0.00000000000E+00  0.12746299137E+04  0.12746299137E+04  0.00000000000E+00 0. -1.
          1   -1    0    0  501    0 -0.00000000000E+00 -0.00000000000E+00 -0.19720982421E+04  0.19720982421E+04  0.00000000000E+00 0. -1.
         25    2    1    2    0    0  0.90862658317E+01  0.12683108459E+03  0.30108245531E+03  0.34992038087E+03  0.12499977525E+03 0.  0.
          2    1    1    2  501    0 -0.31653274577E+02 -0.11297590890E+03 -0.19457271530E+04  0.19492613062E+04  0.00000000000E+00 0. -1.
          1    1    1    2  502    0  0.22567008746E+02 -0.13855175691E+02  0.94717636935E+03  0.94754646875E+03  0.00000000000E+00 0. -1.
         22    1    3    3    0    0  0.31392832797E+02  0.21839976436E+02  0.97810682670E+01  0.39473583803E+02  0.00000000000E+00 0. -1.
         22    1    3    3    0    0 -0.22306566966E+02  0.10499110815E+03  0.29130138704E+03  0.31044679707E+03  0.00000000000E+00 0. -1.
</event>
<event>
 7    1  0.6330892E-006  0.9261994E+02  0.7818608E-02  0.1409459E+00
          2   -1    0    0  502    0  0.00000000000E+00  0.00000000000E+00  0.15388515825E+03  0.15388515825E+03  0.00000000000E+00 0. -1.
          1   -1    0    0  501    0 -0.00000000000E+00 -0.00000000000E+00 -0.13373205741E+04  0.13373205741E+04  0.00000000000E+00 0. -1.
         25    2    1    2    0    0 -0.67987502773E+02 -0.24575323909E+02 -0.36303242435E+03  0.39069587967E+03  0.12499792874E+03 0.  0.
          2    1    1    2  501    0  0.96670691818E+02  0.37139808542E+01 -0.95572925099E+03  0.96061304255E+03  0.00000000000E+00 0. -1.
          1    1    1    2  502    0 -0.28683189045E+02  0.20861343055E+02  0.13532625951E+03  0.13989681011E+03  0.00000000000E+00 0. -1.
         22    1    3    3    0    0 -0.10036533778E+03 -0.36546874594E+01 -0.20849697709E+03  0.23142503587E+03  0.00000000000E+00 0.  1.
         22    1    3    3    0    0  0.32377835010E+02 -0.20920636449E+02 -0.15453544725E+03  0.15927084381E+03  0.00000000000E+00 0.  1.
</event>
<event>
 7    1  0.6330892E-006  0.1982399E+03  0.7818608E-02  0.1208774E+00
          2   -1    0    0  502    0  0.00000000000E+00  0.00000000000E+00  0.32150517428E+03  0.32150517428E+03  0.00000000000E+00 0. -1.
          1   -1    0    0  501    0 -0.00000000000E+00 -0.00000000000E+00 -0.11473739763E+04  0.11473739763E+04  0.00000000000E+00 0. -1.
         25    2    1    2    0    0 -0.78272554924E+02 -0.16535229481E+03 -0.14560254350E+02  0.22204787529E+03  0.12500113464E+03 0.  0.
          2    1    1    2  501    0 -0.94905216144E+02  0.42011945562E+02 -0.97375092936E+03  0.97926649899E+03  0.00000000000E+00 0. -1.
          1    1    1    2  502    0  0.17317777107E+03  0.12334034925E+03  0.16244238169E+03  0.26756477629E+03  0.00000000000E+00 0. -1.
         22    1    3    3    0    0 -0.27334971332E+02 -0.16809017091E+03 -0.66586341894E+01  0.17042841202E+03  0.00000000000E+00 0.  1.
         22    1    3    3    0    0 -0.50937583592E+02  0.27378760928E+01 -0.79016201608E+01  0.51619463276E+02  0.00000000000E+00 0.  1.
</event>
<event>
 7    1  0.6330892E-006  0.1107194E+03  0.7818608E-02  0.1279592E+00
          2   -1    0    0  502    0  0.00000000000E+00  0.00000000000E+00  0.12048405806E+04  0.12048405806E+04  0.00000000000E+00 0. -1.
          1   -1    0    0  501    0 -0.00000000000E+00 -0.00000000000E+00 -0.34155342357E+03  0.34155342357E+03  0.00000000000E+00 0. -1.
         25    2    1    2    0    0 -0.15245813266E+02 -0.29543002465E+02  0.11779264225E+02  0.12988077360E+03  0.12500016187E+03 0.  0.
          2    1    1    2  501    0 -0.88932181970E+02 -0.18932676026E+02 -0.27218002823E+03  0.28696575925E+03  0.00000000000E+00 0. -1.
          1    1    1    2  502    0  0.10417799524E+03  0.48475678492E+02  0.11236879210E+04  0.11295474713E+04  0.00000000000E+00 0. -1.
         22    1    3    3    0    0 -0.20450282118E+02  0.40355248925E+02 -0.23969896601E+02  0.51198790001E+02  0.00000000000E+00 0. -1.
         22    1    3    3    0    0  0.52044688525E+01 -0.69898251390E+02  0.35749160826E+02  0.78681983600E+02  0.00000000000E+00 0. -1.
</event>
<event>
 7    1  0.6330892E-006  0.7761940E+02  0.7818608E-02  0.1374202E+00
          2   -1    0    0  502    0  0.00000000000E+00  0.00000000000E+00  0.78846770001E+03  0.78846770001E+03  0.00000000000E+00 0. -1.
          1   -1    0    0  501    0 -0.00000000000E+00 -0.00000000000E+00 -0.36526723289E+03  0.36526723289E+03  0.00000000000E+00 0. -1.
         25    2    1    2    0    0  0.49463199704E+02 -0.12321651319E+03  0.32436071933E+03  0.37210861032E+03  0.12500409746E+03 0.  0.
          2    1    1    2  501    0 -0.24522837977E+02  0.72918842028E+02 -0.33522833354E+03  0.34394267359E+03  0.00000000000E+00 0. -1.
          1    1    1    2  502    0 -0.24940361727E+02  0.50297671167E+02  0.43406808133E+03  0.43768364899E+03  0.00000000000E+00 0. -1.
         22    1    3    3    0    0 -0.63426448673E+01 -0.38252017977E+02  0.23053743985E+03  0.23377544182E+03  0.00000000000E+00 0. -1.
         22    1    3    3    0    0  0.55805844571E+02 -0.84964495218E+02  0.93823279474E+02  0.13833316850E+03  0.00000000000E+00 0. -1.
</event>
<event>
 7    1  0.6330892E-006  0.6621764E+02  0.7818608E-02  0.1376501E+00
          2   -1    0    0  502    0  0.00000000000E+00  0.00000000000E+00  0.47249320455E+02  0.47249320455E+02  0.00000000000E+00 0. -1.
          1   -1    0    0  501    0 -0.00000000000E+00 -0.00000000000E+00 -0.13697613641E+04  0.13697613641E+04  0.00000000000E+00 0. -1.
         25    2    1    2    0    0  0.32319286999E+01  0.26400224492E+02 -0.61000929457E+03  0.62325173320E+03  0.12499586497E+03 0.  0.
          2    1    1    2  501    0 -0.67081986503E+02 -0.43948606979E+02 -0.72237189568E+03  0.72680989856E+03  0.00000000000E+00 0. -1.
          1    1    1    2  502    0  0.63850057804E+02  0.17548382487E+02  0.98691466480E+01  0.66949052757E+02  0.00000000000E+00 0. -1.
         22    1    3    3    0    0  0.49852263042E+02 -0.24710625538E+02 -0.20697647590E+03  0.21432481126E+03  0.00000000000E+00 0.  1.
         22    1    3    3    0    0 -0.46620334342E+02  0.51110850030E+02 -0.40303281867E+03  0.40892692195E+03  0.00000000000E+00 0.  1.
</event>
<event>
 7    1  0.6330892E-006  0.6375918E+02  0.7818608E-02  0.1495899E+00
          2   -1    0    0  502    0  0.00000000000E+00  0.00000000000E+00  0.62638729821E+03  0.62638729821E+03  0.00000000000E+00 0. -1.
          1   -1    0    0  501    0 -0.00000000000E+00 -0.00000000000E+00 -0.94164374708E+03  0.94164374708E+03  0.00000000000E+00 0. -1.
         25    2    1    2    0    0  0.30175174644E+02  0.53937580279E+02 -0.54014254164E+03  0.55785227590E+03  0.12500157084E+03 0.  0.
          2    1    1    2  501    0  0.21604752705E+02 -0.16694588002E+02 -0.39052145905E+03  0.39147475601E+03  0.00000000000E+00 0. -1.
          1    1    1    2  502    0 -0.51779927349E+02 -0.37242992277E+02  0.61540755182E+03  0.61870401339E+03  0.00000000000E+00 0. -1.
         22    1    3    3    0    0 -0.46510116121E+01 -0.13572252541E+02 -0.21310013847E+01  0.14504451556E+02  0.00000000000E+00 0.  1.
         22    1    3    3    0    0  0.34826186256E+02  0.67509832820E+02 -0.53801154025E+03  0.54334782434E+03  0.00000000000E+00 0.  1.
</event>
<event>
 7    1  0.6330892E-006  0.6445419E+02  0.7818608E-02  0.1380703E+00
          2   -1    0    0  502    0  0.00000000000E+00  0.00000000000E+00  0.66514184147E+02  0.66514184147E+02  0.00000000000E+00 0. -1.
          1   -1    0    0  501    0 -0.00000000000E+00 -0.00000000000E+00 -0.65579840700E+03  0.65579840700E+03  0.00000000000E+00 0. -1.
         25    2    1    2    0    0  0.70427174550E+02  0.19778516541E+02 -0.24594314342E+03  0.28541954807E+03  0.12500044796E+03 0.  0.
          2    1    1    2  501    0 -0.48529953425E+02  0.42416810638E+02 -0.36253403946E+03  0.36821905433E+03  0.00000000000E+00 0. -1.
          1    1    1    2  502    0 -0.21897221126E+02 -0.62195327179E+02  0.19192960031E+02  0.68673988749E+02  0.00000000000E+00 0. -1.
         22    1    3    3    0    0 -0.28382095648E+02  0.17598992042E+02 -0.12418923763E+03  0.12860106772E+03  0.00000000000E+00 0.  1.
         22    1    3    3    0    0  0.98809270199E+02  0.21795244989E+01 -0.12175390579E+03  0.15681848035E+03  0.00000000000E+00 0.  1.
</event>
<event>
 7    1  0.6330892E-006  0.2069318E+03  0.7818608E-02  0.1316151E+00
          2   -1    0    0  502    0  0.00000000000E+00  0.00000000000E+00  0.21152272035E+04  0.21152272035E+04  0.00000000000E+00 0. -1.
          1   -1    0    0  501    0 -0.00000000000E+00 -0.00000000000E+00 -0.32111407737E+03  0.32111407737E+03  0.00000000000E+00 0. -1.
         25    2    1    2    0    0  0.20494286642E+03  0.10410621138E+03  0.74617689320E+03  0.79072398040E+03  0.12499910191E+03 0.  0.
          2    1    1    2  501    0 -0.20571335600E+02 -0.27932498574E+02 -0.29041546651E+03  0.29247999507E+03  0.00000000000E+00 0. -1.
          1    1    1    2  502    0 -0.18437153082E+03 -0.76173712809E+02  0.13383516994E+04  0.13531373054E+04  0.00000000000E+00 0. -1.
         22    1    3    3    0    0  0.11646018387E+01 -0.41915329446E+01  0.16994781187E+03  0.17000348234E+03  0.00000000000E+00 0.  1.
         22    1    3    3    0    0  0.20377826458E+03  0.10829774433E+03  0.57622908133E+03  0.62072049806E+03  0.00000000000E+00 0.  1.
</event>
<event>
 7    1  0.6330892E-006  0.4037879E+02  0.7818608E-02  0.1525507E+00
          2   -1    0    0  502    0  0.00000000000E+00  0.00000000000E+00  0.26654119261E+04  0.26654119261E+04  0.00000000000E+00 0. -1.
          1   -1    0    0  501    0 -0.00000000000E+00 -0.00000000000E+00 -0.28950968392E+03  0.28950968392E+03  0.00000000000E+00 0. -1.
         25    2    1    2    0    0  0.39134745414E+02 -0.19678812008E+02  0.21175357003E+03  0.24976814467E+03  0.12500307089E+03 0.  0.
          2    1    1    2  501    0 -0.17609936304E+01  0.35235910430E+02 -0.26918298752E+03  0.27148508477E+03  0.00000000000E+00 0. -1.
          1    1    1    2  502    0 -0.37373751784E+02 -0.15557098422E+02  0.24333316597E+04  0.24336683806E+04  0.00000000000E+00 0. -1.
         22    1    3    3    0    0  0.67031094806E+02 -0.39908871467E+02  0.19773240398E+03  0.21256525886E+03  0.00000000000E+00 0.  1.
         22    1    3    3    0    0 -0.27896349392E+02  0.20230059459E+02  0.14021166053E+02  0.37202885810E+02  0.00000000000E+00 0.  1.
</event>
<event>
 7    1  0.6330892E-006  0.1372931E+03  0.7818608E-02  0.1263321E+00
          2   -1    0    0  502    0  0.00000000000E+00  0.00000000000E+00  0.62160136562E+03  0.62160136562E+03  0.00000000000E+00 0. -1.
          1   -1    0    0  501    0 -0.00000000000E+00 -0.00000000000E+00 -0.98194095844E+03  0.98194095844E+03  0.00000000000E+00 0. -1.
         25    2    1    2    0    0  0.10248350869E+03 -0.45605409979E+02 -0.31919186810E+03  0.36067966834E+03  0.12499460597E+03 0.  0.
          2    1    1    2  501    0 -0.15301200695E+03 -0.23724947086E+02 -0.62951274547E+03  0.64827605547E+03  0.00000000000E+00 0. -1.
          1    1    1    2  502    0  0.50528498265E+02  0.69330357065E+02  0.58836502075E+03  0.59458660024E+03  0.00000000000E+00 0. -1.
         22    1    3    3    0    0  0.31481715066E+01  0.17485999565E+02 -0.16873777622E+03  0.16967058758E+03  0.00000000000E+00 0. -1.
         22    1    3    3    0    0  0.99335337182E+02 -0.63091409545E+02 -0.15045409188E+03  0.19100908077E+03  0.00000000000E+00 0. -1.
</event>
<event>
 7    1  0.6330892E-006  0.3213809E+03  0.7818608E-02  0.1099399E+00
          2   -1    0    0  502    0  0.00000000000E+00  0.00000000000E+00  0.22847435696E+04  0.22847435696E+04  0.00000000000E+00 0. -1.
          1   -1    0    0  501    0 -0.00000000000E+00 -0.00000000000E+00 -0.37911237193E+03  0.37911237193E+03  0.00000000000E+00 0. -1.
         25    2    1    2    0    0 -0.16095822760E+03  0.38234651221E+03  0.31526690365E+03  0.53583163301E+03  0.12500364784E+03 0.  0.
          2    1    1    2  501    0  0.26098642819E+03 -0.17253979232E+03 -0.16748606931E+03  0.35487389175E+03  0.00000000000E+00 0. -1.
          1    1    1    2  502    0 -0.10002820059E+03 -0.20980671988E+03  0.17578503633E+04  0.17731504167E+04  0.00000000000E+00 0. -1.
         22    1    3    3    0    0 -0.52088945895E+02  0.24244895970E+03  0.13226163644E+03  0.28104785503E+03  0.00000000000E+00 0.  1.
         22    1    3    3    0    0 -0.10886928170E+03  0.13989755251E+03  0.18300526721E+03  0.25478377798E+03  0.00000000000E+00 0.  1.
</event>
<event>
 7    1  0.6330892E-006  0.1331032E+03  0.7818608E-02  0.1286700E+00
          2   -1    0    0  502    0  0.00000000000E+00  0.00000000000E+00  0.10170210362E+04  0.10170210362E+04  0.00000000000E+00 0. -1.
          1   -1    0    0  501    0 -0.00000000000E+00 -0.00000000000E+00 -0.16184404404E+03  0.16184404404E+03  0.00000000000E+00 0. -1.
         25    2    1    2    0    0  0.62179993388E+02  0.12202426653E+03  0.79023861849E+01  0.18559080716E+03  0.12500090718E+03 0.  0.
          2    1    1    2  501    0 -0.11546651223E+03 -0.75540441362E+02 -0.49992902350E+01  0.13807196178E+03  0.00000000000E+00 0. -1.
          1    1    1    2  502    0  0.53286518841E+02 -0.46483825166E+02  0.85227389616E+03  0.85520231125E+03  0.00000000000E+00 0. -1.
         22    1    3    3    0    0  0.70126524451E+02  0.17905632828E+02  0.30851087248E+02  0.78677383681E+02  0.00000000000E+00 0. -1.
         22    1    3    3    0    0 -0.79465310632E+01  0.10411863370E+03 -0.22948701063E+02  0.10691342348E+03  0.00000000000E+00 0. -1.
</event>
<event>
 7    1  0.6330892E-006  0.1049539E+03  0.7818608E-02  0.1445973E+00
          2   -1    0    0  502    0  0.00000000000E+00  0.00000000000E+00  0.84325958234E+03  0.84325958234E+03  0.00000000000E+00 0. -1.
          1   -1    0    0  501    0 -0.00000000000E+00 -0.00000000000E+00 -0.14501765213E+03  0.14501765213E+03  0.00000000000E+00 0. -1.
         25    2    1    2    0    0 -0.12620089847E+03  0.13521981667E+02  0.33600269673E+03  0.38030818567E+03  0.12500797220E+03 0.  0.
          2    1    1    2  501    0  0.10337012731E+03 -0.71300090153E+01 -0.10066187768E+03  0.14446118464E+03  0.00000000000E+00 0. -1.
          1    1    1    2  502    0  0.22830771160E+02 -0.63919726514E+01  0.46290111116E+03  0.46350786416E+03  0.00000000000E+00 0. -1.
         22    1    3    3    0    0 -0.11073974631E+03 -0.43271476562E+02  0.21260004546E+03  0.24358672260E+03  0.00000000000E+00 0.  1.
         22    1    3    3    0    0 -0.15461152162E+02  0.56793458229E+02  0.12340265127E+03  0.13672146307E+03  0.00000000000E+00 0.  1.
</event>
<event>
 7    1  0.6330892E-006  0.4046262E+02  0.7818608E-02  0.1534359E+00
          2   -1    0    0  502    0  0.00000000000E+00  0.00000000000E+00  0.64110295436E+03  0.64110295436E+03  0.00000000000E+00 0. -1.
          1   -1    0    0  501    0 -0.00000000000E+00 -0.00000000000E+00 -0.21130115683E+02  0.21130115683E+02  0.00000000000E+00 0. -1.
         25    2    1    2    0    0 -0.60072470040E+02  0.18177264193E+02  0.29768396765E+03  0.32890694451E+03  0.12499967586E+03 0.  0.
          2    1    1    2  501    0  0.27318620646E+02 -0.23658934819E+02  0.69207262645E+02  0.78074947541E+02  0.00000000000E+00 0. -1.
          1    1    1    2  502    0  0.32753849394E+02  0.54816706255E+01  0.25308160838E+03  0.25525117798E+03  0.00000000000E+00 0. -1.
         22    1    3    3    0    0  0.16159163938E+02  0.41185313942E+02  0.18939006216E+03  0.19448893107E+03  0.00000000000E+00 0. -1.
         22    1    3    3    0    0 -0.76231633978E+02 -0.23008049749E+02  0.10829390549E+03  0.13441801345E+03  0.00000000000E+00 0. -1.
</event>
<event>
 7    1  0.6330892E-006  0.1029253E+03  0.7818608E-02  0.1341581E+00
          2   -1    0    0  502    0  0.00000000000E+00  0.00000000000E+00  0.14112603859E+03  0.14112603859E+03  0.00000000000E+00 0. -1.
          1   -1    0    0  501    0 -0.00000000000E+00 -0.00000000000E+00 -0.23792790110E+04  0.23792790110E+04  0.00000000000E+00 0. -1.
         25    2    1    2    0    0 -0.87269528700E+02 -0.24287945757E+02 -0.44457462447E+03  0.47061381195E+03  0.12499955331E+03 0.  0.
          2    1    1    2  501    0 -0.12425130442E+02  0.54339313871E+02 -0.19000499322E+04  0.19008674046E+04  0.00000000000E+00 0. -1.
          1    1    1    2  502    0  0.99694659142E+02 -0.30051368114E+02  0.10647158429E+03  0.14892383304E+03  0.00000000000E+00 0. -1.
         22    1    3    3    0    0 -0.10452430121E+03 -0.82761524311E+01 -0.43072283877E+03  0.44330123853E+03  0.00000000000E+00 0. -1.
         22    1    3    3    0    0  0.17254772510E+02 -0.16011793326E+02 -0.13851785700E+02  0.27312573423E+02  0.00000000000E+00 0. -1.
</event>
<event>
 7    1  0.6330892E-006  0.1424578E+03  0.7818608E-02  0.1250964E+00
          2   -1    0    0  502    0  0.00000000000E+00  0.00000000000E+00  0.45737252253E+03  0.45737252253E+03  0.00000000000E+00 0. -1.
          1   -1    0    0  501    0 -0.00000000000E+00 -0.00000000000E+00 -0.11079332007E+04  0.11079332007E+04  0.00000000000E+00 0. -1.
         25    2    1    2    0    0 -0.32292044697E+01  0.91170382370E+02 -0.13204504966E+03  0.20342899125E+03  0.12499997183E+03 0.  0.
          2    1    1    2  501    0  0.90374933527E+02 -0.12479341994E+03 -0.92859618432E+03  0.94129267490E+03  0.00000000000E+00 0. -1.
          1    1    1    2  502    0 -0.87145729058E+02  0.33623037567E+02  0.41008055586E+03  0.42058405705E+03  0.00000000000E+00 0. -1.
         22    1    3    3    0    0 -0.52234319705E+02  0.57327862871E+01 -0.25756048596E+02  0.58520620579E+02  0.00000000000E+00 0. -1.
         22    1    3    3    0    0  0.49005115235E+02  0.85437596083E+02 -0.10628900107E+03  0.14490837068E+03  0.00000000000E+00 0. -1.
</event>
<event>
 7    1  0.6330892E-006  0.8047131E+02  0.7818608E-02  0.1349279E+00
          2   -1    0    0  502    0  0.00000000000E+00  0.00000000000E+00  0.19824234059E+04  0.19824234059E+04  0.00000000000E+00 0. -1.
          1   -1    0    0  501    0 -0.00000000000E+00 -0.00000000000E+00 -0.12518830959E+04  0.12518830959E+04  0.00000000000E+00 0. -1.
         25    2    1    2    0    0 -0.28647388239E+02  0.46677310301E+02  0.47749800602E+02  0.14460298537E+03  0.12502214112E+03 0.  0.
          2    1    1    2  501    0 -0.52516629874E+02 -0.41173739763E+02 -0.12016531735E+04  0.12035047248E+04  0.00000000000E+00 0. -1.
          1    1    1    2  502    0  0.81164018113E+02 -0.55035705372E+01  0.18844436830E+04  0.18861987916E+04  0.00000000000E+00 0. -1.
         22    1    3    3    0    0  0.34423387221E+02  0.91893539093E+00 -0.21298880539E+02  0.40490200571E+02  0.00000000000E+00 0. -1.
         22    1    3    3    0    0 -0.63070775460E+02  0.45758374910E+02  0.69048681141E+02  0.10411278480E+03  0.00000000000E+00 0. -1.
</event>
<event>
 7    1  0.6330892E-006  0.7428239E+02  0.7818608E-02  0.1348408E+00
          2   -1    0    0  502    0  0.00000000000E+00  0.00000000000E+00  0.12208972997E+04  0.12208972997E+04  0.00000000000E+00 0. -1.
          1   -1    0    0  501    0 -0.00000000000E+00 -0.00000000000E+00 -0.38699371544E+03  0.38699371544E+03  0.00000000000E+00 0. -1.
         25    2    1    2    0    0 -0.63328211031E+02 -0.77842514943E+02  0.25480834258E+02  0.16228759482E+03  0.12497228121E+03 0.  0.
          2    1    1    2  501    0 -0.10806160504E+02  0.72026552517E+02 -0.31318043384E+03  0.32153783839E+03  0.00000000000E+00 0. -1.
          1    1    1    2  502    0  0.74134371535E+02  0.58159624263E+01  0.11216031838E+04  0.11240655819E+04  0.00000000000E+00 0. -1.
         22    1    3    3    0    0 -0.96058687043E-01 -0.15170865739E+02 -0.45794945417E+02  0.48242527093E+02  0.00000000000E+00 0.  1.
         22    1    3    3    0    0 -0.63232152344E+02 -0.62671649204E+02  0.71275779675E+02  0.11404506772E+03  0.00000000000E+00 0.  1.
</event>
<event>
 7    1  0.6330892E-006  0.6971023E+02  0.7818608E-02  0.1463705E+00
          2   -1    0    0  502    0  0.00000000000E+00  0.00000000000E+00  0.27640890884E+02  0.27640890884E+02  0.00000000000E+00 0. -1.
          1   -1    0    0  501    0 -0.00000000000E+00 -0.00000000000E+00 -0.16806814171E+04  0.16806814171E+04  0.00000000000E+00 0. -1.
         25    2    1    2    0    0 -0.33218849326E+02 -0.36400318114E+02 -0.41746618585E+03  0.43855614235E+03  0.12499999422E+03 0.  0.
          2    1    1    2  501    0 -0.31350831210E+02  0.24302626310E+00 -0.11713794570E+04  0.11717989444E+04  0.00000000000E+00 0. -1.
          1    1    1    2  502    0  0.64569680536E+02  0.36157291851E+02 -0.64194883386E+02  0.97967221311E+02  0.00000000000E+00 0. -1.
         22    1    3    3    0    0 -0.16875603217E+02 -0.12982876264E+02 -0.40787728872E+03  0.40843264281E+03  0.00000000000E+00 0. -1.
         22    1    3    3    0    0 -0.16343246109E+02 -0.23417441850E+02 -0.95888971265E+01  0.30123499536E+02  0.00000000000E+00 0. -1.
</event>
<event>
 7    1  0.6330892E-006  0.1044872E+03  0.7818608E-02  0.1331108E+00
          2   -1    0    0  502    0  0.00000000000E+00  0.00000000000E+00  0.31611747151E+03  0.31611747151E+03  0.00000000000E+00 0. -1.
          1   -1    0    0  501    0 -0.00000000000E+00 -0.00000000000E+00 -0.10352222789E+04  0.10352222789E+04  0.00000000000E+00 0. -1.
         25    2    1    2    0    0 -0.65685905931E+02 -0.12378685959E+03 -0.26369243867E+03  0.32372340181E+03  0.12500125528E+03 0.  0.
          2    1    1    2  501    0 -0.14718159347E+02  0.58324944654E+02 -0.73084437715E+03  0.73331570758E+03  0.00000000000E+00 0. -1.
          1    1    1    2  502    0  0.80404065279E+02  0.65461914938E+02  0.27543200844E+03  0.29430064100E+03  0.00000000000E+00 0. -1.
         22    1    3    3    0    0 -0.52575602215E+02  0.98564383533E+01 -0.73734088920E+02  0.91093683613E+02  0.00000000000E+00 0. -1.
         22    1    3    3    0    0 -0.13110303717E+02 -0.13364329795E+03 -0.18995834975E+03  0.23262971820E+03  0.00000000000E+00 0. -1.
</event>
<event>
 7    1  0.6330892E-006  0.6181968E+02  0.7818608E-02  0.1489297E+00
          2   -1    0    0  502    0  0.00000000000E+00  0.00000000000E+00  0.14264961122E+04  0.14264961122E+04  0.00000000000E+00 0. -1.
          1   -1    0    0  501    0 -0.00000000000E+00 -0.00000000000E+00 -0.17388713366E+04  0.17388713366E+04  0.00000000000E+00 0. -1.
         25    2    1    2    0    0  0.14851506484E+02  0.66776720388E+02  0.21722057749E+03  0.25978097995E+03  0.12498672181E+03 0.  0.
          2    1    1    2  501    0  0.13894841876E+02 -0.60238087760E+02 -0.17168518391E+04  0.17179644733E+04  0.00000000000E+00 0. -1.
          1    1    1    2  502    0 -0.28746348360E+02 -0.65386326284E+01  0.11872560372E+04  0.11876219955E+04  0.00000000000E+00 0. -1.
         22    1    3    3    0    0 -0.12851529950E+02  0.98259896442E+02  0.13480817477E+03  0.16731232189E+03  0.00000000000E+00 0. -1.
         22    1    3    3    0    0  0.27703036434E+02 -0.31483176054E+02  0.82412402721E+02  0.92468658065E+02  0.00000000000E+00 0. -1.
</event>
<event>
 7    1  0.6330892E-006  0.6513539E+02  0.7818608E-02  0.1382760E+00
          2   -1    0    0  502    0  0.00000000000E+00  0.00000000000E+00  0.29803991987E+03  0.29803991987E+03  0.00000000000E+00 0. -1.
          1   -1    0    0  501    0 -0.00000000000E+00 -0.00000000000E+00 -0.95110529164E+03  0.95110529164E+03  0.00000000000E+00 0. -1.
         25    2    1    2    0    0 -0.13314966897E+02  0.80875921941E+02 -0.37357279585E+03  0.40236863819E+03  0.12500273638E+03 0.  0.
          2    1    1    2  501    0  0.55907894263E+02 -0.35297747488E+02 -0.55772810268E+03  0.56163356393E+03  0.00000000000E+00 0. -1.
          1    1    1    2  502    0 -0.42592927366E+02 -0.45578174453E+02  0.27823552676E+03  0.28514300939E+03  0.00000000000E+00 0. -1.
         22    1    3    3    0    0 -0.32434214089E+02  0.18524210263E+02 -0.19109942163E+02  0.41956102046E+02  0.00000000000E+00 0. -1.
         22    1    3    3    0    0  0.19119247192E+02  0.62351711679E+02 -0.35446285369E+03  0.36041253614E+03  0.00000000000E+00 0. -1.
</event>
<event>
 7    1  0.6330892E-006  0.1735111E+03  0.7818608E-02  0.1262057E+00
          2   -1    0    0  502    0  0.00000000000E+00  0.00000000000E+00  0.92711954864E+03  0.92711954864E+03  0.00000000000E+00 0. -1.
          1   -1    0    0  501    0 -0.00000000000E+00 -0.00000000000E+00 -0.11311446317E+03  0.11311446317E+03  0.00000000000E+00 0. -1.
         25    2    1    2    0    0 -0.19100004996E+03 -0.45674557121E+02  0.34438784125E+03  0.41568581715E+03  0.12499811650E+03 0.  0.
          2    1    1    2  501    0  0.16892667209E+03 -0.19411178256E+02  0.21732872336E+02  0.17142150427E+03  0.00000000000E+00 0. -1.
          1    1    1    2  502    0  0.22073377868E+02  0.65085735377E+02  0.44788437189E+03  0.45312669039E+03  0.00000000000E+00 0. -1.
         22    1    3    3    0    0 -0.72621959873E+01  0.72144440179E+01  0.12190361528E+03  0.12233265758E+03  0.00000000000E+00 0.  1.
         22    1    3    3    0    0 -0.18373785397E+03 -0.52889001139E+02  0.22248422597E+03  0.29335315957E+03  0.00000000000E+00 0.  1.
</event>
<event>
 7    1  0.6330892E-006  0.8826631E+02  0.7818608E-02  0.1447593E+00
          2   -1    0    0  502    0  0.00000000000E+00  0.00000000000E+00  0.26934819628E+02  0.26934819628E+02  0.00000000000E+00 0. -1.
          1   -1    0    0  501    0 -0.00000000000E+00 -0.00000000000E+00 -0.11445783311E+04  0.11445783311E+04  0.00000000000E+00 0. -1.
         25    2    1    2    0    0  0.73312590953E+02 -0.31972560383E+02 -0.56445030445E+03  0.58363231497E+03  0.12500220908E+03 0.  0.
          2    1    1    2  501    0 -0.70767569788E+02  0.59711191466E+02 -0.55230372344E+03  0.56001149832E+03  0.00000000000E+00 0. -1.
          1    1    1    2  502    0 -0.25450211652E+01 -0.27738631083E+02 -0.88948355782E+00  0.27869337418E+02  0.00000000000E+00 0. -1.
         22    1    3    3    0    0  0.28987735756E+02 -0.47354152144E+02 -0.82739289174E+02  0.99641831188E+02  0.00000000000E+00 0.  1.
         22    1    3    3    0    0  0.44324855197E+02  0.15381591761E+02 -0.48171101527E+03  0.48399048378E+03  0.00000000000E+00 0.  1.
</event>
<event>
 7    1  0.6330892E-006  0.3195501E+02  0.7818608E-02  0.1638698E+00
          2   -1    0    0  502    0  0.00000000000E+00  0.00000000000E+00  0.44359620462E+04  0.44359620462E+04  0.00000000000E+00 0. -1.
          1   -1    0    0  501    0 -0.00000000000E+00 -0.00000000000E+00 -0.44361254839E+01  0.44361254839E+01  0.00000000000E+00 0. -1.
         25    2    1    2    0    0  0.25436237210E+01  0.49419996270E+02  0.27166873105E+04  0.27200120855E+04  0.12500798339E+03 0.  0.
          2    1    1    2  501    0 -0.11674649507E+02 -0.29201791908E+02  0.88945496339E+02  0.94341631376E+02  0.00000000000E+00 0. -1.
          1    1    1    2  502    0  0.91310257856E+01 -0.20218204363E+02  0.16258931139E+04  0.16260444549E+04  0.00000000000E+00 0. -1.
         22    1    3    3    0    0  0.21631068296E+02  0.87156214739E+02  0.20671297466E+04  0.20690793842E+04  0.00000000000E+00 0.  1.
         22    1    3    3    0    0 -0.19087444575E+02 -0.37736218469E+02  0.64955756395E+03  0.65093270129E+03  0.00000000000E+00 0.  1.
</event>
<event>
 7    1  0.6330892E-006  0.9140488E+02  0.7818608E-02  0.1388958E+00
          2   -1    0    0  502    0  0.00000000000E+00  0.00000000000E+00  0.12946979904E+04  0.12946979904E+04  0.00000000000E+00 0. -1.
          1   -1    0    0  501    0 -0.00000000000E+00 -0.00000000000E+00 -0.10614021612E+04  0.10614021612E+04  0.00000000000E+00 0. -1.
         25    2    1    2    0    0  0.83915425036E+02 -0.67640675738E+02  0.43967425766E+03  0.46963365853E+03  0.12500104322E+03 0.  0.
          2    1    1    2  501    0 -0.43576672356E+02  0.80308272926E+02 -0.10438936595E+04  0.10478846871E+04  0.00000000000E+00 0. -1.
          1    1    1    2  502    0 -0.40338752680E+02 -0.12667597189E+02  0.83751523105E+03  0.83858180593E+03  0.00000000000E+00 0. -1.
         22    1    3    3    0    0  0.18835436720E+02  0.29229404951E+02  0.20065900238E+03  0.20364961828E+03  0.00000000000E+00 0.  1.
         22    1    3    3    0    0  0.65079988316E+02 -0.96870080689E+02  0.23901525528E+03  0.26598404025E+03  0.00000000000E+00 0.  1.
</event>
<event>
 7    1  0.6330892E-006  0.7688020E+02  0.7818608E-02  0.1354443E+00
          2   -1    0    0  502    0  0.00000000000E+00  0.00000000000E+00  0.55924639082E+03  0.55924639082E+03  0.00000000000E+00 0. -1.
          1   -1    0    0  501    0 -0.00000000000E+00 -0.00000000000E+00 -0.71763867918E+03  0.71763867918E+03  0.00000000000E+00 0. -1.
         25    2    1    2    0    0  0.56210936173E+02 -0.16603761351E+02 -0.40352080098E+03  0.42648445489E+03  0.12499839681E+03 0.  0.
          2    1    1    2  501    0  0.24072691304E+01  0.66804099013E+02 -0.29617396799E+03  0.30362411285E+03  0.00000000000E+00 0. -1.
          1    1    1    2  502    0 -0.58618205303E+02 -0.50200337662E+02  0.54130248062E+03  0.54677650225E+03  0.00000000000E+00 0. -1.
         22    1    3    3    0    0  0.51451143798E+02 -0.48428532996E+02 -0.10701159439E+03  0.12823425572E+03  0.00000000000E+00 0. -1.
         22    1    3    3    0    0  0.47597923742E+01  0.31824771644E+02 -0.29650920659E+03  0.29825019917E+03  0.00000000000E+00 0. -1.
</event>
<event>
 7    1  0.6330892E-006  0.8753610E+02  0.7818608E-02  0.1366366E+00
          2   -1    0    0  502    0  0.00000000000E+00  0.00000000000E+00  0.25869716360E+04  0.25869716360E+04  0.00000000000E+00 0. -1.
          1   -1    0    0  501    0 -0.00000000000E+00 -0.00000000000E+00 -0.31066433849E+03  0.31066433849E+03  0.00000000000E+00 0. -1.
         25    2    1    2    0    0  0.21361963316E+01 -0.56454516904E+02  0.26537293190E+03  0.29873013955E+03  0.12500090990E+03 0.  0.
          2    1    1    2  501    0 -0.53323019381E+02  0.70640568577E+02 -0.28701046642E+03  0.30034720268E+03  0.00000000000E+00 0. -1.
          1    1    1    2  502    0  0.51186823050E+02 -0.14186051673E+02  0.22979448320E+04  0.22985586322E+04  0.00000000000E+00 0. -1.
         22    1    3    3    0    0 -0.43829623249E+02 -0.72716116861E+02  0.13435355830E+03  0.15893252705E+03  0.00000000000E+00 0. -1.
         22    1    3    3    0    0  0.45965819581E+02  0.16261599957E+02  0.13101937359E+03  0.13979761250E+03  0.00000000000E+00 0. -1.
</event>
<event>
 7    1  0.6330892E-006  0.7835087E+02  0.7818608E-02  0.1352360E+00
          2   -1    0    0  502    0  0.00000000000E+00  0.00000000000E+00  0.26679229594E+03  0.26679229594E+03  0.00000000000E+00 0. -1.
          1   -1    0    0  501    0 -0.00000000000E+00 -0.00000000000E+00 -0.17459937067E+03  0.17459937067E+03  0.00000000000E+00 0. -1.
         25    2    1    2    0    0 -0.29152936905E+02  0.55729693662E+02 -0.54992167597E+02  0.15034806862E+03  0.12499884302E+03 0.  0.
          2    1    1    2  501    0 -0.48192560064E+02 -0.68240978002E+02 -0.36634875156E+02  0.91222080670E+02  0.00000000000E+00 0. -1.
          1    1    1    2  502    0  0.77345496969E+02  0.12511284340E+02  0.18381996803E+03  0.19982151732E+03  0.00000000000E+00 0. -1.
         22    1    3    3    0    0 -0.53433166417E+02  0.10892007302E+02 -0.77376141363E+02  0.94661535740E+02  0.00000000000E+00 0.  1.
         22    1    3    3    0    0  0.24280229511E+02  0.44837686360E+02  0.22383973766E+02  0.55686532885E+02  0.00000000000E+00 0.  1.
</event>
<event>
 7    1  0.6330892E-006  0.1027820E+03  0.7818608E-02  0.1438977E+00
          2   -1    0    0  502    0  0.00000000000E+00  0.00000000000E+00  0.49124958998E+03  0.49124958998E+03  0.00000000000E+00 0. -1.
          1   -1    0    0  501    0 -0.00000000000E+00 -0.00000000000E+00 -0.14216048022E+04  0.14216048022E+04  0.00000000000E+00 0. -1.
         25    2    1    2    0    0 -0.42944835560E+02  0.67071765943E+02 -0.47385272704E+03  0.49649211785E+03  0.12500054188E+03 0.  0.
          2    1    1    2  501    0 -0.25937286100E+01  0.25372083223E+02 -0.93072381356E+03  0.93107319109E+03  0.00000000000E+00 0. -1.
          1    1    1    2  502    0  0.45538564170E+02 -0.92443849166E+02  0.47422132835E+03  0.48528908327E+03  0.00000000000E+00 0. -1.
         22    1    3    3    0    0  0.27217315216E+02  0.11237608754E+02 -0.29455365405E+03  0.29602182557E+03  0.00000000000E+00 0.  1.
         22    1    3    3    0    0 -0.70162150777E+02  0.55834157189E+02 -0.17929907299E+03  0.20047029228E+03  0.00000000000E+00 0.  1.
</event>
<event>
 7    1  0.6330892E-006  0.9144278E+02  0.7818608E-02  0.1480869E+00
          2   -1    0    0  502    0  0.00000000000E+00  0.00000000000E+00  0.16318317052E+04  0.16318317052E+04  0.00000000000E+00 0. -1.
          1   -1    0    0  501    0 -0.00000000000E+00 -0.00000000000E+00 -0.52500792715E+03  0.52500792715E+03  0.00000000000E+00 0. -1.
         25    2    1    2    0    0 -0.20161727738E+02  0.10708084285E+03  0.43207490371E+02  0.17136237876E+03  0.12500150182E+03 0.  0.
          2    1    1    2  501    0  0.70907644756E+01 -0.90461062398E+02 -0.45639055784E+03  0.46532335427E+03  0.00000000000E+00 0. -1.
          1    1    1    2  502    0  0.13070963262E+02 -0.16619780450E+02  0.15200068455E+04  0.15201538993E+04  0.00000000000E+00 0. -1.
         22    1    3    3    0    0 -0.49955381201E+02  0.12112277490E+03  0.44580641071E+02  0.13839689400E+03  0.00000000000E+00 0.  1.
         22    1    3    3    0    0  0.29793653463E+02 -0.14041932051E+02 -0.13731507002E+01  0.32965484757E+02  0.00000000000E+00 0.  1.
</event>
<event>
 7    1  0.6330892E-006  0.6456032E+02  0.7818608E-02  0.1452303E+00
          2   -1    0    0  502    0  0.00000000000E+00  0.00000000000E+00  0.24909518946E+03  0.24909518946E+03  0.00000000000E+00 0. -1.
          1   -1    0    0  501    0 -0.00000000000E+00 -0.00000000000E+00 -0.26823056601E+03  0.26823056601E+03  0.00000000000E+00 0. -1.
         25    2    1    2    0    0 -0.41534975607E+02 -0.43753239335E+01  0.12391840127E+03  0.18091072226E+03  0.12501448555E+03 0.  0.
          2    1    1    2  501    0 -0.33091241926E+02 -0.16064389219E+02 -0.22249765780E+03  0.22551785433E+03  0.00000000000E+00 0. -1.
          1    1    1    2  502    0  0.74626217533E+02  0.20439713152E+02  0.79443879976E+02  0.11089717888E+03  0.00000000000E+00 0. -1.
         22    1    3    3    0    0 -0.73488626671E+02  0.33643179640E+02  0.64054701547E+02  0.10312830153E+03  0.00000000000E+00 0. -1.
         22    1    3    3    0    0  0.31953651063E+02 -0.38018503574E+02  0.59863699727E+02  0.77782420735E+02  0.00000000000E+00 0. -1.
</event>
<event>
 7    1  0.6330892E-006  0.7245972E+02  0.7818608E-02  0.1432425E+00
          2   -1    0    0  502    0  0.00000000000E+00  0.00000000000E+00  0.13882317285E+04  0.13882317285E+04  0.00000000000E+00 0. -1.
          1   -1    0    0  501    0 -0.00000000000E+00 -0.00000000000E+00 -0.69850922357E+03  0.69850922357E+03  0.00000000000E+00 0. -1.
         25    2    1    2    0    0 -0.76485460710E+02 -0.53497832279E+02  0.27405456665E+03  0.31534541992E+03  0.12499913841E+03 0.  0.
          2    1    1    2  501    0  0.70587424323E+02  0.15954195415E+02 -0.67560059543E+03  0.67946544090E+03  0.00000000000E+00 0. -1.
          1    1    1    2  502    0  0.58980363864E+01  0.37543636864E+02  0.10912685337E+04  0.10919300913E+04  0.00000000000E+00 0. -1.
         22    1    3    3    0    0 -0.97316835058E+02 -0.27909598759E+02  0.11636652358E+03  0.15424227663E+03  0.00000000000E+00 0.  1.
         22    1    3    3    0    0  0.20831374348E+02 -0.25588233520E+02  0.15768804307E+03  0.16110314330E+03  0.00000000000E+00 0.  1.
</event>
<event>
 7    1  0.6330892E-006  0.4313227E+02  0.7818608E-02  0.1565507E+00
          2   -1    0    0  502    0  0.00000000000E+00  0.00000000000E+00  0.12959837528E+04  0.12959837528E+04  0.00000000000E+00 0. -1.
          1   -1    0    0  501    0 -0.00000000000E+00 -0.00000000000E+00 -0.68395238972E+03  0.68395238972E+03  0.00000000000E+00 0. -1.
         25    2    1    2    0    0 -0.19198820949E+02 -0.38368193055E+02  0.84622041694E+03  0.85647904757E+03  0.12500660745E+03 0.  0.
          2    1    1    2  501    0 -0.19517230180E+02  0.16417700863E+02 -0.67746882308E+03  0.67794872182E+03  0.00000000000E+00 0. -1.
          1    1    1    2  502    0  0.38716051129E+02  0.21950492193E+02  0.44327976921E+03  0.44550837311E+03  0.00000000000E+00 0. -1.
         22    1    3    3    0    0 -0.71420640309E+02 -0.22591151469E+02  0.40180956014E+03  0.40873241932E+03  0.00000000000E+00 0. -1.
         22    1    3    3    0    0  0.52221819360E+02 -0.15777041586E+02  0.44441085680E+03  0.44774662824E+03  0.00000000000E+00 0. -1.
</event>
<event>
 7    1  0.6330892E-006  0.7161811E+02  0.7818608E-02  0.1362084E+00
          2   -1    0    0  502    0  0.00000000000E+00  0.00000000000E+00  0.17069117432E+04  0.17069117432E+04  0.00000000000E+00 0. -1.
          1   -1    0    0  501    0 -0.00000000000E+00 -0.00000000000E+00 -0.24028108870E+03  0.24028108870E+03  0.00000000000E+00 0. -1.
         25    2    1    2    0    0 -0.11267544655E+02  0.67165315262E+02  0.60155787454E+03  0.61817055937E+03  0.12499930766E+03 0.  0.
          2    1    1    2  501    0 -0.56605786421E+02 -0.43874116411E+02 -0.22523938111E+03  0.23635128929E+03  0.00000000000E+00 0. -1.
          1    1    1    2  502    0  0.67873331075E+02 -0.23291198852E+02  0.10903121611E+04  0.10926709832E+04  0.00000000000E+00 0. -1.
         22    1    3    3    0    0 -0.37935687332E+02  0.81502312883E+02  0.55756213373E+03  0.56476302672E+03  0.00000000000E+00 0.  1.
         22    1    3    3    0    0  0.26668142678E+02 -0.14336997621E+02  0.43995740810E+02  0.53407532653E+02  0.00000000000E+00 0.  1.
</event>
<event>
 7    1  0.6330892E-006  0.2432619E+03  0.7818608E-02  0.1249917E+00
          2   -1    0    0  502    0  0.00000000000E+00  0.00000000000E+00  0.22318558320E+04  0.22318558320E+04  0.00000000000E+00 0. -1.
          1   -1    0    0  501    0 -0.00000000000E+00 -0.00000000000E+00 -0.28295557488E+04  0.28295557488E+04  0.00000000000E+00 0. -1.
         25    2    1    2    0    0 -0.19261019350E+03  0.41508548615E+02  0.21995901066E+03  0.32066857659E+03  0.12499889359E+03 0.  0.
          2    1    1    2  501    0  0.24341439826E+03 -0.19730741408E+02 -0.27734448987E+04  0.27841760860E+04  0.00000000000E+00 0. -1.
          1    1    1    2  502    0 -0.50804204762E+02 -0.21777807207E+02  0.19557859713E+04  0.19565669182E+04  0.00000000000E+00 0. -1.
         22    1    3    3    0    0 -0.15861415389E+03  0.67181464161E+02  0.11425435516E+03  0.20670233819E+03  0.00000000000E+00 0. -1.
         22    1    3    3    0    0 -0.33996039612E+02 -0.25672915546E+02  0.10570465550E+03  0.11396623840E+03  0.00000000000E+00 0. -1.
</event>
<event>
 7    1  0.6330892E-006  0.1513763E+03  0.7818608E-02  0.1236640E+00
          2   -1    0    0  502    0  0.00000000000E+00  0.00000000000E+00  0.62249827247E+03  0.62249827247E+03  0.00000000000E+00 0. -1.
          1   -1    0    0  501    0 -0.00000000000E+00 -0.00000000000E+00 -0.27900446093E+03  0.27900446093E+03  0.00000000000E+00 0. -1.
         25    2    1    2    0    0 -0.21847649752E+03  0.19999394004E+02  0.75318459413E+02  0.26349639553E+03  0.12500209758E+03 0.  0.
          2    1    1    2  501    0  0.90245177489E+02  0.46619502541E+02 -0.15809221957E+03  0.18791146842E+03  0.00000000000E+00 0. -1.
          1    1    1    2  502    0  0.12823132003E+03 -0.66618896545E+02  0.42626757170E+03  0.45009486944E+03  0.00000000000E+00 0. -1.
         22    1    3    3    0    0 -0.14719169397E+03 -0.35763782076E+02  0.98481414281E+01  0.15179403405E+03  0.00000000000E+00 0. -1.
         22    1    3    3    0    0 -0.71284803551E+02  0.55763176081E+02  0.65470317984E+02  0.11170236148E+03  0.00000000000E+00 0. -1.
</event>
<event>
 7    1  0.6330892E-006  0.1491301E+03  0.7818608E-02  0.1269446E+00
          2   -1    0    0  502    0  0.00000000000E+00  0.00000000000E+00  0.10005136421E+04  0.10005136421E+04  0.00000000000E+00 0. -1.
          1   -1    0    0  501    0 -0.00000000000E+00 -0.00000000000E+00 -0.19146163194E+03  0.19146163194E+03  0.00000000000E+00 0. -1.
         25    2    1    2    0    0  0.20946892110E+02  0.12882363906E+03  0.25409893538E+03  0.31180865296E+03  0.12499625928E+03 0.  0.
          2    1    1    2  501    0 -0.71220996849E+02  0.21558012219E+02 -0.14473149362E+03  0.16274023328E+03  0.00000000000E+00 0. -1.
          1    1    1    2  502    0  0.50274104739E+02 -0.15038165128E+03  0.69968456845E+03  0.71742638784E+03  0.00000000000E+00 0. -1.
         22    1    3    3    0    0  0.51041329383E+02  0.90673773061E+02  0.80555004602E+02  0.13159049811E+03  0.00000000000E+00 0.  1.
         22    1    3    3    0    0 -0.30094437273E+02  0.38149865996E+02  0.17354393077E+03  0.18021815485E+03  0.00000000000E+00 0.  1.
</event>
<event>
 7    1  0.8827671E-006  0.1531662E+03  0.7818608E-02  0.1273666E+00
          2   -1    0    0  502    0  0.00000000000E+00  0.00000000000E+00  0.19561844780E+04  0.19561844780E+04  0.00000000000E+00 0. -1.
          1   -1    0    0  501    0 -0.00000000000E+00 -0.00000000000E+00 -0.10454832311E+04  0.10454832311E+04  0.00000000000E+00 0. -1.
         25    2    1    2    0    0  0.73715959874E+02 -0.19296194142E+03 -0.20135642684E+03  0.31438269051E+03  0.12499484743E+03 0.  0.
          2    1    1    2  501    0 -0.55900179203E+02  0.41400444915E+02 -0.78300448542E+03  0.78608832269E+03  0.00000000000E+00 0. -1.
          1    1    1    2  502    0 -0.17815780671E+02  0.15156149650E+03  0.18950621591E+04  0.19011966958E+04  0.00000000000E+00 0. -1.
         22    1    3    3    0    0  0.34815480747E+02 -0.17225575628E+03 -0.20517458436E+03  0.27014953884E+03  0.00000000000E+00 0. -1.
         22    1    3    3    0    0  0.38900479127E+02 -0.20706185137E+02  0.38181575152E+01  0.44233151664E+02  0.00000000000E+00 0. -1.
</event>
<event>
 7    1  0.6330892E-006  0.7385609E+02  0.7818608E-02  0.1382929E+00
          2   -1    0    0  502    0  0.00000000000E+00  0.00000000000E+00  0.59565384063E+03  0.59565384063E+03  0.00000000000E+00 0. -1.
          1   -1    0    0  501    0 -0.00000000000E+00 -0.00000000000E+00 -0.17431217909E+03  0.17431217909E+03  0.00000000000E+00 0. -1.
         25    2    1    2    0    0 -0.75704170445E+02 -0.77021992730E+02  0.47821914731E+02  0.17197586748E+03  0.12500101871E+03 0.  0.
          2    1    1    2  501    0  0.64054475223E+01  0.54565950399E+02 -0.10257107550E+03  0.11635849015E+03  0.00000000000E+00 0. -1.
          1    1    1    2  502    0  0.69298722923E+02  0.22456042331E+02  0.47609082232E+03  0.48163166209E+03  0.00000000000E+00 0. -1.
         22    1    3    3    0    0 -0.10542568549E+03 -0.77199835927E+02  0.54389940404E+02  0.14153676358E+03  0.00000000000E+00 0.  1.
         22    1    3    3    0    0  0.29721515045E+02  0.17784319632E+00 -0.65680256730E+01  0.30439103896E+02  0.00000000000E+00 0.  1.
</event>
<event>
 7    1  0.6330892E-006  0.2495324E+03  0.7818608E-02  0.1245241E+00
          2   -1    0    0  502    0  0.00000000000E+00  0.00000000000E+00  0.75717508893E+03  0.75717508893E+03  0.00000000000E+00 0. -1.
          1   -1    0    0  501    0 -0.00000000000E+00 -0.00000000000E+00 -0.16008452512E+04  0.16008452512E+04  0.00000000000E+00 0. -1.
         25    2    1    2    0    0  0.19797272704E+03  0.78103990121E+02  0.24292800659E+03  0.34631230599E+03  0.12499905186E+03 0.  0.
          2    1    1    2  501    0 -0.24615509857E+03 -0.48646807806E+02 -0.15372188445E+04  0.15575623969E+04  0.00000000000E+00 0. -1.
          1    1    1    2  502    0  0.48182371531E+02 -0.29457182314E+02  0.45062067562E+03  0.45414563722E+03  0.00000000000E+00 0. -1.
         22    1    3    3    0    0  0.21006633350E+02 -0.31887517478E+02  0.31961680902E+02  0.49795998450E+02  0.00000000000E+00 0. -1.
         22    1    3    3    0    0  0.17696609369E+03  0.10999150760E+03  0.21096632569E+03  0.29651630754E+03  0.00000000000E+00 0. -1.
</event>
<event>
 7    1  0.6330892E-006  0.4672230E+02  0.7818608E-02  0.1498483E+00
          2   -1    0    0  502    0  0.00000000000E+00  0.00000000000E+00  0.34888731702E+03  0.34888731702E+03  0.00000000000E+00 0. -1.
          1   -1    0    0  501    0 -0.00000000000E+00 -0.00000000000E+00 -0.16413267622E+04  0.16413267622E+04  0.00000000000E+00 0. -1.
         25    2    1    2    0    0  0.20621628208E+02 -0.64905804020E+02  0.23653122971E+03  0.27606161492E+03  0.12499991062E+03 0.  0.
          2    1    1    2  501    0 -0.34793363467E+02  0.31159689194E+02 -0.16175941810E+04  0.16182683457E+04  0.00000000000E+00 0. -1.
          1    1    1    2  502    0  0.14171735260E+02  0.33746114826E+02  0.88623506150E+02  0.95884118541E+02  0.00000000000E+00 0. -1.
         22    1    3    3    0    0  0.10789757602E+02 -0.10526433796E+02  0.21689100120E+03  0.21741419245E+03  0.00000000000E+00 0.  1.
         22    1    3    3    0    0  0.98318706055E+01 -0.54379370224E+02  0.19640228510E+02  0.58647422462E+02  0.00000000000E+00 0.  1.
</event>
<event>
 7    1  0.6330892E-006  0.3663196E+02  0.7818608E-02  0.1607330E+00
          2   -1    0    0  502    0  0.00000000000E+00  0.00000000000E+00  0.14513972788E+04  0.14513972788E+04  0.00000000000E+00 0. -1.
          1   -1    0    0  501    0 -0.00000000000E+00 -0.00000000000E+00 -0.27333898301E+03  0.27333898301E+03  0.00000000000E+00 0. -1.
         25    2    1    2    0    0 -0.31348361646E+02  0.30625687866E+02  0.45446447967E+02  0.14004018151E+03  0.12500088108E+03 0.  0.
          2    1    1    2  501    0  0.22707018535E+02  0.49694318113E+01 -0.22519690616E+03  0.22639335345E+03  0.00000000000E+00 0. -1.
          1    1    1    2  502    0  0.86413431110E+01 -0.35595119677E+02  0.13578087540E+04  0.13583027269E+04  0.00000000000E+00 0. -1.
         22    1    3    3    0    0  0.23257120175E+02 -0.17695553522E+02  0.59032049761E+02  0.65869637560E+02  0.00000000000E+00 0.  1.
         22    1    3    3    0    0 -0.54605481821E+02  0.48321241388E+02 -0.13585601794E+02  0.74170543953E+02  0.00000000000E+00 0.  1.
</event>
<event>
 7    1  0.6330892E-006  0.8090278E+02  0.7818608E-02  0.1337585E+00
          2   -1    0    0  502    0  0.00000000000E+00  0.00000000000E+00  0.89508143600E+02  0.89508143600E+02  0.00000000000E+00 0. -1.
          1   -1    0    0  501    0 -0.00000000000E+00 -0.00000000000E+00 -0.20750993456E+04  0.20750993456E+04  0.00000000000E+00 0. -1.
         25    2    1    2    0    0 -0.39361936234E+02  0.38440174641E+02 -0.57418176280E+03  0.59020081649E+03  0.12500119199E+03 0.  0.
          2    1    1    2  501    0 -0.15153147313E+02 -0.87610857988E+02 -0.14747600806E+04  0.14774378416E+04  0.00000000000E+00 0. -1.
          1    1    1    2  502    0  0.54515083547E+02  0.49170683347E+02  0.63350641452E+02  0.96968831112E+02  0.00000000000E+00 0. -1.
         22    1    3    3    0    0 -0.37137858822E+02  0.60440559374E+02 -0.15528868882E+03  0.17072451098E+03  0.00000000000E+00 0.  1.
         22    1    3    3    0    0 -0.22240774112E+01 -0.22000384733E+02 -0.41889307399E+03  0.41947630551E+03  0.00000000000E+00 0.  1.
</event>
<event>
 7    1  0.6330892E-006  0.3730913E+02  0.7818608E-02  0.1593159E+00
          2   -1    0    0  502    0  0.00000000000E+00  0.00000000000E+00  0.47436381473E+03  0.47436381473E+03  0.00000000000E+00 0. -1.
          1   -1    0    0  501    0 -0.00000000000E+00 -0.00000000000E+00 -0.12404001022E+04  0.12404001022E+04  0.00000000000E+00 0. -1.
         25    2    1    2    0    0  0.36211838896E+02 -0.38224027192E+02 -0.36118336782E+03  0.38581800183E+03  0.12501892584E+03 0.  0.
          2    1    1    2  501    0 -0.34445178057E+02  0.13433825824E+02 -0.86617057039E+03  0.86695928104E+03  0.00000000000E+00 0. -1.
          1    1    1    2  502    0 -0.17666608385E+01  0.24790201368E+02  0.46131765074E+03  0.46198663407E+03  0.00000000000E+00 0. -1.
         22    1    3    3    0    0  0.38337054842E+02  0.15527770755E+02 -0.32073416234E+02  0.52340667434E+02  0.00000000000E+00 0.  1.
         22    1    3    3    0    0 -0.21252159461E+01 -0.53751797947E+02 -0.32910995159E+03  0.33347733440E+03  0.00000000000E+00 0.  1.
</event>
<event>
 7    1  0.6330892E-006  0.6392390E+02  0.7818608E-02  0.1457389E+00
          2   -1    0    0  502    0  0.00000000000E+00  0.00000000000E+00  0.48072555958E+03  0.48072555958E+03  0.00000000000E+00 0. -1.
          1   -1    0    0  501    0 -0.00000000000E+00 -0.00000000000E+00 -0.62435842329E+03  0.62435842329E+03  0.00000000000E+00 0. -1.
         25    2    1    2    0    0 -0.94792577245E+02 -0.74134256912E+01 -0.12111407260E+03  0.19833035264E+03  0.12500287443E+03 0.  0.
          2    1    1    2  501    0  0.60133974322E+02  0.16354990589E+02 -0.46181545362E+03  0.46600117359E+03  0.00000000000E+00 0. -1.
          1    1    1    2  502    0  0.34658602923E+02 -0.89415648976E+01  0.43929666251E+03  0.44075245664E+03  0.00000000000E+00 0. -1.
         22    1    3    3    0    0 -0.10505009823E+03  0.29421071226E+02 -0.11684645401E+03  0.15985686218E+03  0.00000000000E+00 0. -1.
         22    1    3    3    0    0  0.10257520986E+02 -0.36834496917E+02 -0.42676185921E+01  0.38473490462E+02  0.00000000000E+00 0. -1.
</event>
<event>
 7    1  0.6330892E-006  0.7536212E+02  0.7818608E-02  0.1366835E+00
          2   -1    0    0  502    0  0.00000000000E+00  0.00000000000E+00  0.20930332423E+03  0.20930332423E+03  0.00000000000E+00 0. -1.
          1   -1    0    0  501    0 -0.00000000000E+00 -0.00000000000E+00 -0.12307054788E+04  0.12307054788E+04  0.00000000000E+00 0. -1.
         25    2    1    2    0    0  0.12043887333E+03  0.57939046140E+02 -0.28842199387E+03  0.34157845022E+03  0.12500454324E+03 0.  0.
          2    1    1    2  501    0 -0.65662994355E+02 -0.30073872758E+02 -0.90906481747E+03  0.91192922369E+03  0.00000000000E+00 0. -1.
          1    1    1    2  502    0 -0.54775878975E+02 -0.27865173381E+02  0.17608465678E+03  0.18650112911E+03  0.00000000000E+00 0. -1.
         22    1    3    3    0    0  0.76799529673E+02  0.35938979072E+02 -0.27926866724E+03  0.29185744204E+03  0.00000000000E+00 0.  1.
         22    1    3    3    0    0  0.43639343657E+02  0.22000067068E+02 -0.91533266303E+01  0.49721008178E+02  0.00000000000E+00 0.  1.
</event>
<event>
 7    1  0.6330892E-006  0.9499935E+02  0.7818608E-02  0.1344486E+00
          2   -1    0    0  502    0  0.00000000000E+00  0.00000000000E+00  0.22112492014E+03  0.22112492014E+03  0.00000000000E+00 0. -1.
          1   -1    0    0  501    0 -0.00000000000E+00 -0.00000000000E+00 -0.70307558997E+03  0.70307558997E+03  0.00000000000E+00 0. -1.
         25    2    1    2    0    0  0.29988546632E+02  0.76440285736E+02 -0.13006368082E+03  0.19819250397E+03  0.12498510851E+03 0.  0.
          2    1    1    2  501    0  0.52972041161E+02 -0.25748912932E+02 -0.52455468205E+03  0.52785098098E+03  0.00000000000E+00 0. -1.
          1    1    1    2  502    0 -0.82960587794E+02 -0.50691372804E+02  0.17266769304E+03  0.19815702517E+03  0.00000000000E+00 0. -1.
         22    1    3    3    0    0 -0.24776184295E+02  0.86570512234E+02 -0.57972437707E+02  0.10709396076E+03  0.00000000000E+00 0.  1.
         22    1    3    3    0    0  0.54764730927E+02 -0.10130226498E+02 -0.72091243108E+02  0.91098543212E+02  0.00000000000E+00 0.  1.
</event>
<event>
 7    1  0.6330892E-006  0.4092271E+02  0.7818608E-02  0.1546490E+00
          2   -1    0    0  502    0  0.00000000000E+00  0.00000000000E+00  0.40072607824E+03  0.40072607824E+03  0.00000000000E+00 0. -1.
          1   -1    0    0  501    0 -0.00000000000E+00 -0.00000000000E+00 -0.14614206032E+03  0.14614206032E+03  0.00000000000E+00 0. -1.
         25    2    1    2    0    0  0.12355434277E+02 -0.86769965930E+01 -0.16143733829E+02  0.12693332040E+03  0.12499400250E+03 0.  0.
          2    1    1    2  501    0 -0.42569700149E+02  0.11483972642E+02 -0.67349478069E+02  0.80498529145E+02  0.00000000000E+00 0. -1.
          1    1    1    2  502    0  0.30214265872E+02 -0.28069760487E+01  0.33807722982E+03  0.33943628901E+03  0.00000000000E+00 0. -1.
         22    1    3    3    0    0  0.20423033598E+02 -0.51376906094E+02  0.30534209538E+02  0.63158726500E+02  0.00000000000E+00 0. -1.
         22    1    3    3    0    0 -0.80675993206E+01  0.42699909500E+02 -0.46677943366E+02  0.63774593899E+02  0.00000000000E+00 0. -1.
</event>
<event>
 7    1  0.6330892E-006  0.5183906E+03  0.7818608E-02  0.1126430E+00
          2   -1    0    0  502    0  0.00000000000E+00  0.00000000000E+00  0.31397173649E+04  0.31397173649E+04  0.00000000000E+00 0. -1.
          1   -1    0    0  501    0 -0.00000000000E+00 -0.00000000000E+00 -0.31699787525E+03  0.31699787525E+03  0.00000000000E+00 0. -1.
         25    2    1    2    0    0 -0.13722761587E+02 -0.56158284693E+03  0.58711945709E+03  0.82212990126E+03  0.12499883801E+03 0.  0.
          2    1    1    2  501    0 -0.82266539644E+02  0.60825780945E+02 -0.15747687293E+03  0.18779383558E+03  0.00000000000E+00 0. -1.
          1    1    1    2  502    0  0.95989301230E+02  0.50075706599E+03  0.23930769055E+04  0.24467915033E+04  0.00000000000E+00 0. -1.
         22    1    3    3    0    0 -0.87955522431E+01 -0.48453453709E+03  0.43354206815E+03  0.65023826727E+03  0.00000000000E+00 0.  1.
         22    1    3    3    0    0 -0.49272093434E+01 -0.77048309843E+02  0.15357738894E+03  0.17189163399E+03  0.00000000000E+00 0.  1.
</event>
<event>
 7    1  0.6330892E-006  0.1474861E+03  0.7818608E-02  0.1249990E+00
          2   -1    0    0  502    0  0.00000000000E+00  0.00000000000E+00  0.68589703671E+03  0.68589703671E+03  0.00000000000E+00 0. -1.
          1   -1    0    0  501    0 -0.00000000000E+00 -0.00000000000E+00 -0.25407355721E+04  0.25407355721E+04  0.00000000000E+00 0. -1.
         25    2    1    2    0    0 -0.11913815466E+03  0.77724649644E+01  0.10101877157E+03  0.20020888346E+03  0.12499797479E+03 0.  0.
          2    1    1    2  501    0  0.11081803026E+03 -0.98496246672E+02 -0.24850384980E+04  0.24894574676E+04  0.00000000000E+00 0. -1.
          1    1    1    2  502    0  0.83201243951E+01  0.90723781707E+02  0.52918119103E+03  0.53696625776E+03  0.00000000000E+00 0. -1.
         22    1    3    3    0    0 -0.38248119667E+02 -0.52241265911E+02  0.68764014101E+02  0.94448706488E+02  0.00000000000E+00 0. -1.
         22    1    3    3    0    0 -0.80890034988E+02  0.60013730876E+02  0.32254757469E+02  0.10576017697E+03  0.00000000000E+00 0. -1.
</event>
<event>
 7    1  0.6330892E-006  0.2988609E+03  0.7818608E-02  0.1220652E+00
          2   -1    0    0  502    0  0.00000000000E+00  0.00000000000E+00  0.98632245701E+03  0.98632245701E+03  0.00000000000E+00 0. -1.
          1   -1    0    0  501    0 -0.00000000000E+00 -0.00000000000E+00 -0.24991665105E+03  0.24991665105E+03  0.00000000000E+00 0. -1.
         25    2    1    2    0    0 -0.21994680061E+03 -0.11172706620E+03  0.64312039236E+03  0.70006282647E+03  0.12499835807E+03 0.  0.
          2    1    1    2  501    0  0.27232750557E+03  0.14241001524E+03 -0.10815159071E+03  0.32579080605E+03  0.00000000000E+00 0. -1.
          1    1    1    2  502    0 -0.52380704958E+02 -0.30682949032E+02  0.20143700431E+03  0.21038547554E+03  0.00000000000E+00 0. -1.
         22    1    3    3    0    0 -0.15310583075E+03 -0.77701952485E+02  0.57006949779E+03  0.59536394007E+03  0.00000000000E+00 0.  1.
         22    1    3    3    0    0 -0.66840969868E+02 -0.34025113719E+02  0.73050894573E+02  0.10469888640E+03  0.00000000000E+00 0.  1.
</event>
<event>
 7    1  0.6330892E-006  0.1743127E+03  0.7818608E-02  0.1368843E+00
          2   -1    0    0  502    0  0.00000000000E+00  0.00000000000E+00  0.43226306931E+02  0.43226306931E+02  0.00000000000E+00 0. -1.
          1   -1    0    0  501    0 -0.00000000000E+00 -0.00000000000E+00 -0.16256508667E+04  0.16256508667E+04  0.00000000000E+00 0. -1.
         25    2    1    2    0    0 -0.75096008440E+02  0.14978991697E+03 -0.11811669213E+04  0.11995237715E+04  0.12500221051E+03 0.  0.
          2    1    1    2  501    0 -0.25545392421E+02 -0.54988725680E+01 -0.20144325653E+03  0.20313096828E+03  0.00000000000E+00 0. -1.
          1    1    1    2  502    0  0.10064140086E+03 -0.14429104440E+03 -0.19981438185E+03  0.26622243379E+03  0.00000000000E+00 0. -1.
         22    1    3    3    0    0 -0.40568887973E+02  0.37354362291E+02 -0.12246924694E+03  0.13431269299E+03  0.00000000000E+00 0. -1.
         22    1    3    3    0    0 -0.34527120467E+02  0.11243555468E+03 -0.10586976744E+04  0.10652110785E+04  0.00000000000E+00 0. -1.
</event>
<event>
 7    1  0.6330892E-006  0.1629437E+03  0.7818608E-02  0.1238617E+00
          2   -1    0    0  502    0  0.00000000000E+00  0.00000000000E+00  0.34009172768E+04  0.34009172768E+04  0.00000000000E+00 0. -1.
          1   -1    0    0  501    0 -0.00000000000E+00 -0.00000000000E+00 -0.57958893215E+02  0.57958893215E+02  0.00000000000E+00 0. -1.
         25    2    1    2    0    0 -0.19235946447E+03  0.21117472650E+02  0.12500848982E+04  0.12711353922E+04  0.12499928570E+03 0.  0.
          2    1    1    2  501    0  0.13307646209E+03 -0.92098209560E+02  0.94862913945E+02  0.18759103766E+03  0.00000000000E+00 0. -1.
          1    1    1    2  502    0  0.59283002380E+02  0.70980736910E+02  0.19980105715E+04  0.20001497402E+04  0.00000000000E+00 0. -1.
         22    1    3    3    0    0 -0.17733687603E+03  0.25437304686E+02  0.76109771013E+03  0.78189842591E+03  0.00000000000E+00 0. -1.
         22    1    3    3    0    0 -0.15022588442E+02 -0.43198320355E+01  0.48898718806E+03  0.48923696631E+03  0.00000000000E+00 0. -1.
</event>
<event>
 7    1  0.6330892E-006  0.1234217E+03  0.7818608E-02  0.1437196E+00
          2   -1    0    0  502    0  0.00000000000E+00  0.00000000000E+00  0.24811906969E+03  0.24811906969E+03  0.00000000000E+00 0. -1.
          1   -1    0    0  501    0 -0.00000000000E+00 -0.00000000000E+00 -0.69686842018E+03  0.69686842018E+03  0.00000000000E+00 0. -1.
         25    2    1    2    0    0  0.12931742425E+02 -0.14245566852E+03 -0.27167043635E+03  0.33149569297E+03  0.12499488396E+03 0.  0.
          2    1    1    2  501    0 -0.72228927831E+01  0.20276602297E+02 -0.37781484222E+03  0.37842749079E+03  0.00000000000E+00 0. -1.
          1    1    1    2  502    0 -0.57088496418E+01  0.12217906622E+03  0.20073592808E+03  0.23506430612E+03  0.00000000000E+00 0. -1.
         22    1    3    3    0    0 -0.35928745997E+02 -0.82470808505E+02 -0.22206125962E+03  0.23959030044E+03  0.00000000000E+00 0. -1.
         22    1    3    3    0    0  0.48860488422E+02 -0.59984860012E+02 -0.49609176737E+02  0.91905392530E+02  0.00000000000E+00 0. -1.
</event>
<event>
 7    1  0.6330892E-006  0.5949991E+02  0.7818608E-02  0.1523959E+00
          2   -1    0    0  502    0  0.00000000000E+00  0.00000000000E+00  0.16554870122E+03  0.16554870122E+03  0.00000000000E+00 0. -1.
          1   -1    0    0  501    0 -0.00000000000E+00 -0.00000000000E+00 -0.30160380682E+03  0.30160380682E+03  0.00000000000E+00 0. -1.
         25    2    1    2    0    0  0.51094081164E+02  0.27687109603E+02 -0.76917622625E+02  0.15785538923E+03  0.12499928828E+03 0.  0.
          2    1    1    2  501    0 -0.37093599600E+02 -0.47413430927E+02 -0.17804877755E+03  0.18795035448E+03  0.00000000000E+00 0. -1.
          1    1    1    2  502    0 -0.14000481564E+02  0.19726321324E+02  0.11891129457E+03  0.12134676433E+03  0.00000000000E+00 0. -1.
         22    1    3    3    0    0 -0.39007004707E+02  0.12444056829E+02 -0.45533734808E+02  0.61234973439E+02  0.00000000000E+00 0. -1.
         22    1    3    3    0    0  0.90101085871E+02  0.15243052774E+02 -0.31383887817E+02  0.96620415790E+02  0.00000000000E+00 0. -1.
</event>
<event>
 7    1  0.6330892E-006  0.3012696E+02  0.7818608E-02  0.1607495E+00
          2   -1    0    0  502    0  0.00000000000E+00  0.00000000000E+00  0.36771936022E+03  0.36771936022E+03  0.00000000000E+00 0. -1.
          1   -1    0    0  501    0 -0.00000000000E+00 -0.00000000000E+00 -0.80480618277E+03  0.80480618277E+03  0.00000000000E+00 0. -1.
         25    2    1    2    0    0  0.52891652293E+02  0.24011262075E+02 -0.44714569102E+02  0.14490802095E+03  0.12499949703E+03 0.  0.
          2    1    1    2  501    0 -0.26523565677E+02 -0.13912893784E+02 -0.70905059556E+03  0.70968289764E+03  0.00000000000E+00 0. -1.
          1    1    1    2  502    0 -0.26368086616E+02 -0.10098368291E+02  0.31667834211E+03  0.31793462440E+03  0.00000000000E+00 0. -1.
         22    1    3    3    0    0  0.13520154286E+02 -0.50570468604E+02 -0.81110900083E+01  0.52971281350E+02  0.00000000000E+00 0. -1.
         22    1    3    3    0    0  0.39371498007E+02  0.74581730679E+02 -0.36603479093E+02  0.91936739599E+02  0.00000000000E+00 0. -1.
</event>
<event>
 7    1  0.6330892E-006  0.4305709E+03  0.7818608E-02  0.1224768E+00
          2   -1    0    0  502    0  0.00000000000E+00  0.00000000000E+00  0.34602779681E+04  0.34602779681E+04  0.00000000000E+00 0. -1.
          1   -1    0    0  501    0 -0.00000000000E+00 -0.00000000000E+00 -0.72119914021E+03  0.72119914021E+03  0.00000000000E+00 0. -1.
         25    2    1    2    0    0  0.41430912290E+03 -0.11697852482E+03 -0.18537817474E+03  0.48510405532E+03  0.12499940892E+03 0.  0.
          2    1    1    2  501    0 -0.12640351330E+02 -0.38331474273E+02 -0.37085270387E+03  0.37304263613E+03  0.00000000000E+00 0. -1.
          1    1    1    2  502    0 -0.40166877157E+03  0.15530999909E+03  0.32953097065E+04  0.33233304169E+04  0.00000000000E+00 0. -1.
         22    1    3    3    0    0  0.37068009912E+03 -0.11016958449E+03 -0.20395998727E+03  0.43719646572E+03  0.00000000000E+00 0.  1.
         22    1    3    3    0    0  0.43629023779E+02 -0.68089403296E+01  0.18581812529E+02  0.47907589599E+02  0.00000000000E+00 0.  1.
</event>
<event>
 7    1  0.6330892E-006  0.3977741E+02  0.7818608E-02  0.1549477E+00
          2   -1    0    0  502    0  0.00000000000E+00  0.00000000000E+00  0.81647669693E+03  0.81647669693E+03  0.00000000000E+00 0. -1.
          1   -1    0    0  501    0 -0.00000000000E+00 -0.00000000000E+00 -0.32389560074E+02  0.32389560074E+02  0.00000000000E+00 0. -1.
         25    2    1    2    0    0 -0.12809768906E+02  0.49949117957E+02  0.13100326114E+03  0.18827192636E+03  0.12500183703E+03 0.  0.
          2    1    1    2  501    0 -0.17953424300E+02 -0.24808439092E+02  0.73152479275E+02  0.79303652617E+02  0.00000000000E+00 0. -1.
          1    1    1    2  502    0  0.30763193206E+02 -0.25140678865E+02  0.57993139644E+03  0.58129067803E+03  0.00000000000E+00 0. -1.
         22    1    3    3    0    0  0.44865939384E+02 -0.56713501107E+01  0.83939675029E+02  0.95346661047E+02  0.00000000000E+00 0.  1.
         22    1    3    3    0    0 -0.57675708290E+02  0.55620468068E+02  0.47063586112E+02  0.92925265308E+02  0.00000000000E+00 0.  1.
</event>
<event>
 7    1  0.6330892E-006  0.4386753E+02  0.7818608E-02  0.1534762E+00
          2   -1    0    0  502    0  0.00000000000E+00  0.00000000000E+00  0.12504109829E+04  0.12504109829E+04  0.00000000000E+00 0. -1.
          1   -1    0    0  501    0 -0.00000000000E+00 -0.00000000000E+00 -0.48920381311E+03  0.48920381311E+03  0.00000000000E+00 0. -1.
         25    2    1    2    0    0 -0.41906954518E+02  0.38388019004E+02  0.33777011106E+03  0.36461766495E+03  0.12501024289E+03 0.  0.
          2    1    1    2  501    0 -0.10643501431E+01 -0.30532513568E+02 -0.47475822931E+03  0.47574020591E+03  0.00000000000E+00 0. -1.
          1    1    1    2  502    0  0.42971304661E+02 -0.78555054360E+01  0.89819528806E+03  0.89925692518E+03  0.00000000000E+00 0. -1.
         22    1    3    3    0    0 -0.32894637260E+02  0.82389219365E+02  0.18149232917E+03  0.20201362868E+03  0.00000000000E+00 0.  1.
         22    1    3    3    0    0 -0.90123172577E+01 -0.44001200361E+02  0.15627778190E+03  0.16260403627E+03  0.00000000000E+00 0.  1.
</event>
<event>
 7    1  0.6330892E-006  0.5848099E+02  0.7818608E-02  0.1472593E+00
          2   -1    0    0  502    0  0.00000000000E+00  0.00000000000E+00  0.14920334729E+04  0.14920334729E+04  0.00000000000E+00 0. -1.
          1   -1    0    0  501    0 -0.00000000000E+00 -0.00000000000E+00 -0.10260164005E+03  0.10260164005E+03  0.00000000000E+00 0. -1.
         25    2    1    2    0    0  0.10317563623E+02 -0.67768082720E+02  0.23870798470E+03  0.27803856610E+03  0.12499990848E+03 0.  0.
          2    1    1    2  501    0 -0.32311339723E+02  0.13610303386E+02 -0.78505103684E+02  0.85978569059E+02  0.00000000000E+00 0. -1.
          1    1    1    2  502    0  0.21993776100E+02  0.54157779334E+02  0.12292289518E+04  0.12306179778E+04  0.00000000000E+00 0. -1.
         22    1    3    3    0    0 -0.53993273194E+02 -0.43519392667E+02  0.15444352284E+03  0.16929859076E+03  0.00000000000E+00 0. -1.
         22    1    3    3    0    0  0.64310836817E+02 -0.24248690053E+02  0.84264461867E+02  0.10873997533E+03  0.00000000000E+00 0. -1.
</event>
<event>
 7    1  0.6330892E-006  0.1248795E+03  0.7818608E-02  0.1329930E+00
          2   -1    0    0  502    0  0.00000000000E+00  0.00000000000E+00  0.32364173289E+03  0.32364173289E+03  0.00000000000E+00 0. -1.
          1   -1    0    0  501    0 -0.00000000000E+00 -0.00000000000E+00 -0.10136206667E+04  0.10136206667E+04  0.00000000000E+00 0. -1.
         25    2    1    2    0    0 -0.30159044228E+02 -0.16795112102E+03 -0.75565629034E+02  0.22461309964E+03  0.12499493284E+03 0.  0.
          2    1    1    2  501    0  0.34546444253E+02  0.11728625835E+03 -0.85654863897E+03  0.86523123737E+03  0.00000000000E+00 0. -1.
          1    1    1    2  502    0 -0.43874000245E+01  0.50664862673E+02  0.24213533423E+03  0.24741806254E+03  0.00000000000E+00 0. -1.
         22    1    3    3    0    0 -0.34216987101E+02  0.66199211516E+01 -0.13494116912E+01  0.34877592724E+02  0.00000000000E+00 0. -1.
         22    1    3    3    0    0  0.40579428729E+01 -0.17457104218E+03 -0.74216217343E+02  0.18973550691E+03  0.00000000000E+00 0. -1.
</event>
<event>
 7    1  0.6330892E-006  0.6365241E+02  0.7818608E-02  0.1480974E+00
          2   -1    0    0  502    0  0.00000000000E+00  0.00000000000E+00  0.24998116447E+02  0.24998116447E+02  0.00000000000E+00 0. -1.
          1   -1    0    0  501    0 -0.00000000000E+00 -0.00000000000E+00 -0.10057372790E+04  0.10057372790E+04  0.00000000000E+00 0. -1.
         25    2    1    2    0    0 -0.75884890589E+02 -0.32263272221E+02 -0.30921861310E+03  0.34357030829E+03  0.12499988279E+03 0.  0.
          2    1    1    2  501    0  0.46848596302E+02  0.41105278142E+02 -0.64134059547E+03  0.64436185041E+03  0.00000000000E+00 0. -1.
          1    1    1    2  502    0  0.29036294287E+02 -0.88420059205E+01 -0.30179954021E+02  0.42803236786E+02  0.00000000000E+00 0. -1.
         22    1    3    3    0    0  0.20657818844E+02 -0.37310549055E+02 -0.16144672842E+03  0.16698463602E+03  0.00000000000E+00 0.  1.
         22    1    3    3    0    0 -0.96542709433E+02  0.50472768331E+01 -0.14777188468E+03  0.17658567227E+03  0.00000000000E+00 0.  1.
</event>
<event>
 7    1  0.6330892E-006  0.5857776E+02  0.7818608E-02  0.1407830E+00
          2   -1    0    0  502    0  0.00000000000E+00  0.00000000000E+00  0.11697959340E+04  0.11697959340E+04  0.00000000000E+00 0. -1.
          1   -1    0    0  501    0 -0.00000000000E+00 -0.00000000000E+00 -0.96765854334E+02  0.96765854334E+02  0.00000000000E+00 0. -1.
         25    2    1    2    0    0 -0.26345923099E+02 -0.17923722529E+02  0.22201681850E+03  0.25676861196E+03  0.12499313941E+03 0.  0.
          2    1    1    2  501    0 -0.25304530176E+02  0.50849371775E+02 -0.68079768507E+02  0.88661337331E+02  0.00000000000E+00 0. -1.
          1    1    1    2  502    0  0.51650453275E+02 -0.32925649246E+02  0.91909302971E+03  0.92113183908E+03  0.00000000000E+00 0. -1.
         22    1    3    3    0    0 -0.76019244284E+02 -0.37372721341E+01  0.11455285035E+03  0.13753271693E+03  0.00000000000E+00 0. -1.
         22    1    3    3    0    0  0.49673321185E+02 -0.14186450394E+02  0.10746396815E+03  0.11923589503E+03  0.00000000000E+00 0. -1.
</event>
<event>
 7    1  0.6330892E-006  0.8771853E+02  0.7818608E-02  0.1403938E+00
          2   -1    0    0  502    0  0.00000000000E+00  0.00000000000E+00  0.54575989345E+03  0.54575989345E+03  0.00000000000E+00 0. -1.
          1   -1    0    0  501    0 -0.00000000000E+00 -0.00000000000E+00 -0.65050387796E+03  0.65050387796E+03  0.00000000000E+00 0. -1.
         25    2    1    2    0    0  0.70338544028E+02  0.73779274942E+02 -0.15191864123E+03  0.22157462776E+03  0.12500059971E+03 0.  0.
          2    1    1    2  501    0  0.95641086034E+01 -0.37918349017E+02 -0.45916683618E+03  0.46082909719E+03  0.00000000000E+00 0. -1.
          1    1    1    2  502    0 -0.79902652631E+02 -0.35860925925E+02  0.50634149291E+03  0.51386004646E+03  0.00000000000E+00 0. -1.
         22    1    3    3    0    0  0.42185312136E+02  0.15717873268E+02 -0.15043931372E+03  0.15703069513E+03  0.00000000000E+00 0. -1.
         22    1    3    3    0    0  0.28153231891E+02  0.58061401674E+02 -0.14793275126E+01  0.64543932637E+02  0.00000000000E+00 0. -1.
</event>
<event>
 7    1  0.6330892E-006  0.1390113E+03  0.7818608E-02  0.1305719E+00
          2   -1    0    0  502    0  0.00000000000E+00  0.00000000000E+00  0.73707800378E+03  0.73707800378E+03  0.00000000000E+00 0. -1.
          1   -1    0    0  501    0 -0.00000000000E+00 -0.00000000000E+00 -0.10507105698E+03  0.10507105698E+03  0.00000000000E+00 0. -1.
         25    2    1    2    0    0 -0.36434588528E+02  0.97148514200E+02  0.17611172708E+02  0.16340326511E+03  0.12500064236E+03 0.  0.
          2    1    1    2  501    0  0.32561099267E+02  0.46490284511E+02  0.10161743013E+02  0.57661362804E+02  0.00000000000E+00 0. -1.
          1    1    1    2  502    0  0.38734892618E+01 -0.14363879871E+03  0.60423403107E+03  0.62108443284E+03  0.00000000000E+00 0. -1.
         22    1    3    3    0    0 -0.42176115567E+02 -0.18928123108E+02  0.55382286856E+01  0.46559322865E+02  0.00000000000E+00 0. -1.
         22    1    3    3    0    0  0.57415270388E+01  0.11607663731E+03  0.12072944022E+02  0.11684394224E+03  0.00000000000E+00 0. -1.
</event>
<event>
 7    1  0.6330892E-006  0.1200895E+03  0.7818608E-02  0.1312996E+00
          2   -1    0    0  502    0  0.00000000000E+00  0.00000000000E+00  0.18719385471E+04  0.18719385471E+04  0.00000000000E+00 0. -1.
          1   -1    0    0  501    0 -0.00000000000E+00 -0.00000000000E+00 -0.14239644099E+03  0.14239644099E+03  0.00000000000E+00 0. -1.
         25    2    1    2    0    0  0.47131416925E+02  0.75124883423E+02  0.25671284969E+03  0.29898655961E+03  0.12500542811E+03 0.  0.
          2    1    1    2  501    0 -0.10750306626E+03 -0.63401924106E+02 -0.88378636258E+02  0.15292971125E+03  0.00000000000E+00 0. -1.
          1    1    1    2  502    0  0.60371649335E+02 -0.11722959317E+02  0.15612078927E+04  0.15624187173E+04  0.00000000000E+00 0. -1.
         22    1    3    3    0    0  0.18367353631E+02  0.10022360740E+03  0.23232429275E+03  0.25368623960E+03  0.00000000000E+00 0. -1.
         22    1    3    3    0    0  0.28764063295E+02 -0.25098723982E+02  0.24388556941E+02  0.45300320003E+02  0.00000000000E+00 0. -1.
</event>
<event>
 7    1  0.6330892E-006  0.1334236E+03  0.7818608E-02  0.1357465E+00
          2   -1    0    0  502    0  0.00000000000E+00  0.00000000000E+00  0.11039728461E+04  0.11039728461E+04  0.00000000000E+00 0. -1.
          1   -1    0    0  501    0 -0.00000000000E+00 -0.00000000000E+00 -0.10622060568E+03  0.10622060568E+03  0.00000000000E+00 0. -1.
         25    2    1    2    0    0 -0.11346029154E+03  0.10196634714E+03  0.54021362690E+02  0.20448217264E+03  0.12499711034E+03 0.  0.
          2    1    1    2  501    0  0.93976872333E+02 -0.69870512869E+02  0.81524390186E+02  0.14268765643E+03  0.00000000000E+00 0. -1.
          1    1    1    2  502    0  0.19483419211E+02 -0.32095834275E+02  0.86220648759E+03  0.86302362276E+03  0.00000000000E+00 0. -1.
         22    1    3    3    0    0 -0.13543513451E+02  0.73691428664E+02  0.66133883225E+02  0.99937700221E+02  0.00000000000E+00 0.  1.
         22    1    3    3    0    0 -0.99916778093E+02  0.28274918479E+02 -0.12112520535E+02  0.10454447242E+03  0.00000000000E+00 0.  1.
</event>
<event>
 7    1  0.6330892E-006  0.7229798E+02  0.7818608E-02  0.1358031E+00
          2   -1    0    0  502    0  0.00000000000E+00  0.00000000000E+00  0.74048050507E+03  0.74048050507E+03  0.00000000000E+00 0. -1.
          1   -1    0    0  501    0 -0.00000000000E+00 -0.00000000000E+00 -0.26294462535E+04  0.26294462535E+04  0.00000000000E+00 0. -1.
         25    2    1    2    0    0 -0.20399164000E+02 -0.99421223840E+02 -0.38291572736E+03  0.41539218657E+03  0.12500203503E+03 0.  0.
          2    1    1    2  501    0  0.57824471714E+02  0.37576180445E+02 -0.22279536926E+04  0.22290207032E+04  0.00000000000E+00 0. -1.
          1    1    1    2  502    0 -0.37425307714E+02  0.61845043396E+02  0.72190367147E+03  0.72551386888E+03  0.00000000000E+00 0. -1.
         22    1    3    3    0    0  0.49938954639E+02 -0.19391998112E+02 -0.10813479527E+03  0.12067759829E+03  0.00000000000E+00 0.  1.
         22    1    3    3    0    0 -0.70338118640E+02 -0.80029225728E+02 -0.27478093209E+03  0.29471458828E+03  0.00000000000E+00 0.  1.
</event>
<event>
 7    1  0.6330892E-006  0.3265455E+02  0.7818608E-02  0.1619981E+00
          2   -1    0    0  502    0  0.00000000000E+00  0.00000000000E+00  0.25115507908E+03  0.25115507908E+03  0.00000000000E+00 0. -1.
          1   -1    0    0  501    0 -0.00000000000E+00 -0.00000000000E+00 -0.47923738702E+02  0.47923738702E+02  0.00000000000E+00 0. -1.
         25    2    1    2    0    0  0.16105790686E+02  0.48125939433E+02  0.13908751561E+03  0.19375639812E+03  0.12498280791E+03 0.  0.
          2    1    1    2  501    0  0.31636714426E+01 -0.23988833519E+02 -0.90857190584E+01  0.25846145581E+02  0.00000000000E+00 0. -1.
          1    1    1    2  502    0 -0.19269462129E+02 -0.24137105914E+02  0.73229543830E+02  0.79476274084E+02  0.00000000000E+00 0. -1.
         22    1    3    3    0    0  0.12036434055E+02 -0.13523145202E+02  0.13006372362E+03  0.13131764315E+03  0.00000000000E+00 0. -1.
         22    1    3    3    0    0  0.40693566312E+01  0.61649084635E+02  0.90237919842E+01  0.62438754964E+02  0.00000000000E+00 0. -1.
</event>
<event>
 7    1  0.6330892E-006  0.6090161E+02  0.7818608E-02  0.1514821E+00
          2   -1    0    0  502    0  0.00000000000E+00  0.00000000000E+00  0.10184505199E+04  0.10184505199E+04  0.00000000000E+00 0. -1.
          1   -1    0    0  501    0 -0.00000000000E+00 -0.00000000000E+00 -0.79642353005E+03  0.79642353005E+03  0.00000000000E+00 0. -1.
         25    2    1    2    0    0  0.55604447769E+02  0.56422194929E+02  0.47610951331E+03  0.49858076421E+03  0.12500876404E+03 0.  0.
          2    1    1    2  501    0 -0.68101820856E+01 -0.24182658523E+02 -0.78337594017E+03  0.78377869529E+03  0.00000000000E+00 0. -1.
          1    1    1    2  502    0 -0.48794265683E+02 -0.32239536406E+02  0.52929341669E+03  0.53251459043E+03  0.00000000000E+00 0. -1.
         22    1    3    3    0    0  0.54339742423E+02  0.87264576712E+02  0.43607181969E+03  0.44802516211E+03  0.00000000000E+00 0.  1.
         22    1    3    3    0    0  0.12647053459E+01 -0.30842381784E+02  0.40037693622E+02  0.50555602106E+02  0.00000000000E+00 0.  1.
</event>
<event>
 7    1  0.6330892E-006  0.7295003E+02  0.7818608E-02  0.1420495E+00
          2   -1    0    0  502    0  0.00000000000E+00  0.00000000000E+00  0.13119179338E+04  0.13119179338E+04  0.00000000000E+00 0. -1.
          1   -1    0    0  501    0 -0.00000000000E+00 -0.00000000000E+00 -0.37546814275E+02  0.37546814275E+02  0.00000000000E+00 0. -1.
         25    2    1    2    0    0  0.25832694388E+01 -0.46323866896E+02  0.27014870142E+03  0.30126061564E+03  0.12500025492E+03 0.  0.
          2    1    1    2  501    0 -0.34746565328E+02 -0.22399497240E+02  0.22281950675E+00  0.41341394839E+02  0.00000000000E+00 0. -1.
          1    1    1    2  502    0  0.32163295889E+02  0.68723364136E+02  0.10039995986E+04  0.10068627376E+04  0.00000000000E+00 0. -1.
         22    1    3    3    0    0 -0.11279106163E+02 -0.87953809988E+02  0.19552792018E+03  0.21469573470E+03  0.00000000000E+00 0.  1.
         22    1    3    3    0    0  0.13862375602E+02  0.41629943092E+02  0.74620781241E+02  0.86564880940E+02  0.00000000000E+00 0.  1.
</event>
<event>
 7    1  0.6330892E-006  0.9222765E+02  0.7818608E-02  0.1405527E+00
          2   -1    0    0  502    0  0.00000000000E+00  0.00000000000E+00  0.14041720640E+04  0.14041720640E+04  0.00000000000E+00 0. -1.
          1   -1    0    0  501    0 -0.00000000000E+00 -0.00000000000E+00 -0.15038689258E+03  0.15038689258E+03  0.00000000000E+00 0. -1.
         25    2    1    2    0    0 -0.75734404833E+01 -0.10891657385E+03  0.27361536072E+03  0.32001646757E+03  0.12499998735E+03 0.  0.
          2    1    1    2  501    0  0.35094745675E+02  0.84589382243E+02 -0.11035127527E+03  0.14340295923E+03  0.00000000000E+00 0. -1.
          1    1    1    2  502    0 -0.27521305191E+02  0.24327191607E+02  0.10905210860E+04  0.10911395298E+04  0.00000000000E+00 0. -1.
         22    1    3    3    0    0 -0.29714915981E+02 -0.56195244650E+02  0.25033018755E+03  0.25827521087E+03  0.00000000000E+00 0. -1.
         22    1    3    3    0    0  0.22141475498E+02 -0.52721329199E+02  0.23285173171E+02  0.61741256704E+02  0.00000000000E+00 0. -1.
</event>
<event>
 7    1  0.6330892E-006  0.3145630E+02  0.7818608E-02  0.1608645E+00
          2   -1    0    0  502    0  0.00000000000E+00  0.00000000000E+00  0.28438796880E+03  0.28438796880E+03  0.00000000000E+00 0. -1.
          1   -1    0    0  501    0 -0.00000000000E+00 -0.00000000000E+00 -0.39392949008E+03  0.39392949008E+03  0.00000000000E+00 0. -1.
         25    2    1    2    0    0  0.96904076609E+01  0.43959914840E+02  0.20328988735E+03  0.24285832436E+03  0.12500803693E+03 0.  0.
          2    1    1    2  501    0  0.12510581989E+02 -0.28845030164E+02 -0.37050595733E+03  0.37183761892E+03  0.00000000000E+00 0. -1.
          1    1    1    2  502    0 -0.22200989650E+02 -0.15114884675E+02  0.57674548696E+02  0.63621515601E+02  0.00000000000E+00 0. -1.
         22    1    3    3    0    0 -0.67071159597E+01 -0.38996356857E+02  0.11023309482E+03  0.11711975259E+03  0.00000000000E+00 0.  1.
         22    1    3    3    0    0  0.16397523621E+02  0.82956271696E+02  0.93056792529E+02  0.12573857177E+03  0.00000000000E+00 0.  1.
</event>
<event>
 7    1  0.6330892E-006  0.5196193E+02  0.7818608E-02  0.1436613E+00
          2   -1    0    0  502    0  0.00000000000E+00  0.00000000000E+00  0.20393732490E+03  0.20393732490E+03  0.00000000000E+00 0. -1.
          1   -1    0    0  501    0 -0.00000000000E+00 -0.00000000000E+00 -0.15298735992E+04  0.15298735992E+04  0.00000000000E+00 0. -1.
         25    2    1    2    0    0  0.11876338543E+02 -0.30759202143E+02 -0.17362941982E+03  0.21646912631E+03  0.12499812512E+03 0.  0.
          2    1    1    2  501    0  0.40001003800E+02  0.33722897036E+02 -0.13306014442E+04  0.13316296472E+04  0.00000000000E+00 0. -1.
          1    1    1    2  502    0 -0.51877342344E+02 -0.29636948931E+01  0.17829458972E+03  0.18571215055E+03  0.00000000000E+00 0. -1.
         22    1    3    3    0    0  0.49245398884E+01 -0.30273164753E+02  0.10340480574E+02  0.32367284961E+02  0.00000000000E+00 0.  1.
         22    1    3    3    0    0  0.69517986550E+01 -0.48603739007E+00 -0.18396990039E+03  0.18410184135E+03  0.00000000000E+00 0.  1.
</event>
<event>
 7    1  0.6330892E-006  0.4698964E+02  0.7818608E-02  0.1557038E+00
          2   -1    0    0  502    0  0.00000000000E+00  0.00000000000E+00  0.98160266831E+03  0.98160266831E+03  0.00000000000E+00 0. -1.
          1   -1    0    0  501    0 -0.00000000000E+00 -0.00000000000E+00 -0.11101797537E+04  0.11101797537E+04  0.00000000000E+00 0. -1.
         25    2    1    2    0    0 -0.54704466594E+02  0.28474163222E+02  0.83402934099E+02  0.16242504451E+03  0.12498995572E+03 0.  0.
          2    1    1    2  501    0  0.81720296632E+01 -0.23308322141E+02 -0.10698878903E+04  0.10701729570E+04  0.00000000000E+00 0. -1.
          1    1    1    2  502    0  0.46532436930E+02 -0.51658410806E+01  0.85790787085E+03  0.85918442052E+03  0.00000000000E+00 0. -1.
         22    1    3    3    0    0 -0.89889118565E+01  0.22306575144E+02 -0.30905058957E+02  0.39160011493E+02  0.00000000000E+00 0.  1.
         22    1    3    3    0    0 -0.45715554737E+02  0.61675880779E+01  0.11430799306E+03  0.12326503301E+03  0.00000000000E+00 0.  1.
</event>
<event>
 7    1  0.6330892E-006  0.1224946E+03  0.7818608E-02  0.1393219E+00
          2   -1    0    0  502    0  0.00000000000E+00  0.00000000000E+00  0.47154520956E+03  0.47154520956E+03  0.00000000000E+00 0. -1.
          1   -1    0    0  501    0 -0.00000000000E+00 -0.00000000000E+00 -0.12492894111E+04  0.12492894111E+04  0.00000000000E+00 0. -1.
         25    2    1    2    0    0 -0.71751772213E+02  0.13376308501E+03 -0.16684550732E+03  0.25788270617E+03  0.12500074839E+03 0.  0.
          2    1    1    2  501    0  0.14423351066E+02 -0.26862185651E+02 -0.10280600689E+04  0.10285120881E+04  0.00000000000E+00 0. -1.
          1    1    1    2  502    0  0.57328421147E+02 -0.10690089936E+03  0.41716137474E+03  0.43443982636E+03  0.00000000000E+00 0. -1.
         22    1    3    3    0    0 -0.65671478807E+02  0.22310886397E+02 -0.11617039364E+03  0.13529995986E+03  0.00000000000E+00 0. -1.
         22    1    3    3    0    0 -0.60802934067E+01  0.11145219862E+03 -0.50675113685E+02  0.12258274630E+03  0.00000000000E+00 0. -1.
</event>
<event>
 7    1  0.6330892E-006  0.1020166E+03  0.7818608E-02  0.1296946E+00
          2   -1    0    0  502    0  0.00000000000E+00  0.00000000000E+00  0.33503637094E+04  0.33503637094E+04  0.00000000000E+00 0. -1.
          1   -1    0    0  501    0 -0.00000000000E+00 -0.00000000000E+00 -0.53727781311E+03  0.53727781311E+03  0.00000000000E+00 0. -1.
         25    2    1    2    0    0  0.13701539401E+02 -0.16673369563E+02  0.94443485129E+03  0.95291534359E+03  0.12499892106E+03 0.  0.
          2    1    1    2  501    0 -0.21616710241E+02  0.10014038881E+03 -0.52737512909E+03  0.53723356784E+03  0.00000000000E+00 0. -1.
          1    1    1    2  502    0  0.79151708398E+01 -0.83467019248E+02  0.23960261741E+04  0.23974926111E+04  0.00000000000E+00 0. -1.
         22    1    3    3    0    0  0.85631748212E+01 -0.46342329516E+02  0.88532240052E+03  0.88657582435E+03  0.00000000000E+00 0.  1.
         22    1    3    3    0    0  0.51383645801E+01  0.29668959952E+02  0.59112450778E+02  0.66339519233E+02  0.00000000000E+00 0.  1.
</event>
<event>
 7    1  0.6330892E-006  0.1414201E+03  0.7818608E-02  0.1293969E+00
          2   -1    0    0  502    0  0.00000000000E+00  0.00000000000E+00  0.12617614289E+04  0.12617614289E+04  0.00000000000E+00 0. -1.
          1   -1    0    0  501    0 -0.00000000000E+00 -0.00000000000E+00 -0.71546122692E+02  0.71546122692E+02  0.00000000000E+00 0. -1.
         25    2    1    2    0    0 -0.43026476950E+02 -0.85393598672E+02  0.77400500252E+03  0.78984224144E+03  0.12499471198E+03 0.  0.
          2    1    1    2  501    0  0.10158078950E+03  0.10630399476E+03  0.27214737398E+02  0.14953206355E+03  0.00000000000E+00 0. -1.
          1    1    1    2  502    0 -0.58554312553E+02 -0.20910396091E+02  0.38899556629E+03  0.39393324660E+03  0.00000000000E+00 0. -1.
         22    1    3    3    0    0 -0.80800152636E+02 -0.66397071559E+02  0.66029497952E+03  0.66852576297E+03  0.00000000000E+00 0. -1.
         22    1    3    3    0    0  0.37773675685E+02 -0.18996527113E+02  0.11371002301E+03  0.12131647847E+03  0.00000000000E+00 0. -1.
</event>
<event>
 7    1  0.6330892E-006  0.9564184E+02  0.7818608E-02  0.1380850E+00
          2   -1    0    0  502    0  0.00000000000E+00  0.00000000000E+00  0.14038018371E+04  0.14038018371E+04  0.00000000000E+00 0. -1.
          1   -1    0    0  501    0 -0.00000000000E+00 -0.00000000000E+00 -0.13863086745E+03  0.13863086745E+03  0.00000000000E+00 0. -1.
         25    2    1    2    0    0  0.31734046561E+02 -0.48879817720E+02  0.12855532972E+03  0.18854221123E+03  0.12500162529E+03 0.  0.
          2    1    1    2  501    0 -0.50493954324E+02  0.87737928780E+02 -0.84591310317E+02  0.13192146660E+03  0.00000000000E+00 0. -1.
          1    1    1    2  502    0  0.18759907764E+02 -0.38858111059E+02  0.12212069502E+04  0.12219690267E+04  0.00000000000E+00 0. -1.
         22    1    3    3    0    0  0.28327467365E+01 -0.39427308289E+01  0.13467652461E+03  0.13476400062E+03  0.00000000000E+00 0. -1.
         22    1    3    3    0    0  0.28901299824E+02 -0.44937086891E+02 -0.61211948923E+01  0.53778210613E+02  0.00000000000E+00 0. -1.
</event>
<event>
 7    1  0.6330892E-006  0.8081974E+02  0.7818608E-02  0.1404403E+00
          2   -1    0    0  502    0  0.00000000000E+00  0.00000000000E+00  0.91215435538E+03  0.91215435538E+03  0.00000000000E+00 0. -1.
          1   -1    0    0  501    0 -0.00000000000E+00 -0.00000000000E+00 -0.47524325874E+03  0.47524325874E+03  0.00000000000E+00 0. -1.
         25    2    1    2    0    0 -0.12060735487E+03  0.15950476866E+02 -0.21171422229E+03  0.27431480804E+03  0.12500060091E+03 0.  0.
          2    1    1    2  501    0  0.42219054205E+02  0.24297244298E+01 -0.22844421723E+03  0.23232544520E+03  0.00000000000E+00 0. -1.
          1    1    1    2  502    0  0.78388300660E+02 -0.18380201296E+02  0.87706953616E+03  0.88075736088E+03  0.00000000000E+00 0. -1.
         22    1    3    3    0    0 -0.40103429796E+01  0.41034810750E+02 -0.14240503891E+02  0.43620299118E+02  0.00000000000E+00 0.  1.
         22    1    3    3    0    0 -0.11659701189E+03 -0.25084333884E+02 -0.19747371840E+03  0.23069450892E+03  0.00000000000E+00 0.  1.
</event>
<event>
 7    1  0.6330892E-006  0.5148179E+02  0.7818608E-02  0.1505598E+00
          2   -1    0    0  502    0  0.00000000000E+00  0.00000000000E+00  0.87961879112E+03  0.87961879112E+03  0.00000000000E+00 0. -1.
          1   -1    0    0  501    0 -0.00000000000E+00 -0.00000000000E+00 -0.61503670298E+02  0.61503670298E+02  0.00000000000E+00 0. -1.
         25    2    1    2    0    0 -0.34876062210E+02 -0.12341532963E+00  0.64583362874E+03  0.65874246199E+03  0.12499680105E+03 0.  0.
          2    1    1    2  501    0 -0.26755282896E+02 -0.16883174252E+02 -0.45494305875E+02  0.55413162720E+02  0.00000000000E+00 0. -1.
          1    1    1    2  502    0  0.61631345106E+02  0.17006589581E+02  0.21777579795E+03  0.22696683670E+03  0.00000000000E+00 0. -1.
         22    1    3    3    0    0 -0.50536479178E+02  0.50176052144E+02  0.26996926708E+03  0.27920418532E+03  0.00000000000E+00 0. -1.
         22    1    3    3    0    0  0.15660416968E+02 -0.50299467474E+02  0.37586436166E+03  0.37953827667E+03  0.00000000000E+00 0. -1.
</event>
<event>
 7    1  0.6330892E-006  0.5986914E+02  0.7818608E-02  0.1483244E+00
          2   -1    0    0  502    0  0.00000000000E+00  0.00000000000E+00  0.59345254230E+03  0.59345254230E+03  0.00000000000E+00 0. -1.
          1   -1    0    0  501    0 -0.00000000000E+00 -0.00000000000E+00 -0.88919856430E+02  0.88919856430E+02  0.00000000000E+00 0. -1.
         25    2    1    2    0    0  0.29932643349E+02 -0.75023950960E+02  0.36655443666E+03  0.39561084915E+03  0.12498492938E+03 0.  0.
          2    1    1    2  501    0 -0.23375587022E+01  0.59302971871E+02 -0.61092155041E+02  0.85173693480E+02  0.00000000000E+00 0. -1.
          1    1    1    2  502    0 -0.27595084646E+02  0.15720979089E+02  0.19907040425E+03  0.20158785610E+03  0.00000000000E+00 0. -1.
         22    1    3    3    0    0 -0.87092773805E+01 -0.39571040228E+02  0.20136347432E+02  0.45245897330E+02  0.00000000000E+00 0.  1.
         22    1    3    3    0    0  0.38641920729E+02 -0.35452910732E+02  0.34641808923E+03  0.35036495182E+03  0.00000000000E+00 0.  1.
</event>
<event>
 7    1  0.6330892E-006  0.1462283E+03  0.7818608E-02  0.1309928E+00
          2   -1    0    0  502    0  0.00000000000E+00  0.00000000000E+00  0.12000127733E+04  0.12000127733E+04  0.00000000000E+00 0. -1.
          1   -1    0    0  501    0 -0.00000000000E+00 -0.00000000000E+00 -0.46544889302E+03  0.46544889302E+03  0.00000000000E+00 0. -1.
         25    2    1    2    0    0  0.57230152409E+02  0.87836853989E+02  0.34465245822E+03  0.38131395539E+03  0.12499764938E+03 0.  0.
          2    1    1    2  501    0 -0.49479894908E+02 -0.13918415352E+03 -0.43407782579E+03  0.45852376976E+03  0.00000000000E+00 0. -1.
          1    1    1    2  502    0 -0.77502575006E+01  0.51347299531E+02  0.82398924781E+03  0.82562394113E+03  0.00000000000E+00 0. -1.
         22    1    3    3    0    0 -0.17248456116E+02 -0.23234270131E+02  0.73081171321E+02  0.78601514925E+02  0.00000000000E+00 0.  1.
         22    1    3    3    0    0  0.74478608525E+02  0.11107112412E+03  0.27157128690E+03  0.30271244046E+03  0.00000000000E+00 0.  1.
</event>
<event>
 7    1  0.6330892E-006  0.3625473E+02  0.7818608E-02  0.1561876E+00
          2   -1    0    0  502    0  0.00000000000E+00  0.00000000000E+00  0.55597825083E+03  0.55597825083E+03  0.00000000000E+00 0. -1.
          1   -1    0    0  501    0 -0.00000000000E+00 -0.00000000000E+00 -0.50326172791E+03  0.50326172791E+03  0.00000000000E+00 0. -1.
         25    2    1    2    0    0 -0.47137847461E+02  0.47535698143E+02 -0.47970504101E+02  0.14969306940E+03  0.12500090600E+03 0.  0.
          2    1    1    2  501    0  0.23419855697E+02 -0.20379478465E+02 -0.40318902789E+03  0.40438249838E+03  0.00000000000E+00 0. -1.
          1    1    1    2  502    0  0.23717991763E+02 -0.27156219678E+02  0.50387605491E+03  0.50516441097E+03  0.00000000000E+00 0. -1.
         22    1    3    3    0    0 -0.71974103870E+02  0.21802835865E+02  0.15551831523E+02  0.76795147915E+02  0.00000000000E+00 0. -1.
         22    1    3    3    0    0  0.24836256409E+02  0.25732862278E+02 -0.63522335624E+02  0.72897921483E+02  0.00000000000E+00 0. -1.
</event>
<event>
 7    1  0.6330892E-006  0.2240766E+03  0.7818608E-02  0.1208173E+00
          2   -1    0    0  502    0  0.00000000000E+00  0.00000000000E+00  0.22801721869E+04  0.22801721869E+04  0.00000000000E+00 0. -1.
          1   -1    0    0  501    0 -0.00000000000E+00 -0.00000000000E+00 -0.32569741463E+03  0.32569741463E+03  0.00000000000E+00 0. -1.
         25    2    1    2    0    0  0.14335425218E+03  0.27294338498E+03  0.60223177766E+03  0.68800954715E+03  0.12500195971E+03 0.  0.
          2    1    1    2  501    0 -0.11784229352E+03 -0.18412125532E+03 -0.23902308521E+03  0.32391276305E+03  0.00000000000E+00 0. -1.
          1    1    1    2  502    0 -0.25511958661E+02 -0.88822129663E+02  0.15912660798E+04  0.15939472913E+04  0.00000000000E+00 0. -1.
         22    1    3    3    0    0  0.11578370201E+03  0.10531694964E+03  0.35573008030E+03  0.38864047082E+03  0.00000000000E+00 0. -1.
         22    1    3    3    0    0  0.27570550164E+02  0.16762643534E+03  0.24650169736E+03  0.29936907633E+03  0.00000000000E+00 0. -1.
</event>
<event>
 7    1  0.6330892E-006  0.4988822E+02  0.7818608E-02  0.1569539E+00
          2   -1    0    0  502    0  0.00000000000E+00  0.00000000000E+00  0.16956957166E+03  0.16956957166E+03  0.00000000000E+00 0. -1.
          1   -1    0    0  501    0 -0.00000000000E+00 -0.00000000000E+00 -0.36041394062E+03  0.36041394062E+03  0.00000000000E+00 0. -1.
         25    2    1    2    0    0 -0.33358650024E+02 -0.13392984767E+02 -0.18298209625E+03  0.22450732162E+03  0.12501567238E+03 0.  0.
          2    1    1    2  501    0 -0.29767338220E+01 -0.21292305642E+02 -0.15165005547E+03  0.15316645373E+03  0.00000000000E+00 0. -1.
          1    1    1    2  502    0  0.36335383846E+02  0.34685290409E+02  0.14378778276E+03  0.15230973693E+03  0.00000000000E+00 0. -1.
         22    1    3    3    0    0  0.36924861333E+02 -0.68783381261E+01 -0.13251897826E+03  0.13773901596E+03  0.00000000000E+00 0. -1.
         22    1    3    3    0    0 -0.70283511357E+02 -0.65146466408E+01 -0.50463117997E+02  0.86768305663E+02  0.00000000000E+00 0. -1.
</event>
<event>
 7    1  0.6330892E-006  0.6041576E+02  0.7818608E-02  0.1465152E+00
          2   -1    0    0  502    0  0.00000000000E+00  0.00000000000E+00  0.21273486553E+04  0.21273486553E+04  0.00000000000E+00 0. -1.
          1   -1    0    0  501    0 -0.00000000000E+00 -0.00000000000E+00 -0.11862005674E+03  0.11862005674E+03  0.00000000000E+00 0. -1.
         25    2    1    2    0    0  0.24803265353E+02 -0.52211789382E+02  0.20166665200E+02  0.13918264530E+03  0.12499536569E+03 0.  0.
          2    1    1    2  501    0  0.27885848280E+02  0.22448893271E+02 -0.53202263101E+02  0.64125300331E+02  0.00000000000E+00 0. -1.
          1    1    1    2  502    0 -0.52689113632E+02  0.29762896111E+02  0.20417641964E+04  0.20426607664E+04  0.00000000000E+00 0. -1.
         22    1    3    3    0    0  0.51809460113E+02 -0.68906565262E+02  0.46483391779E+02  0.97944068757E+02  0.00000000000E+00 0. -1.
         22    1    3    3    0    0 -0.27006194760E+02  0.16694775881E+02 -0.26316726578E+02  0.41238576539E+02  0.00000000000E+00 0. -1.
</event>
<event>
 7    1  0.6330892E-006  0.2384461E+03  0.7818608E-02  0.1285218E+00
          2   -1    0    0  502    0  0.00000000000E+00  0.00000000000E+00  0.16749512113E+04  0.16749512113E+04  0.00000000000E+00 0. -1.
          1   -1    0    0  501    0 -0.00000000000E+00 -0.00000000000E+00 -0.94729285135E+03  0.94729285135E+03  0.00000000000E+00 0. -1.
         25    2    1    2    0    0  0.25811777048E+03  0.10250539988E+03 -0.43545616394E+03  0.53139350949E+03  0.12499940306E+03 0.  0.
          2    1    1    2  501    0 -0.37785992056E+02 -0.13206650851E+02 -0.45429848783E+03  0.45605845334E+03  0.00000000000E+00 0. -1.
          1    1    1    2  502    0 -0.22033177843E+03 -0.89298749030E+02  0.16174130118E+04  0.16347920999E+04  0.00000000000E+00 0. -1.
         22    1    3    3    0    0  0.26495009237E+03  0.84994906953E+02 -0.42935274129E+03  0.51163117782E+03  0.00000000000E+00 0.  1.
         22    1    3    3    0    0 -0.68323218907E+01  0.17510492928E+02 -0.61034226472E+01  0.19762331669E+02  0.00000000000E+00 0.  1.
</event>
<event>
 7    1  0.6330892E-006  0.1336569E+03  0.7818608E-02  0.1300437E+00
          2   -1    0    0  502    0  0.00000000000E+00  0.00000000000E+00  0.44154302741E+03  0.44154302741E+03  0.00000000000E+00 0. -1.
          1   -1    0    0  501    0 -0.00000000000E+00 -0.00000000000E+00 -0.34485372244E+03  0.34485372244E+03  0.00000000000E+00 0. -1.
         25    2    1    2    0    0  0.60064345524E+02  0.49074856173E+02  0.17138596495E+03  0.22586451086E+03  0.12500224467E+03 0.  0.
          2    1    1    2  501    0 -0.94404351694E+02 -0.10065239461E+03 -0.29820870252E+03  0.32859019525E+03  0.00000000000E+00 0. -1.
          1    1    1    2  502    0  0.34340006170E+02  0.51577538432E+02  0.22351204253E+03  0.23194204373E+03  0.00000000000E+00 0. -1.
         22    1    3    3    0    0  0.71035823622E+02  0.17261706588E+02  0.17722474463E+03  0.19170984550E+03  0.00000000000E+00 0. -1.
         22    1    3    3    0    0 -0.10971478098E+02  0.31813149585E+02 -0.58387796758E+01  0.34154665366E+02  0.00000000000E+00 0. -1.
</event>
<event>
 7    1  0.6330892E-006  0.1520245E+03  0.7818608E-02  0.1346257E+00
          2   -1    0    0  502    0  0.00000000000E+00  0.00000000000E+00  0.87773650252E+03  0.87773650252E+03  0.00000000000E+00 0. -1.
          1   -1    0    0  501    0 -0.00000000000E+00 -0.00000000000E+00 -0.73153775731E+03  0.73153775731E+03  0.00000000000E+00 0. -1.
         25    2    1    2    0    0  0.71948236613E+02 -0.11519503012E+03 -0.30365658610E+03  0.35535786854E+03  0.12500179493E+03 0.  0.
          2    1    1    2  501    0 -0.21992577480E+02 -0.28815948267E+02 -0.39437402021E+03  0.39603648842E+03  0.00000000000E+00 0. -1.
          1    1    1    2  502    0 -0.49955659133E+02  0.14401097839E+03  0.84422935152E+03  0.85787990287E+03  0.00000000000E+00 0. -1.
         22    1    3    3    0    0  0.91666311110E+02 -0.12605327579E+03 -0.22620416054E+03  0.27470067924E+03  0.00000000000E+00 0. -1.
         22    1    3    3    0    0 -0.19718074497E+02  0.10858245669E+02 -0.77452425562E+02  0.80657189304E+02  0.00000000000E+00 0. -1.
</event>
<event>
 7    1  0.6330892E-006  0.9140291E+02  0.7818608E-02  0.1375424E+00
          2   -1    0    0  502    0  0.00000000000E+00  0.00000000000E+00  0.78165216784E+03  0.78165216784E+03  0.00000000000E+00 0. -1.
          1   -1    0    0  501    0 -0.00000000000E+00 -0.00000000000E+00 -0.37680155154E+03  0.37680155154E+03  0.00000000000E+00 0. -1.
         25    2    1    2    0    0  0.26072674077E+02 -0.49613189525E+02 -0.14545884927E+02  0.13776272467E+03  0.12500293049E+03 0.  0.
          2    1    1    2  501    0 -0.19210640142E+02 -0.43112800737E+02 -0.29576660156E+03  0.29950900634E+03  0.00000000000E+00 0. -1.
          1    1    1    2  502    0 -0.68620339356E+01  0.92725990262E+02  0.71516310278E+03  0.72118198837E+03  0.00000000000E+00 0. -1.
         22    1    3    3    0    0 -0.19646155778E+02 -0.28437801928E+02  0.46925478391E+02  0.58281047842E+02  0.00000000000E+00 0. -1.
         22    1    3    3    0    0  0.45718829855E+02 -0.21175387597E+02 -0.61471363318E+02  0.79481676828E+02  0.00000000000E+00 0. -1.
</event>
<event>
 7    1  0.6330892E-006  0.1816978E+03  0.7818608E-02  0.1332514E+00
          2   -1    0    0  502    0  0.00000000000E+00  0.00000000000E+00  0.90961773637E+03  0.90961773637E+03  0.00000000000E+00 0. -1.
          1   -1    0    0  501    0 -0.00000000000E+00 -0.00000000000E+00 -0.64196694665E+03  0.64196694665E+03  0.00000000000E+00 0. -1.
         25    2    1    2    0    0 -0.50433594758E+02 -0.15932561500E+03  0.44993736129E+03  0.49598005316E+03  0.12499753988E+03 0.  0.
          2    1    1    2  501    0  0.10217550737E+02 -0.32604332095E+02 -0.59641568096E+03  0.59739359330E+03  0.00000000000E+00 0. -1.
          1    1    1    2  502    0  0.40216044021E+02  0.19192994709E+03  0.41412910939E+03  0.45821103657E+03  0.00000000000E+00 0. -1.
         22    1    3    3    0    0 -0.51197554018E+02 -0.17717338397E+03  0.43574266095E+03  0.47316304177E+03  0.00000000000E+00 0.  1.
         22    1    3    3    0    0  0.76395925996E+00  0.17847768974E+02  0.14194700339E+02  0.22817011391E+02  0.00000000000E+00 0.  1.
</event>
<event>
 7    1  0.6330892E-006  0.6173966E+02  0.7818608E-02  0.1407530E+00
          2   -1    0    0  502    0  0.00000000000E+00  0.00000000000E+00  0.86107434430E+03  0.86107434430E+03  0.00000000000E+00 0. -1.
          1   -1    0    0  501    0 -0.00000000000E+00 -0.00000000000E+00 -0.24930919613E+03  0.24930919613E+03  0.00000000000E+00 0. -1.
         25    2    1    2    0    0 -0.87395808263E+02  0.60381335889E+02  0.32772236579E+03  0.36648421378E+03  0.12499918754E+03 0.  0.
          2    1    1    2  501    0  0.52201323893E+02 -0.13882350844E+02 -0.22506820718E+03  0.23145927452E+03  0.00000000000E+00 0. -1.
          1    1    1    2  502    0  0.35194484370E+02 -0.46498985045E+02  0.50911098955E+03  0.51244005212E+03  0.00000000000E+00 0. -1.
         22    1    3    3    0    0 -0.70470327065E+02  0.11916102799E+02  0.29948495514E+03  0.30789494776E+03  0.00000000000E+00 0.  1.
         22    1    3    3    0    0 -0.16925481199E+02  0.48465233090E+02  0.28237410652E+02  0.58589266019E+02  0.00000000000E+00 0.  1.
</event>
<event>
 7    1  0.1375200E-005  0.7074329E+02  0.7818608E-02  0.1363573E+00
          2   -1    0    0  502    0  0.00000000000E+00  0.00000000000E+00  0.12085461257E+04  0.12085461257E+04  0.00000000000E+00 0. -1.
          1   -1    0    0  501    0 -0.00000000000E+00 -0.00000000000E+00 -0.19196896225E+04  0.19196896225E+04  0.00000000000E+00 0. -1.
         25    2    1    2    0    0 -0.84937312163E+01 -0.37204374669E+01 -0.66584045615E+03  0.67753591175E+03  0.12500165414E+03 0.  0.
          2    1    1    2  501    0  0.74721372982E+02  0.28590355268E+02 -0.12456767797E+04  0.12482432981E+04  0.00000000000E+00 0. -1.
          1    1    1    2  502    0 -0.66227641766E+02 -0.24869917802E+02  0.12003737390E+04  0.12024565384E+04  0.00000000000E+00 0. -1.
         22    1    3    3    0    0 -0.26259557691E+02 -0.28024645644E+02 -0.61903508596E+02  0.72849087229E+02  0.00000000000E+00 0.  1.
         22    1    3    3    0    0  0.17765826475E+02  0.24304208177E+02 -0.60393694755E+03  0.60468682452E+03  0.00000000000E+00 0.  1.
</event>
<event>
 7    1  0.6330892E-006  0.1370025E+03  0.7818608E-02  0.1320115E+00
          2   -1    0    0  502    0  0.00000000000E+00  0.00000000000E+00  0.13515265415E+04  0.13515265415E+04  0.00000000000E+00 0. -1.
          1   -1    0    0  501    0 -0.00000000000E+00 -0.00000000000E+00 -0.73516808183E+03  0.73516808183E+03  0.00000000000E+00 0. -1.
         25    2    1    2    0    0  0.44768217198E+02 -0.15197496615E+03 -0.23986676381E+03  0.31346724543E+03  0.12500026386E+03 0.  0.
          2    1    1    2  501    0 -0.73703963468E+02  0.11050359595E+03 -0.44838084103E+03  0.46764163368E+03  0.00000000000E+00 0. -1.
          1    1    1    2  502    0  0.28935746269E+02  0.41471370205E+02  0.13046060645E+04  0.13055857442E+04  0.00000000000E+00 0. -1.
         22    1    3    3    0    0  0.47595351322E+02 -0.13656337311E+03 -0.10755330702E+03  0.18022926010E+03  0.00000000000E+00 0. -1.
         22    1    3    3    0    0 -0.28271341231E+01 -0.15411593039E+02 -0.13231345679E+03  0.13323798533E+03  0.00000000000E+00 0. -1.
</event>
<event>
 7    1  0.6330892E-006  0.1152374E+03  0.7818608E-02  0.1423310E+00
          2   -1    0    0  502    0  0.00000000000E+00  0.00000000000E+00  0.11560529788E+03  0.11560529788E+03  0.00000000000E+00 0. -1.
          1   -1    0    0  501    0 -0.00000000000E+00 -0.00000000000E+00 -0.74532639565E+03  0.74532639565E+03  0.00000000000E+00 0. -1.
         25    2    1    2    0    0  0.82771204522E+02 -0.10611329991E+03 -0.69133816756E+02  0.19625624204E+03  0.12500369276E+03 0.  0.
          2    1    1    2  501    0 -0.58697385916E+02  0.97373062685E+02 -0.60381726570E+03  0.61442834148E+03  0.00000000000E+00 0. -1.
          1    1    1    2  502    0 -0.24073818606E+02  0.87402372243E+01  0.43229984692E+02  0.50247110021E+02  0.00000000000E+00 0. -1.
         22    1    3    3    0    0  0.79251989859E+02 -0.26034697256E+02 -0.79742103063E+02  0.11540141402E+03  0.00000000000E+00 0. -1.
         22    1    3    3    0    0  0.35192146634E+01 -0.80078602654E+02  0.10608286306E+02  0.80854828014E+02  0.00000000000E+00 0. -1.
</event>
<event>
 7    1  0.6330892E-006  0.8694959E+02  0.7818608E-02  0.1479772E+00
          2   -1    0    0  502    0  0.00000000000E+00  0.00000000000E+00  0.15609136644E+04  0.15609136644E+04  0.00000000000E+00 0. -1.
          1   -1    0    0  501    0 -0.00000000000E+00 -0.00000000000E+00 -0.22837298656E+03  0.22837298656E+03  0.00000000000E+00 0. -1.
         25    2    1    2    0    0 -0.67570168692E+01 -0.66829012206E+02  0.17119246864E+02  0.14293291977E+03  0.12499990717E+03 0.  0.
          2    1    1    2  501    0 -0.12957643930E+02 -0.18283402274E+02 -0.16341223599E+03  0.16494163272E+03  0.00000000000E+00 0. -1.
          1    1    1    2  502    0  0.19714660799E+02  0.85112414480E+02  0.14788336669E+04  0.14814120985E+04  0.00000000000E+00 0. -1.
         22    1    3    3    0    0  0.37032577010E+02 -0.67399056164E+01 -0.35582550707E+02  0.51797258639E+02  0.00000000000E+00 0. -1.
         22    1    3    3    0    0 -0.43789593879E+02 -0.60089106589E+02  0.52701797571E+02  0.91135661132E+02  0.00000000000E+00 0. -1.
</event>
<event>
 7    1  0.6330892E-006  0.4780633E+02  0.7818608E-02  0.1542021E+00
          2   -1    0    0  502    0  0.00000000000E+00  0.00000000000E+00  0.96453184770E+02  0.96453184770E+02  0.00000000000E+00 0. -1.
          1   -1    0    0  501    0 -0.00000000000E+00 -0.00000000000E+00 -0.81562216040E+03  0.81562216040E+03  0.00000000000E+00 0. -1.
         25    2    1    2    0    0 -0.42037061481E+02  0.48946295866E+02 -0.44341210834E+02  0.14748246041E+03  0.12498831439E+03 0.  0.
          2    1    1    2  501    0  0.26142821454E+02 -0.56070412737E+01 -0.70752124764E+03  0.70802627203E+03  0.00000000000E+00 0. -1.
          1    1    1    2  502    0  0.15894240028E+02 -0.43339254592E+02  0.32693482846E+02  0.56566612726E+02  0.00000000000E+00 0. -1.
         22    1    3    3    0    0 -0.36659907966E+02  0.90962189714E+02 -0.27079125656E+02  0.10174157388E+03  0.00000000000E+00 0. -1.
         22    1    3    3    0    0 -0.53771535149E+01 -0.42015893848E+02 -0.17262085178E+02  0.45740886529E+02  0.00000000000E+00 0. -1.
</event>
<event>
 7    1  0.6330892E-006  0.1026047E+03  0.7818608E-02  0.1447409E+00
          2   -1    0    0  502    0  0.00000000000E+00  0.00000000000E+00  0.97624986115E+03  0.97624986115E+03  0.00000000000E+00 0. -1.
          1   -1    0    0  501    0 -0.00000000000E+00 -0.00000000000E+00 -0.23929977197E+04  0.23929977197E+04  0.00000000000E+00 0. -1.
         25    2    1    2    0    0 -0.71914744545E+02 -0.33198207492E+02 -0.22853709052E+04  0.22901571799E+04  0.12500353218E+03 0.  0.
          2    1    1    2  501    0 -0.18633084398E+02 -0.15118717227E+02 -0.10112176328E+03  0.10392968033E+03  0.00000000000E+00 0. -1.
          1    1    1    2  502    0  0.90547828942E+02  0.48316924719E+02  0.96974480994E+03  0.97516072057E+03  0.00000000000E+00 0. -1.
         22    1    3    3    0    0 -0.67960374063E+02  0.14655524577E+02 -0.58624559355E+03  0.59035353205E+03  0.00000000000E+00 0.  1.
         22    1    3    3    0    0 -0.39543704811E+01 -0.47853732069E+02 -0.16991253116E+04  0.16998036479E+04  0.00000000000E+00 0.  1.
</event>
<event>
 7    1  0.6330892E-006  0.5756090E+02  0.7818608E-02  0.1551284E+00
          2   -1    0    0  502    0  0.00000000000E+00  0.00000000000E+00  0.39014346514E+03  0.39014346514E+03  0.00000000000E+00 0. -1.
          1   -1    0    0  501    0 -0.00000000000E+00 -0.00000000000E+00 -0.45253930821E+02  0.45253930821E+02  0.00000000000E+00 0. -1.
         25    2    1    2    0    0  0.42423641061E+02  0.37326972462E+02  0.12897222057E+03  0.18828720464E+03  0.12500067823E+03 0.  0.
          2    1    1    2  501    0 -0.55173740188E+02 -0.20743741301E+02  0.43073729323E+02  0.73005414644E+02  0.00000000000E+00 0. -1.
          1    1    1    2  502    0  0.12750099127E+02 -0.16583231161E+02  0.17284358443E+03  0.17410477668E+03  0.00000000000E+00 0. -1.
         22    1    3    3    0    0  0.69076315848E+02  0.62734052695E+02  0.62536793915E+02  0.11232964601E+03  0.00000000000E+00 0. -1.
         22    1    3    3    0    0 -0.26652674787E+02 -0.25407080233E+02  0.66435426652E+02  0.75957558634E+02  0.00000000000E+00 0. -1.
</event>
<event>
 7    1  0.6330892E-006  0.1487366E+03  0.7818608E-02  0.1228210E+00
          2   -1    0    0  502    0  0.00000000000E+00  0.00000000000E+00  0.28355189277E+03  0.28355189277E+03  0.00000000000E+00 0. -1.
          1   -1    0    0  501    0 -0.00000000000E+00 -0.00000000000E+00 -0.19089904706E+04  0.19089904706E+04  0.00000000000E+00 0. -1.
         25    2    1    2    0    0  0.14383366152E+03 -0.18443378892E+03 -0.94577219347E+02  0.28155430098E+03  0.12499611713E+03 0.  0.
          2    1    1    2  501    0 -0.39838386514E+02  0.14090044426E+03 -0.17007793379E+04  0.17070707040E+04  0.00000000000E+00 0. -1.
          1    1    1    2  502    0 -0.10399527501E+03  0.43533344665E+02  0.16991797942E+03  0.20391735839E+03  0.00000000000E+00 0. -1.
         22    1    3    3    0    0  0.10482166508E+03 -0.19780628179E+03 -0.82506920628E+02  0.23858394442E+03  0.00000000000E+00 0.  1.
         22    1    3    3    0    0  0.39011996437E+02  0.13372492864E+02 -0.12070298720E+02  0.42970356557E+02  0.00000000000E+00 0.  1.
</event>
<event>
 7    1  0.6330892E-006  0.6730842E+02  0.7818608E-02  0.1400021E+00
          2   -1    0    0  502    0  0.00000000000E+00  0.00000000000E+00  0.16580684933E+04  0.16580684933E+04  0.00000000000E+00 0. -1.
          1   -1    0    0  501    0 -0.00000000000E+00 -0.00000000000E+00 -0.36207231225E+02  0.36207231225E+02  0.00000000000E+00 0. -1.
         25    2    1    2    0    0 -0.53536433195E+02 -0.37459612851E+02  0.46040660174E+03  0.48152939952E+03  0.12500780536E+03 0.  0.
          2    1    1    2  501    0 -0.14524752552E+02  0.50517873041E+02  0.34583745180E+01  0.52678119628E+02  0.00000000000E+00 0. -1.
          1    1    1    2  502    0  0.68061185747E+02 -0.13058260190E+02  0.11579962858E+04  0.11600682054E+04  0.00000000000E+00 0. -1.
         22    1    3    3    0    0 -0.28309304113E+02 -0.10713902218E+02  0.13550829294E+02  0.33163675530E+02  0.00000000000E+00 0. -1.
         22    1    3    3    0    0 -0.25227129081E+02 -0.26745710633E+02  0.44685577244E+03  0.44836572399E+03  0.00000000000E+00 0. -1.
</event>
<event>
 7    1  0.6330892E-006  0.5107627E+02  0.7818608E-02  0.1464298E+00
          2   -1    0    0  502    0  0.00000000000E+00  0.00000000000E+00  0.20507329468E+04  0.20507329468E+04  0.00000000000E+00 0. -1.
          1   -1    0    0  501    0 -0.00000000000E+00 -0.00000000000E+00 -0.32839072463E+03  0.32839072463E+03  0.00000000000E+00 0. -1.
         25    2    1    2    0    0  0.29314372470E+02  0.42333199972E+02 -0.73684430757E+02  0.15395319236E+03  0.12498303024E+03 0.  0.
          2    1    1    2  501    0 -0.41994990030E+02  0.71949754431E+01 -0.21212827113E+03  0.21636485452E+03  0.00000000000E+00 0. -1.
          1    1    1    2  502    0  0.12680617559E+02 -0.49528175416E+02  0.20081549241E+04  0.20088056246E+04  0.00000000000E+00 0. -1.
         22    1    3    3    0    0  0.73681691670E+02  0.42799420873E+02 -0.68405017350E+02  0.10927043751E+03  0.00000000000E+00 0. -1.
         22    1    3    3    0    0 -0.44367319199E+02 -0.46622090084E+00 -0.52794134063E+01  0.44682754848E+02  0.00000000000E+00 0. -1.
</event>
<event>
 7    1  0.6330892E-006  0.7536852E+02  0.7818608E-02  0.1476775E+00
          2   -1    0    0  502    0  0.00000000000E+00  0.00000000000E+00  0.43361535492E+04  0.43361535492E+04  0.00000000000E+00 0. -1.
          1   -1    0    0  501    0 -0.00000000000E+00 -0.00000000000E+00 -0.13476221124E+04  0.13476221124E+04  0.00000000000E+00 0. -1.
         25    2    1    2    0    0  0.29317359367E+02 -0.71340307767E+02  0.10606795542E+04  0.10708013698E+04  0.12500203875E+03 0.  0.
          2    1    1    2  501    0  0.21474421016E+02  0.15368605664E+02 -0.13419946008E+04  0.13422543922E+04  0.00000000000E+00 0. -1.
          1    1    1    2  502    0 -0.50791780382E+02  0.55971702104E+02  0.32698464835E+04  0.32707198996E+04  0.00000000000E+00 0. -1.
         22    1    3    3    0    0  0.72075795021E+02 -0.17670599035E+02  0.42516725149E+03  0.43159513672E+03  0.00000000000E+00 0.  1.
         22    1    3    3    0    0 -0.42758435655E+02 -0.53669708732E+02  0.63551230271E+03  0.63920623304E+03  0.00000000000E+00 0.  1.
</event>
<event>
 7    1  0.6330892E-006  0.1290699E+03  0.7818608E-02  0.1233691E+00
          2   -1    0    0  502    0  0.00000000000E+00  0.00000000000E+00  0.66961850794E+03  0.66961850794E+03  0.00000000000E+00 0. -1.
          1   -1    0    0  501    0 -0.00000000000E+00 -0.00000000000E+00 -0.36339990318E+03  0.36339990318E+03  0.00000000000E+00 0. -1.
         25    2    1    2    0    0  0.15674802323E+03 -0.10680402995E+03  0.20404613613E+03  0.30534696766E+03  0.12499960554E+03 0.  0.
          2    1    1    2  501    0 -0.12743351461E+03 -0.12425360563E+02 -0.28985069804E+03  0.31687082129E+03  0.00000000000E+00 0. -1.
          1    1    1    2  502    0 -0.29314508621E+02  0.11922939051E+03  0.39202316666E+03  0.41080062217E+03  0.00000000000E+00 0. -1.
         22    1    3    3    0    0  0.14227699667E+02 -0.80892762261E+02  0.79542807273E+02  0.11433776547E+03  0.00000000000E+00 0.  1.
         22    1    3    3    0    0  0.14252032357E+03 -0.25911267690E+02  0.12450332886E+03  0.19100920219E+03  0.00000000000E+00 0.  1.
</event>
<event>
 7    1  0.8309388E-006  0.6230755E+02  0.7818608E-02  0.1420151E+00
          2   -1    0    0  502    0  0.00000000000E+00  0.00000000000E+00  0.68994867994E+03  0.68994867994E+03  0.00000000000E+00 0. -1.
          1   -1    0    0  501    0 -0.00000000000E+00 -0.00000000000E+00 -0.26757750461E+04  0.26757750461E+04  0.00000000000E+00 0. -1.
         25    2    1    2    0    0 -0.36248287923E+02  0.13852449673E+02 -0.13593131168E+04  0.13656002271E+04  0.12500400805E+03 0.  0.
          2    1    1    2  501    0  0.36088789335E+02 -0.62382059858E+02 -0.13114705046E+04  0.13134492021E+04  0.00000000000E+00 0. -1.
          1    1    1    2  502    0  0.15949858793E+00  0.48529610185E+02  0.68495725520E+03  0.68667429686E+03  0.00000000000E+00 0. -1.
         22    1    3    3    0    0 -0.62717611353E+02  0.29715910090E+02 -0.41348698838E+03  0.41927082375E+03  0.00000000000E+00 0. -1.
         22    1    3    3    0    0  0.26469323431E+02 -0.15863460417E+02 -0.94582612843E+03  0.94632940337E+03  0.00000000000E+00 0. -1.
</event>
<event>
 7    1  0.6330892E-006  0.1076971E+03  0.7818608E-02  0.1345533E+00
          2   -1    0    0  502    0  0.00000000000E+00  0.00000000000E+00  0.16710825581E+03  0.16710825581E+03  0.00000000000E+00 0. -1.
          1   -1    0    0  501    0 -0.00000000000E+00 -0.00000000000E+00 -0.85720824840E+03  0.85720824840E+03  0.00000000000E+00 0. -1.
         25    2    1    2    0    0  0.68630769282E+02 -0.10437847099E+02 -0.31027042346E+03  0.34163146732E+03  0.12500077057E+03 0.  0.
          2    1    1    2  501    0  0.39333893855E+02  0.33225107220E+02 -0.50968521274E+03  0.51227929788E+03  0.00000000000E+00 0. -1.
          1    1    1    2  502    0 -0.10796466314E+03 -0.22787260122E+02  0.12985564362E+03  0.17040573901E+03  0.00000000000E+00 0. -1.
         22    1    3    3    0    0  0.83536320655E+02  0.66934532561E+01 -0.10148286652E+03  0.13161265662E+03  0.00000000000E+00 0. -1.
         22    1    3    3    0    0 -0.14905551373E+02 -0.17131300355E+02 -0.20878755694E+03  0.21001881070E+03  0.00000000000E+00 0. -1.
</event>
<event>
 7    1  0.6330892E-006  0.6421946E+02  0.7818608E-02  0.1512662E+00
          2   -1    0    0  502    0  0.00000000000E+00  0.00000000000E+00  0.65302389125E+03  0.65302389125E+03  0.00000000000E+00 0. -1.
          1   -1    0    0  501    0 -0.00000000000E+00 -0.00000000000E+00 -0.11635420916E+03  0.11635420916E+03  0.00000000000E+00 0. -1.
         25    2    1    2    0    0 -0.11446500417E+02  0.65892862255E+02  0.14509977518E+03  0.20288413373E+03  0.12504053460E+03 0.  0.
          2    1    1    2  501    0 -0.12564607941E+02 -0.63085658657E+02 -0.75279794774E+02  0.99018771968E+02  0.00000000000E+00 0. -1.
          1    1    1    2  502    0  0.24011108359E+02 -0.28072035980E+01  0.46684970168E+03  0.46747519472E+03  0.00000000000E+00 0. -1.
         22    1    3    3    0    0  0.36370847126E+02  0.12827625383E+01 -0.69451155297E+00  0.36400087180E+02  0.00000000000E+00 0. -1.
         22    1    3    3    0    0 -0.47817347543E+02  0.64610099717E+02  0.14579428674E+03  0.16648404655E+03  0.00000000000E+00 0. -1.
</event>
<event>
 7    1  0.6330892E-006  0.4962058E+02  0.7818608E-02  0.1493403E+00
          2   -1    0    0  502    0  0.00000000000E+00  0.00000000000E+00  0.15751064428E+03  0.15751064428E+03  0.00000000000E+00 0. -1.
          1   -1    0    0  501    0 -0.00000000000E+00 -0.00000000000E+00 -0.30340023189E+03  0.30340023189E+03  0.00000000000E+00 0. -1.
         25    2    1    2    0    0  0.76762327598E+01  0.59033924022E+02 -0.18044191256E+03  0.22744070756E+03  0.12500425157E+03 0.  0.
          2    1    1    2  501    0  0.24242890946E+02 -0.43056970247E+02 -0.90669814632E+02  0.10326003938E+03  0.00000000000E+00 0. -1.
          1    1    1    2  502    0 -0.31919123706E+02 -0.15976953775E+02  0.12522213959E+03  0.13021012923E+03  0.00000000000E+00 0. -1.
         22    1    3    3    0    0 -0.55518628957E+02  0.25977936264E+02 -0.51367094454E+02  0.79973431378E+02  0.00000000000E+00 0.  1.
         22    1    3    3    0    0  0.63194861716E+02  0.33055987758E+02 -0.12907481811E+03  0.14746727618E+03  0.00000000000E+00 0.  1.
</event>
<event>
 7    1  0.6330892E-006  0.8469820E+02  0.7818608E-02  0.1350360E+00
          2   -1    0    0  502    0  0.00000000000E+00  0.00000000000E+00  0.21503468499E+03  0.21503468499E+03  0.00000000000E+00 0. -1.
          1   -1    0    0  501    0 -0.00000000000E+00 -0.00000000000E+00 -0.18683076952E+03  0.18683076952E+03  0.00000000000E+00 0. -1.
         25    2    1    2    0    0 -0.91087035490E+02 -0.24905501537E+02  0.12802459770E+03  0.20231765485E+03  0.12500001522E+03 0.  0.
          2    1    1    2  501    0  0.43346371220E+02 -0.45469717218E+02 -0.95612546048E+02  0.11440350538E+03  0.00000000000E+00 0. -1.
          1    1    1    2  502    0  0.47740664270E+02  0.70375218755E+02 -0.42081361754E+01  0.85144294288E+02  0.00000000000E+00 0. -1.
         22    1    3    3    0    0  0.51496351254E+01 -0.48899466721E+02  0.13858219643E+02  0.51085485602E+02  0.00000000000E+00 0.  1.
         22    1    3    3    0    0 -0.96236670615E+02  0.23993965185E+02  0.11416637805E+03  0.15123216924E+03  0.00000000000E+00 0.  1.
</event>
<event>
 7    1  0.6330892E-006  0.1219632E+03  0.7818608E-02  0.1323201E+00
          2   -1    0    0  502    0  0.00000000000E+00  0.00000000000E+00  0.86942762393E+03  0.86942762393E+03  0.00000000000E+00 0. -1.
          1   -1    0    0  501    0 -0.00000000000E+00 -0.00000000000E+00 -0.47267059380E+03  0.47267059380E+03  0.00000000000E+00 0. -1.
         25    2    1    2    0    0  0.67962528057E+02  0.40331339598E+02 -0.14357047217E+02  0.14858248736E+03  0.12500043429E+03 0.  0.
          2    1    1    2  501    0 -0.92899379248E+02 -0.89648660506E+02 -0.37955873879E+03  0.40091397230E+03  0.00000000000E+00 0. -1.
          1    1    1    2  502    0  0.24936851191E+02  0.49317320909E+02  0.79067281614E+03  0.79260175806E+03  0.00000000000E+00 0. -1.
         22    1    3    3    0    0  0.70534071851E+01  0.38521195244E+02 -0.60554376222E+02  0.72114253207E+02  0.00000000000E+00 0.  1.
         22    1    3    3    0    0  0.60909120872E+02  0.18101443540E+01  0.46197329005E+02  0.76468234158E+02  0.00000000000E+00 0.  1.
</event>
<event>
 7    1  0.6330892E-006  0.1316190E+03  0.7818608E-02  0.1299317E+00
          2   -1    0    0  502    0  0.00000000000E+00  0.00000000000E+00  0.92656522327E+03  0.92656522327E+03  0.00000000000E+00 0. -1.
          1   -1    0    0  501    0 -0.00000000000E+00 -0.00000000000E+00 -0.40114908693E+03  0.40114908693E+03  0.00000000000E+00 0. -1.
         25    2    1    2    0    0 -0.10331865159E+03 -0.98134797581E+02  0.47755091112E+02  0.19547488996E+03  0.12499880645E+03 0.  0.
          2    1    1    2  501    0  0.12606755781E+03  0.38768480836E+02 -0.31267272676E+03  0.33935270486E+03  0.00000000000E+00 0. -1.
          1    1    1    2  502    0 -0.22748906218E+02  0.59366316745E+02  0.79033377199E+03  0.79288671539E+03  0.00000000000E+00 0. -1.
         22    1    3    3    0    0 -0.86883629220E+02 -0.80267873343E+01  0.55731715708E+02  0.10353365867E+03  0.00000000000E+00 0. -1.
         22    1    3    3    0    0 -0.16435022372E+02 -0.90108010247E+02 -0.79766245968E+01  0.91941231289E+02  0.00000000000E+00 0. -1.
</event>
<event>
 7    1  0.6330892E-006  0.7599436E+02  0.7818608E-02  0.1503882E+00
          2   -1    0    0  502    0  0.00000000000E+00  0.00000000000E+00  0.23150695132E+03  0.23150695132E+03  0.00000000000E+00 0. -1.
          1   -1    0    0  501    0 -0.00000000000E+00 -0.00000000000E+00 -0.33753841515E+03  0.33753841515E+03  0.00000000000E+00 0. -1.
         25    2    1    2    0    0 -0.82025052957E+02  0.25375907390E+02 -0.12866794289E+03  0.19887828786E+03  0.12500035147E+03 0.  0.
          2    1    1    2  501    0  0.17055554915E+02  0.13391403023E+02 -0.16574675935E+03  0.16715923505E+03  0.00000000000E+00 0. -1.
          1    1    1    2  502    0  0.64969498042E+02 -0.38767310413E+02  0.18838323841E+03  0.20300784356E+03  0.00000000000E+00 0. -1.
         22    1    3    3    0    0  0.22564777037E+02  0.38367957243E+02 -0.52570860129E+02  0.68883703737E+02  0.00000000000E+00 0.  1.
         22    1    3    3    0    0 -0.10458982999E+03 -0.12992049853E+02 -0.76097082757E+02  0.12999458412E+03  0.00000000000E+00 0.  1.
</event>
<event>
 7    1  0.6330892E-006  0.5744842E+02  0.7818608E-02  0.1432308E+00
          2   -1    0    0  502    0  0.00000000000E+00  0.00000000000E+00  0.11233051329E+04  0.11233051329E+04  0.00000000000E+00 0. -1.
          1   -1    0    0  501    0 -0.00000000000E+00 -0.00000000000E+00 -0.28475485454E+03  0.28475485454E+03  0.00000000000E+00 0. -1.
         25    2    1    2    0    0 -0.69531995740E+02 -0.52698518889E+01 -0.28518847726E+02  0.14594510169E+03  0.12499671301E+03 0.  0.
          2    1    1    2  501    0  0.24618238173E+02  0.41179400811E+02 -0.19381934811E+03  0.19966907724E+03  0.00000000000E+00 0. -1.
          1    1    1    2  502    0  0.44913757566E+02 -0.35909548922E+02  0.10608884742E+04  0.10624458085E+04  0.00000000000E+00 0. -1.
         22    1    3    3    0    0 -0.41429505525E+02 -0.35161816070E+02  0.39036268762E+02  0.66907305403E+02  0.00000000000E+00 0.  1.
         22    1    3    3    0    0 -0.28102490214E+02  0.29891964181E+02 -0.67555116487E+02  0.79037796290E+02  0.00000000000E+00 0.  1.
</event>
<event>
 7    1  0.6330892E-006  0.1306798E+03  0.7818608E-02  0.1380787E+00
          2   -1    0    0  502    0  0.00000000000E+00  0.00000000000E+00  0.17336227285E+03  0.17336227285E+03  0.00000000000E+00 0. -1.
          1   -1    0    0  501    0 -0.00000000000E+00 -0.00000000000E+00 -0.12912458182E+04  0.12912458182E+04  0.00000000000E+00 0. -1.
         25    2    1    2    0    0  0.12016692852E+03 -0.10247606324E+03 -0.27680852892E+03  0.34232909983E+03  0.12499926663E+03 0.  0.
          2    1    1    2  501    0 -0.10113985961E+03  0.77251197665E+02 -0.97571563103E+03  0.98398069665E+03  0.00000000000E+00 0. -1.
          1    1    1    2  502    0 -0.19027068910E+02  0.25224865573E+02  0.13464061457E+03  0.13829829459E+03  0.00000000000E+00 0. -1.
         22    1    3    3    0    0  0.95542947819E+02 -0.46968124945E+02 -0.25744822544E+03  0.27859297985E+03  0.00000000000E+00 0. -1.
         22    1    3    3    0    0  0.24623980705E+02 -0.55507938292E+02 -0.19360303479E+02  0.63736119979E+02  0.00000000000E+00 0. -1.
</event>
<event>
 7    1  0.6330892E-006  0.4968281E+02  0.7818608E-02  0.1478210E+00
          2   -1    0    0  502    0  0.00000000000E+00  0.00000000000E+00  0.77957177284E+03  0.77957177284E+03  0.00000000000E+00 0. -1.
          1   -1    0    0  501    0 -0.00000000000E+00 -0.00000000000E+00 -0.19778424864E+03  0.19778424864E+03  0.00000000000E+00 0. -1.
         25    2    1    2    0    0 -0.45901497035E+02 -0.75079897436E+02 -0.64372954584E+02  0.16586964985E+03  0.12499970012E+03 0.  0.
          2    1    1    2  501    0  0.14559370603E+02  0.36884945514E+02 -0.77015342955E+02  0.86624693526E+02  0.00000000000E+00 0. -1.
          1    1    1    2  502    0  0.31342126432E+02  0.38194951922E+02  0.72317582174E+03  0.72486167811E+03  0.00000000000E+00 0. -1.
         22    1    3    3    0    0 -0.40172334091E+02 -0.72415379955E+02 -0.99913970103E+02  0.12977135702E+03  0.00000000000E+00 0.  1.
         22    1    3    3    0    0 -0.57291629440E+01 -0.26645174807E+01  0.35541015518E+02  0.36098292834E+02  0.00000000000E+00 0.  1.
</event>
<event>
 7    1  0.6330892E-006  0.6140026E+02  0.7818608E-02  0.1399838E+00
          2   -1    0    0  502    0  0.00000000000E+00  0.00000000000E+00  0.10059848828E+04  0.10059848828E+04  0.00000000000E+00 0. -1.
          1   -1    0    0  501    0 -0.00000000000E+00 -0.00000000000E+00 -0.10248370743E+04  0.10248370743E+04  0.00000000000E+00 0. -1.
         25    2    1    2    0    0 -0.98478352521E+02  0.20089496411E+02  0.27941303856E+03  0.32217669890E+03  0.12499842167E+03 0.  0.
          2    1    1    2  501    0  0.54108006370E+02  0.20057232672E+02 -0.10013537352E+04  0.10030150906E+04  0.00000000000E+00 0. -1.
          1    1    1    2  502    0  0.44370346151E+02 -0.40146729083E+02  0.70308850514E+03  0.70563016768E+03  0.00000000000E+00 0. -1.
         22    1    3    3    0    0 -0.33806889788E+02 -0.76418081442E+00 -0.81756887906E+00  0.33825407437E+02  0.00000000000E+00 0. -1.
         22    1    3    3    0    0 -0.64671462733E+02  0.20853677226E+02  0.28023060744E+03  0.28835129147E+03  0.00000000000E+00 0. -1.
</event>
<event>
 7    1  0.6330892E-006  0.6404315E+02  0.7818608E-02  0.1389468E+00
          2   -1    0    0  502    0  0.00000000000E+00  0.00000000000E+00  0.13788393957E+04  0.13788393957E+04  0.00000000000E+00 0. -1.
          1   -1    0    0  501    0 -0.00000000000E+00 -0.00000000000E+00 -0.19055174003E+03  0.19055174003E+03  0.00000000000E+00 0. -1.
         25    2    1    2    0    0 -0.10977406067E+03  0.32206330077E+02  0.25107040470E+03  0.30290060502E+03  0.12499934526E+03 0.  0.
          2    1    1    2  501    0  0.47404507609E+02 -0.36940521031E+02 -0.15823012750E+03  0.16925886294E+03  0.00000000000E+00 0. -1.
          1    1    1    2  502    0  0.62369553060E+02  0.47341909543E+01  0.10954473785E+04  0.10972316677E+04  0.00000000000E+00 0. -1.
         22    1    3    3    0    0 -0.10039481877E+03 -0.76955915558E+01  0.84765753312E+02  0.13161905143E+03  0.00000000000E+00 0. -1.
         22    1    3    3    0    0 -0.93792419019E+01  0.39901921633E+02  0.16630465139E+03  0.17128155359E+03  0.00000000000E+00 0. -1.
</event>
<event>
 7    1  0.6330892E-006  0.1426488E+03  0.7818608E-02  0.1393946E+00
          2   -1    0    0  502    0  0.00000000000E+00  0.00000000000E+00  0.56722512245E+03  0.56722512245E+03  0.00000000000E+00 0. -1.
          1   -1    0    0  501    0 -0.00000000000E+00 -0.00000000000E+00 -0.10873133829E+04  0.10873133829E+04  0.00000000000E+00 0. -1.
         25    2    1    2    0    0  0.98270155078E+02 -0.13065682709E+03 -0.69193967856E+03  0.72189761245E+03  0.12500965660E+03 0.  0.
          2    1    1    2  501    0 -0.17539859866E+01  0.25971037175E+02 -0.37075262747E+03  0.37166528223E+03  0.00000000000E+00 0. -1.
          1    1    1    2  502    0 -0.96516169091E+02  0.10468578992E+03  0.54260404558E+03  0.56097561068E+03  0.00000000000E+00 0. -1.
         22    1    3    3    0    0  0.10085017396E+03 -0.43634619292E+02 -0.27857097648E+03  0.29946039225E+03  0.00000000000E+00 0. -1.
         22    1    3    3    0    0 -0.25800188828E+01 -0.87022207801E+02 -0.41336870208E+03  0.42243722020E+03  0.00000000000E+00 0. -1.
</event>
<event>
 7    1  0.6330892E-006  0.1012944E+03  0.7818608E-02  0.1430344E+00
          2   -1    0    0  502    0  0.00000000000E+00  0.00000000000E+00  0.42374138719E+03  0.42374138719E+03  0.00000000000E+00 0. -1.
          1   -1    0    0  501    0 -0.00000000000E+00 -0.00000000000E+00 -0.28094761083E+03  0.28094761083E+03  0.00000000000E+00 0. -1.
         25    2    1    2    0    0 -0.16000581951E+02  0.10271185267E+03  0.79152873046E+02  0.18082039487E+03  0.12500037835E+03 0.  0.
          2    1    1    2  501    0 -0.25635825900E+02 -0.10271943967E+02 -0.22047894417E+03  0.22220187493E+03  0.00000000000E+00 0. -1.
          1    1    1    2  502    0  0.41636407850E+02 -0.92439908701E+02  0.28411984748E+03  0.30166672822E+03  0.00000000000E+00 0. -1.
         22    1    3    3    0    0  0.51399096837E+02  0.71742169054E+02  0.39170805617E+02  0.96556501536E+02  0.00000000000E+00 0. -1.
         22    1    3    3    0    0 -0.67399678788E+02  0.30969683615E+02  0.39982067429E+02  0.84263893334E+02  0.00000000000E+00 0. -1.
</event>
<event>
 7    1  0.6330892E-006  0.8725792E+02  0.7818608E-02  0.1321472E+00
          2   -1    0    0  502    0  0.00000000000E+00  0.00000000000E+00  0.18035148885E+03  0.18035148885E+03  0.00000000000E+00 0. -1.
          1   -1    0    0  501    0 -0.00000000000E+00 -0.00000000000E+00 -0.24033036208E+03  0.24033036208E+03  0.00000000000E+00 0. -1.
         25    2    1    2    0    0  0.10618971398E+03 -0.10653442727E+03  0.43299649275E+02  0.20031334424E+03  0.12499894682E+03 0.  0.
          2    1    1    2  501    0 -0.73234261179E+02  0.35351895349E+02 -0.11521631677E+03  0.14102415809E+03  0.00000000000E+00 0. -1.
          1    1    1    2  502    0 -0.32955452797E+02  0.71182531924E+02  0.11937794271E+02  0.79344348584E+02  0.00000000000E+00 0. -1.
         22    1    3    3    0    0  0.13129157491E+03 -0.68005400323E+02  0.44186959395E+02  0.15432012019E+03  0.00000000000E+00 0. -1.
         22    1    3    3    0    0 -0.25101860930E+02 -0.38529026950E+02 -0.88731012032E+00  0.45993224056E+02  0.00000000000E+00 0. -1.
</event>
<event>
 7    1  0.1480162E-005  0.1200582E+03  0.7818608E-02  0.1357580E+00
          2   -1    0    0  502    0  0.00000000000E+00  0.00000000000E+00  0.14329270527E+04  0.14329270527E+04  0.00000000000E+00 0. -1.
          1   -1    0    0  501    0 -0.00000000000E+00 -0.00000000000E+00 -0.21231941119E+04  0.21231941119E+04  0.00000000000E+00 0. -1.
         25    2    1    2    0    0  0.13524513696E+03 -0.13032931337E+02 -0.63631787129E+03  0.66255843559E+03  0.12498857097E+03 0.  0.
          2    1    1    2  501    0 -0.24658894698E+02 -0.33610538955E+02 -0.14709237191E+04  0.14715142937E+04  0.00000000000E+00 0. -1.
          1    1    1    2  502    0 -0.11058624226E+03  0.46643470291E+02  0.14169745311E+04  0.14220484353E+04  0.00000000000E+00 0. -1.
         22    1    3    3    0    0  0.91896153939E+02 -0.61089990164E+02 -0.49462291124E+03  0.50678270919E+03  0.00000000000E+00 0. -1.
         22    1    3    3    0    0  0.43348983016E+02  0.48057058828E+02 -0.14169496005E+03  0.15577572640E+03  0.00000000000E+00 0. -1.
</event>
<event>
 7    1  0.6330892E-006  0.9684308E+02  0.7818608E-02  0.1341790E+00
          2   -1    0    0  502    0  0.00000000000E+00  0.00000000000E+00  0.73570576957E+03  0.73570576957E+03  0.00000000000E+00 0. -1.
          1   -1    0    0  501    0 -0.00000000000E+00 -0.00000000000E+00 -0.22865434764E+03  0.22865434764E+03  0.00000000000E+00 0. -1.
         25    2    1    2    0    0  0.84985940619E+01 -0.10306685415E+03 -0.58644404558E+02  0.17250889201E+03  0.12500059645E+03 0.  0.
          2    1    1    2  501    0  0.48316084029E+02  0.86662276170E+02 -0.89721678695E+02  0.13377134863E+03  0.00000000000E+00 0. -1.
          1    1    1    2  502    0 -0.56814678091E+02  0.16404577980E+02  0.65541750519E+03  0.65807987656E+03  0.00000000000E+00 0. -1.
         22    1    3    3    0    0  0.24669260508E+02 -0.11763736788E+02 -0.73669143101E+02  0.78575445035E+02  0.00000000000E+00 0. -1.
         22    1    3    3    0    0 -0.16170666446E+02 -0.91303117361E+02  0.15024738543E+02  0.93933446980E+02  0.00000000000E+00 0. -1.
</event>
<event>
 7    1  0.6330892E-006  0.1184750E+03  0.7818608E-02  0.1375558E+00
          2   -1    0    0  502    0  0.00000000000E+00  0.00000000000E+00  0.24209326696E+04  0.24209326696E+04  0.00000000000E+00 0. -1.
          1   -1    0    0  501    0 -0.00000000000E+00 -0.00000000000E+00 -0.99653689069E+02  0.99653689069E+02  0.00000000000E+00 0. -1.
         25    2    1    2    0    0 -0.60360986960E+02  0.13481300230E+03  0.46331167417E+03  0.50209547094E+03  0.12499664070E+03 0.  0.
          2    1    1    2  501    0 -0.91783390205E+00 -0.36362364221E+02 -0.74311169477E+02  0.82735807603E+02  0.00000000000E+00 0. -1.
          1    1    1    2  502    0  0.61278820862E+02 -0.98450638074E+02  0.19322784758E+04  0.19357550801E+04  0.00000000000E+00 0. -1.
         22    1    3    3    0    0 -0.32270629750E+02  0.90638959196E+02  0.11530456877E+03  0.15017309362E+03  0.00000000000E+00 0.  1.
         22    1    3    3    0    0 -0.28090357210E+02  0.44174043099E+02  0.34800710540E+03  0.35192237733E+03  0.00000000000E+00 0.  1.
</event>
<event>
 7    1  0.6330892E-006  0.1306816E+03  0.7818608E-02  0.1375068E+00
          2   -1    0    0  502    0  0.00000000000E+00  0.00000000000E+00  0.23700461143E+03  0.23700461143E+03  0.00000000000E+00 0. -1.
          1   -1    0    0  501    0 -0.00000000000E+00 -0.00000000000E+00 -0.70252023429E+03  0.70252023429E+03  0.00000000000E+00 0. -1.
         25    2    1    2    0    0  0.10524258568E+03  0.12265005590E+03 -0.32099880021E+03  0.38050499535E+03  0.12499913479E+03 0.  0.
          2    1    1    2  501    0 -0.17839434733E+02 -0.27892185128E+02 -0.33081559850E+03  0.33246831372E+03  0.00000000000E+00 0. -1.
          1    1    1    2  502    0 -0.87403150951E+02 -0.94757870772E+02  0.18629877585E+03  0.22655153664E+03  0.00000000000E+00 0. -1.
         22    1    3    3    0    0  0.81844735558E+02  0.10430227551E+03 -0.12484137827E+03  0.18210682344E+03  0.00000000000E+00 0.  1.
         22    1    3    3    0    0  0.23397850125E+02  0.18347780391E+02 -0.19615742194E+03  0.19839817192E+03  0.00000000000E+00 0.  1.
</event>
<event>
 7    1  0.6330892E-006  0.7416990E+02  0.7818608E-02  0.1470571E+00
          2   -1    0    0  502    0  0.00000000000E+00  0.00000000000E+00  0.14608540377E+04  0.14608540377E+04  0.00000000000E+00 0. -1.
          1   -1    0    0  501    0 -0.00000000000E+00 -0.00000000000E+00 -0.56853608303E+03  0.56853608303E+03  0.00000000000E+00 0. -1.
         25    2    1    2    0    0 -0.95282725449E+02 -0.33567572086E+02  0.12654128970E+03  0.20455631183E+03  0.12500002818E+03 0.  0.
          2    1    1    2  501    0  0.24658094896E+02  0.13364599608E+02 -0.52811470335E+03  0.52885893588E+03  0.00000000000E+00 0. -1.
          1    1    1    2  502    0  0.70624630553E+02  0.20202972478E+02  0.12938913683E+04  0.12959748730E+04  0.00000000000E+00 0. -1.
         22    1    3    3    0    0  0.27401016227E+02 -0.22190003712E+02  0.43404020113E+02  0.55920666278E+02  0.00000000000E+00 0. -1.
         22    1    3    3    0    0 -0.12268374168E+03 -0.11377568374E+02  0.83137269589E+02  0.14863564555E+03  0.00000000000E+00 0. -1.
</event>
<event>
 7    1  0.6330892E-006  0.2235745E+03  0.7818608E-02  0.1201963E+00
          2   -1    0    0  502    0  0.00000000000E+00  0.00000000000E+00  0.11417122169E+04  0.11417122169E+04  0.00000000000E+00 0. -1.
          1   -1    0    0  501    0 -0.00000000000E+00 -0.00000000000E+00 -0.94297731064E+02  0.94297731064E+02  0.00000000000E+00 0. -1.
         25    2    1    2    0    0 -0.49623282344E+02  0.24141729682E+03  0.30946875268E+03  0.41489801412E+03  0.12499868751E+03 0.  0.
          2    1    1    2  501    0 -0.77953048845E+02 -0.61069448703E+02  0.80733211934E+02  0.12776543703E+03  0.00000000000E+00 0. -1.
          1    1    1    2  502    0  0.12757633119E+03 -0.18034784812E+03  0.65721252121E+03  0.69334649681E+03  0.00000000000E+00 0. -1.
         22    1    3    3    0    0 -0.12920977787E+02  0.89015708356E+00  0.78018383124E+02  0.79086105935E+02  0.00000000000E+00 0.  1.
         22    1    3    3    0    0 -0.36702304557E+02  0.24052713974E+03  0.23145036955E+03  0.33581190818E+03  0.00000000000E+00 0.  1.
</event>
<event>
 7    1  0.6330892E-006  0.1044949E+03  0.7818608E-02  0.1378863E+00
          2   -1    0    0  502    0  0.00000000000E+00  0.00000000000E+00  0.55232244079E+03  0.55232244079E+03  0.00000000000E+00 0. -1.
          1   -1    0    0  501    0 -0.00000000000E+00 -0.00000000000E+00 -0.11812065876E+04  0.11812065876E+04  0.00000000000E+00 0. -1.
         25    2    1    2    0    0 -0.86157185115E+02 -0.30404184757E+02  0.39358305728E+03  0.42294332645E+03  0.12500383760E+03 0.  0.
          2    1    1    2  501    0 -0.36463305294E+02 -0.16780167317E+02 -0.11361414808E+04  0.11368503028E+04  0.00000000000E+00 0. -1.
          1    1    1    2  502    0  0.12262049041E+03  0.47184352073E+02  0.11367427666E+03  0.17373539916E+03  0.00000000000E+00 0. -1.
         22    1    3    3    0    0  0.31423502282E+02 -0.20919382196E+01  0.11513463048E+03  0.11936413128E+03  0.00000000000E+00 0. -1.
         22    1    3    3    0    0 -0.11758068740E+03 -0.28312246537E+02  0.27844842680E+03  0.30357919517E+03  0.00000000000E+00 0. -1.
</event>
<event>
 7    1  0.6330892E-006  0.1282389E+03  0.7818608E-02  0.1375945E+00
          2   -1    0    0  502    0  0.00000000000E+00  0.00000000000E+00  0.26682955809E+03  0.26682955809E+03  0.00000000000E+00 0. -1.
          1   -1    0    0  501    0 -0.00000000000E+00 -0.00000000000E+00 -0.12887823196E+04  0.12887823196E+04  0.00000000000E+00 0. -1.
         25    2    1    2    0    0 -0.23188430950E+02  0.10133086928E+03  0.97367386393E+01  0.16286623373E+03  0.12499983045E+03 0.  0.
          2    1    1    2  501    0 -0.16043841022E+02  0.29405846798E+02 -0.11861462208E+04  0.11866191326E+04  0.00000000000E+00 0. -1.
          1    1    1    2  502    0  0.39232271972E+02 -0.13073671607E+03  0.15445672072E+03  0.20612651132E+03  0.00000000000E+00 0. -1.
         22    1    3    3    0    0 -0.27349188287E+01 -0.29253978749E+02  0.88529740499E+01  0.30686319479E+02  0.00000000000E+00 0. -1.
         22    1    3    3    0    0 -0.20453512122E+02  0.13058484802E+03  0.88376458932E+00  0.13217991425E+03  0.00000000000E+00 0. -1.
</event>
<event>
 7    1  0.6330892E-006  0.2343329E+03  0.7818608E-02  0.1275795E+00
          2   -1    0    0  502    0  0.00000000000E+00  0.00000000000E+00  0.57918345867E+03  0.57918345867E+03  0.00000000000E+00 0. -1.
          1   -1    0    0  501    0 -0.00000000000E+00 -0.00000000000E+00 -0.30190181702E+03  0.30190181702E+03  0.00000000000E+00 0. -1.
         25    2    1    2    0    0 -0.94129667016E+01  0.21149588045E+03 -0.18768984192E+01  0.24586107027E+03  0.12500012695E+03 0.  0.
          2    1    1    2  501    0 -0.11106280695E+02 -0.25103634033E+03 -0.87340214245E+02  0.26602801856E+03  0.00000000000E+00 0. -1.
          1    1    1    2  502    0  0.20519247396E+02  0.39540459879E+02  0.36649875431E+03  0.36919618685E+03  0.00000000000E+00 0. -1.
         22    1    3    3    0    0  0.50592770481E+02  0.13961128013E+03 -0.21912211967E+02  0.15010357424E+03  0.00000000000E+00 0. -1.
         22    1    3    3    0    0 -0.60005737183E+02  0.71884600318E+02  0.20035313548E+02  0.95757496034E+02  0.00000000000E+00 0. -1.
</event>
<event>
 7    1  0.6330892E-006  0.1179408E+03  0.7818608E-02  0.1440057E+00
          2   -1    0    0  502    0  0.00000000000E+00  0.00000000000E+00  0.59558307498E+03  0.59558307498E+03  0.00000000000E+00 0. -1.
          1   -1    0    0  501    0 -0.00000000000E+00 -0.00000000000E+00 -0.23883120379E+03  0.23883120379E+03  0.00000000000E+00 0. -1.
         25    2    1    2    0    0 -0.41185484204E+02  0.91960994962E+02  0.40233520809E+02  0.16552036019E+03  0.12500073895E+03 0.  0.
          2    1    1    2  501    0  0.30895183835E+01  0.21830083522E+02 -0.16815102632E+03  0.16959028664E+03  0.00000000000E+00 0. -1.
          1    1    1    2  502    0  0.38095965821E+02 -0.11379107848E+03  0.48466937670E+03  0.49930363194E+03  0.00000000000E+00 0. -1.
         22    1    3    3    0    0 -0.21557582329E+02  0.20680824117E+01  0.66415323376E+02  0.69857007521E+02  0.00000000000E+00 0.  1.
         22    1    3    3    0    0 -0.19627901875E+02  0.89892912551E+02 -0.26181802567E+02  0.95663352672E+02  0.00000000000E+00 0.  1.
</event>
<event>
 7    1  0.6330892E-006  0.4772357E+02  0.7818608E-02  0.1472900E+00
          2   -1    0    0  502    0  0.00000000000E+00  0.00000000000E+00  0.16719913161E+04  0.16719913161E+04  0.00000000000E+00 0. -1.
          1   -1    0    0  501    0 -0.00000000000E+00 -0.00000000000E+00 -0.52501082171E+02  0.52501082171E+02  0.00000000000E+00 0. -1.
         25    2    1    2    0    0 -0.30048636326E+02 -0.32905808884E+02  0.29520313688E+03  0.32365931809E+03  0.12499899743E+03 0.  0.
          2    1    1    2  501    0  0.48448254075E+02 -0.58149651341E+01 -0.22238934008E+02  0.53624782780E+02  0.00000000000E+00 0. -1.
          1    1    1    2  502    0 -0.18399617748E+02  0.38720774018E+02  0.13465260311E+04  0.13472082974E+04  0.00000000000E+00 0. -1.
         22    1    3    3    0    0 -0.71190897835E+02 -0.34544489487E+01  0.23198039360E+03  0.24268287983E+03  0.00000000000E+00 0.  1.
         22    1    3    3    0    0  0.41142261509E+02 -0.29451359935E+02  0.63222743285E+02  0.80976438255E+02  0.00000000000E+00 0.  1.
</event>
<event>
 7    1  0.6330892E-006  0.4240760E+02  0.7818608E-02  0.1583970E+00
          2   -1    0    0  502    0  0.00000000000E+00  0.00000000000E+00  0.12928443675E+03  0.12928443675E+03  0.00000000000E+00 0. -1.
          1   -1    0    0  501    0 -0.00000000000E+00 -0.00000000000E+00 -0.10537463119E+03  0.10537463119E+03  0.00000000000E+00 0. -1.
         25    2    1    2    0    0  0.46530426658E+01  0.38065420430E+02  0.44590676048E+02  0.13814157207E+03  0.12499655397E+03 0.  0.
          2    1    1    2  501    0  0.18446785933E+02 -0.39187656755E+02 -0.45344916019E+02  0.62706600625E+02  0.00000000000E+00 0. -1.
          1    1    1    2  502    0 -0.23099828599E+02  0.11222363245E+01  0.24664045525E+02  0.33810895246E+02  0.00000000000E+00 0. -1.
         22    1    3    3    0    0  0.57126079787E+02  0.20119586079E+01  0.47628681098E+02  0.74403818668E+02  0.00000000000E+00 0.  1.
         22    1    3    3    0    0 -0.52473037121E+02  0.36053461822E+02 -0.30380050508E+01  0.63737753402E+02  0.00000000000E+00 0.  1.
</event>
<event>
 7    1  0.6330892E-006  0.8664446E+02  0.7818608E-02  0.1437794E+00
          2   -1    0    0  502    0  0.00000000000E+00  0.00000000000E+00  0.21972403487E+04  0.21972403487E+04  0.00000000000E+00 0. -1.
          1   -1    0    0  501    0 -0.00000000000E+00 -0.00000000000E+00 -0.56089732658E+03  0.56089732658E+03  0.00000000000E+00 0. -1.
         25    2    1    2    0    0 -0.87327099246E+02 -0.72500658459E+02  0.94438135481E+01  0.16910555202E+03  0.12500053748E+03 0.  0.
          2    1    1    2  501    0  0.72074628074E+02  0.46060856125E+02 -0.47715273115E+03  0.48475878880E+03  0.00000000000E+00 0. -1.
          1    1    1    2  502    0  0.15252471172E+02  0.26439802334E+02  0.21040519397E+04  0.21042733344E+04  0.00000000000E+00 0. -1.
         22    1    3    3    0    0 -0.11971345990E+03 -0.59077470470E+02  0.11471653506E+02  0.13398902504E+03  0.00000000000E+00 0. -1.
         22    1    3    3    0    0  0.32386360653E+02 -0.13423187989E+02 -0.20278399584E+01  0.35116526978E+02  0.00000000000E+00 0. -1.
</event>
<event>
 7    1  0.6330892E-006  0.1333379E+03  0.7818608E-02  0.1346575E+00
          2   -1    0    0  502    0  0.00000000000E+00  0.00000000000E+00  0.31692895085E+03  0.31692895085E+03  0.00000000000E+00 0. -1.
          1   -1    0    0  501    0 -0.00000000000E+00 -0.00000000000E+00 -0.11810479819E+04  0.11810479819E+04  0.00000000000E+00 0. -1.
         25    2    1    2    0    0 -0.11014799408E+03  0.10274072104E+03 -0.24730336997E+03  0.31538758740E+03  0.12498854798E+03 0.  0.
          2    1    1    2  501    0  0.40020693732E+02  0.98579773827E+01 -0.88364502271E+03  0.88460576632E+03  0.00000000000E+00 0. -1.
          1    1    1    2  502    0  0.70127300346E+02 -0.11259869843E+03  0.26682936163E+03  0.29798357903E+03  0.00000000000E+00 0. -1.
         22    1    3    3    0    0  0.44137440238E+01 -0.18755774887E+02 -0.66637994011E+02  0.69367733664E+02  0.00000000000E+00 0. -1.
         22    1    3    3    0    0 -0.11456173810E+03  0.12149649593E+03 -0.18066537596E+03  0.24601985373E+03  0.00000000000E+00 0. -1.
</event>
<event>
 7    1  0.6330892E-006  0.2392006E+03  0.7818608E-02  0.1267050E+00
          2   -1    0    0  502    0  0.00000000000E+00  0.00000000000E+00  0.83877570486E+03  0.83877570486E+03  0.00000000000E+00 0. -1.
          1   -1    0    0  501    0 -0.00000000000E+00 -0.00000000000E+00 -0.31779012777E+03  0.31779012777E+03  0.00000000000E+00 0. -1.
         25    2    1    2    0    0 -0.22584937245E+03 -0.10748857870E+02  0.37329786357E+03  0.45398014039E+03  0.12499278356E+03 0.  0.
          2    1    1    2  501    0 -0.21562286031E+02 -0.42304779099E+02 -0.23723591761E+03  0.24194112325E+03  0.00000000000E+00 0. -1.
          1    1    1    2  502    0  0.24741165848E+03  0.53053636969E+02  0.38492363113E+03  0.46064456900E+03  0.00000000000E+00 0. -1.
         22    1    3    3    0    0 -0.60688356465E+02  0.52311794836E+02  0.94997910878E+02  0.12427471006E+03  0.00000000000E+00 0. -1.
         22    1    3    3    0    0 -0.16516101598E+03 -0.63060652706E+02  0.27829995269E+03  0.32970543033E+03  0.00000000000E+00 0. -1.
</event>
<event>
 7    1  0.6330892E-006  0.6726222E+02  0.7818608E-02  0.1446822E+00
          2   -1    0    0  502    0  0.00000000000E+00  0.00000000000E+00  0.13080857308E+04  0.13080857308E+04  0.00000000000E+00 0. -1.
          1   -1    0    0  501    0 -0.00000000000E+00 -0.00000000000E+00 -0.94631432600E+02  0.94631432600E+02  0.00000000000E+00 0. -1.
         25    2    1    2    0    0 -0.21929753450E+02  0.33432986060E+02  0.10026564842E+03  0.16515728175E+03  0.12500019528E+03 0.  0.
          2    1    1    2  501    0  0.13362960330E+02  0.34247815769E+02 -0.55669461467E+02  0.66712596515E+02  0.00000000000E+00 0. -1.
          1    1    1    2  502    0  0.85667931209E+01 -0.67680801829E+02  0.11688581113E+04  0.11708472851E+04  0.00000000000E+00 0. -1.
         22    1    3    3    0    0  0.76999221882E+01  0.76322523636E+02  0.74793928205E+02  0.10713798632E+03  0.00000000000E+00 0. -1.
         22    1    3    3    0    0 -0.29629675639E+02 -0.42889537576E+02  0.25471720218E+02  0.58019295436E+02  0.00000000000E+00 0. -1.
</event>
<event>
 7    1  0.6330892E-006  0.1261142E+03  0.7818608E-02  0.1402788E+00
          2   -1    0    0  502    0  0.00000000000E+00  0.00000000000E+00  0.78608866751E+03  0.78608866751E+03  0.00000000000E+00 0. -1.
          1   -1    0    0  501    0 -0.00000000000E+00 -0.00000000000E+00 -0.10959448380E+03  0.10959448380E+03  0.00000000000E+00 0. -1.
         25    2    1    2    0    0  0.92262089232E+02  0.52050363631E+02  0.19901578939E+03  0.25778635437E+03  0.12499994643E+03 0.  0.
          2    1    1    2  501    0 -0.11968793764E+03 -0.53142625163E+02 -0.26133375976E+02  0.13353761405E+03  0.00000000000E+00 0. -1.
          1    1    1    2  502    0  0.27425848405E+02  0.10922615319E+01  0.50361177029E+03  0.50435918290E+03  0.00000000000E+00 0. -1.
         22    1    3    3    0    0  0.82954505758E+02 -0.24432934464E+02  0.11330799148E+03  0.14253813260E+03  0.00000000000E+00 0. -1.
         22    1    3    3    0    0  0.93075834741E+01  0.76483298095E+02  0.85707797914E+02  0.11524822177E+03  0.00000000000E+00 0. -1.
</event>
<event>
 7    1  0.6330892E-006  0.6279793E+02  0.7818608E-02  0.1386906E+00
          2   -1    0    0  502    0  0.00000000000E+00  0.00000000000E+00  0.20666378052E+04  0.20666378052E+04  0.00000000000E+00 0. -1.
          1   -1    0    0  501    0 -0.00000000000E+00 -0.00000000000E+00 -0.12941842164E+04  0.12941842164E+04  0.00000000000E+00 0. -1.
         25    2    1    2    0    0 -0.18461390106E+02  0.42232913144E+02  0.12924945092E+03  0.18562468534E+03  0.12500664529E+03 0.  0.
          2    1    1    2  501    0 -0.45170508001E+02 -0.43294077543E+02 -0.12646926572E+04  0.12662394201E+04  0.00000000000E+00 0. -1.
          1    1    1    2  502    0  0.63631898107E+02  0.10611643985E+01  0.19078967951E+04  0.19089579161E+04  0.00000000000E+00 0. -1.
         22    1    3    3    0    0  0.16335418580E+02 -0.32758545314E+02  0.83424900839E+02  0.91102592012E+02  0.00000000000E+00 0. -1.
         22    1    3    3    0    0 -0.34796808686E+02  0.74991458459E+02  0.45824550079E+02  0.94522093324E+02  0.00000000000E+00 0. -1.
</event>
<event>
 7    1  0.6330892E-006  0.4397940E+02  0.7818608E-02  0.1529712E+00
          2   -1    0    0  502    0  0.00000000000E+00  0.00000000000E+00  0.60865554678E+03  0.60865554678E+03  0.00000000000E+00 0. -1.
          1   -1    0    0  501    0 -0.00000000000E+00 -0.00000000000E+00 -0.54550370107E+03  0.54550370107E+03  0.00000000000E+00 0. -1.
         25    2    1    2    0    0 -0.86372955137E+01  0.19857558122E+02  0.28799994771E+03  0.31470127299E+03  0.12499598334E+03 0.  0.
          2    1    1    2  501    0  0.40099465944E+02 -0.18266405349E+02 -0.53042974266E+03  0.53225683710E+03  0.00000000000E+00 0. -1.
          1    1    1    2  502    0 -0.31462170431E+02 -0.15911527725E+01  0.30558164066E+03  0.30720113777E+03  0.00000000000E+00 0. -1.
         22    1    3    3    0    0 -0.40458642892E+02 -0.16623530165E+02  0.24821916754E+03  0.25204364438E+03  0.00000000000E+00 0. -1.
         22    1    3    3    0    0  0.31821347378E+02  0.36481088287E+02  0.39780780170E+02  0.62657628606E+02  0.00000000000E+00 0. -1.
</event>
<event>
 7    1  0.6330892E-006  0.5807327E+02  0.7818608E-02  0.1497880E+00
          2   -1    0    0  502    0  0.00000000000E+00  0.00000000000E+00  0.78173931777E+03  0.78173931777E+03  0.00000000000E+00 0. -1.
          1   -1    0    0  501    0 -0.00000000000E+00 -0.00000000000E+00 -0.28994326455E+03  0.28994326455E+03  0.00000000000E+00 0. -1.
         25    2    1    2    0    0 -0.28604284293E+02 -0.71977921979E+02  0.41233224894E+03  0.43776944514E+03  0.12500070900E+03 0.  0.
          2    1    1    2  501    0 -0.60805811473E+01  0.28937609545E+02 -0.27428365884E+03  0.27587294942E+03  0.00000000000E+00 0. -1.
          1    1    1    2  502    0  0.34684865440E+02  0.43040312434E+02  0.35374746313E+03  0.35804018776E+03  0.00000000000E+00 0. -1.
         22    1    3    3    0    0  0.34549065336E+00 -0.60284759713E+02  0.63561057918E+02  0.87603537036E+02  0.00000000000E+00 0. -1.
         22    1    3    3    0    0 -0.28949774946E+02 -0.11693162265E+02  0.34877119102E+03  0.35016590810E+03  0.00000000000E+00 0. -1.
</event>
<event>
 7    1  0.6330892E-006  0.9273172E+02  0.7818608E-02  0.1450521E+00
          2   -1    0    0  502    0  0.00000000000E+00  0.00000000000E+00  0.49397438590E+03  0.49397438590E+03  0.00000000000E+00 0. -1.
          1   -1    0    0  501    0 -0.00000000000E+00 -0.00000000000E+00 -0.24389263675E+03  0.24389263675E+03  0.00000000000E+00 0. -1.
         25    2    1    2    0    0 -0.10704385459E+03 -0.25814244426E+02  0.11135190077E+03  0.20035500722E+03  0.12497248133E+03 0.  0.
          2    1    1    2  501    0  0.83755404793E+02  0.37255752635E+02 -0.18831423802E+03  0.20944023295E+03  0.00000000000E+00 0. -1.
          1    1    1    2  502    0  0.23288449802E+02 -0.11441508209E+02  0.32704408640E+03  0.32807178247E+03  0.00000000000E+00 0. -1.
         22    1    3    3    0    0 -0.45848305732E+02 -0.62400408247E+01 -0.22820554734E+02  0.51592470055E+02  0.00000000000E+00 0. -1.
         22    1    3    3    0    0 -0.61195548863E+02 -0.19574203601E+02  0.13417245551E+03  0.14876253717E+03  0.00000000000E+00 0. -1.
</event>
<event>
 7    1  0.6330892E-006  0.5840335E+02  0.7818608E-02  0.1464436E+00
          2   -1    0    0  502    0  0.00000000000E+00  0.00000000000E+00  0.46451309135E+03  0.46451309135E+03  0.00000000000E+00 0. -1.
          1   -1    0    0  501    0 -0.00000000000E+00 -0.00000000000E+00 -0.19950864482E+04  0.19950864482E+04  0.00000000000E+00 0. -1.
         25    2    1    2    0    0 -0.58217829023E+02  0.75223589451E+02 -0.14220230304E+04  0.14306720753E+04  0.12500073619E+03 0.  0.
          2    1    1    2  501    0  0.26221880052E+02 -0.26421063121E+02 -0.56627533470E+03  0.56749750154E+03  0.00000000000E+00 0. -1.
          1    1    1    2  502    0  0.31995948971E+02 -0.48802526330E+02  0.45772500824E+03  0.46142996272E+03  0.00000000000E+00 0. -1.
         22    1    3    3    0    0 -0.24499361639E+02  0.10758577647E+03 -0.10009558480E+04  0.10070191297E+04  0.00000000000E+00 0.  1.
         22    1    3    3    0    0 -0.33718467384E+02 -0.32362187022E+02 -0.42106718239E+03  0.42365294556E+03  0.00000000000E+00 0.  1.
</event>
<event>
 7    1  0.6330892E-006  0.8023283E+02  0.7818608E-02  0.1494757E+00
          2   -1    0    0  502    0  0.00000000000E+00  0.00000000000E+00  0.63767577223E+03  0.63767577223E+03  0.00000000000E+00 0. -1.
          1   -1    0    0  501    0 -0.00000000000E+00 -0.00000000000E+00 -0.45982820727E+03  0.45982820727E+03  0.00000000000E+00 0. -1.
         25    2    1    2    0    0  0.68998858456E+02 -0.71156623549E+02  0.44495387018E+02  0.16561608923E+03  0.12499896801E+03 0.  0.
          2    1    1    2  501    0 -0.61300437710E+02  0.50686945260E+02 -0.39507786676E+03  0.40300549734E+03  0.00000000000E+00 0. -1.
          1    1    1    2  502    0 -0.76984207463E+01  0.20469678289E+02  0.52843004470E+03  0.52888239293E+03  0.00000000000E+00 0. -1.
         22    1    3    3    0    0  0.57057311043E+02 -0.38205168238E+02 -0.36209529547E+02  0.77629257716E+02  0.00000000000E+00 0. -1.
         22    1    3    3    0    0  0.11941547413E+02 -0.32951455311E+02  0.80704916566E+02  0.87986831513E+02  0.00000000000E+00 0. -1.
</event>
<event>
 7    1  0.6330892E-006  0.1111554E+03  0.7818608E-02  0.1279325E+00
          2   -1    0    0  502    0  0.00000000000E+00  0.00000000000E+00  0.24613091489E+04  0.24613091489E+04  0.00000000000E+00 0. -1.
          1   -1    0    0  501    0 -0.00000000000E+00 -0.00000000000E+00 -0.44194346090E+02  0.44194346090E+02  0.00000000000E+00 0. -1.
         25    2    1    2    0    0 -0.29998458539E+02  0.10568451028E+03  0.66523903930E+03  0.68573841034E+03  0.12500025909E+03 0.  0.
          2    1    1    2  501    0  0.90644784467E+02 -0.52937874342E+01  0.32570880531E+02  0.96464311510E+02  0.00000000000E+00 0. -1.
          1    1    1    2  502    0 -0.60646325928E+02 -0.10039072285E+03  0.17193048830E+04  0.17233007731E+04  0.00000000000E+00 0. -1.
         22    1    3    3    0    0  0.29805713691E+02  0.83910861483E+02  0.24445761439E+03  0.26017097931E+03  0.00000000000E+00 0. -1.
         22    1    3    3    0    0 -0.59804172230E+02  0.21773648801E+02  0.42078142492E+03  0.42556743103E+03  0.00000000000E+00 0. -1.
</event>
<event>
 7    1  0.6330892E-006  0.5636111E+02  0.7818608E-02  0.1480654E+00
          2   -1    0    0  502    0  0.00000000000E+00  0.00000000000E+00  0.55737852989E+03  0.55737852989E+03  0.00000000000E+00 0. -1.
          1   -1    0    0  501    0 -0.00000000000E+00 -0.00000000000E+00 -0.69307965030E+03  0.69307965030E+03  0.00000000000E+00 0. -1.
         25    2    1    2    0    0 -0.42664995044E+02  0.50580761213E+02  0.31933088612E+02  0.14499489043E+03  0.12500032358E+03 0.  0.
          2    1    1    2  501    0  0.53420951019E+02 -0.17950983814E+02 -0.63466914394E+03  0.63716635042E+03  0.00000000000E+00 0. -1.
          1    1    1    2  502    0 -0.10755955975E+02 -0.32629777399E+02  0.46703493492E+03  0.46829693934E+03  0.00000000000E+00 0. -1.
         22    1    3    3    0    0 -0.86369028143E+02  0.42327568199E+02  0.28825987688E+02  0.10041000756E+03  0.00000000000E+00 0.  1.
         22    1    3    3    0    0  0.43704033099E+02  0.82531930140E+01  0.31071009239E+01  0.44584882867E+02  0.00000000000E+00 0.  1.
</event>
<event>
 7    1  0.6330892E-006  0.1087379E+03  0.7818608E-02  0.1316585E+00
          2   -1    0    0  502    0  0.00000000000E+00  0.00000000000E+00  0.99591384692E+03  0.99591384692E+03  0.00000000000E+00 0. -1.
          1   -1    0    0  501    0 -0.00000000000E+00 -0.00000000000E+00 -0.82891494368E+03  0.82891494368E+03  0.00000000000E+00 0. -1.
         25    2    1    2    0    0 -0.60877232612E+02  0.13042901295E+03  0.40585034227E+03  0.44839448924E+03  0.12500141116E+03 0.  0.
          2    1    1    2  501    0 -0.11359794273E+01 -0.10855050122E+03 -0.80207344891E+03  0.80938638437E+03  0.00000000000E+00 0. -1.
          1    1    1    2  502    0  0.62013212040E+02 -0.21878511728E+02  0.56322200988E+03  0.56704791698E+03  0.00000000000E+00 0. -1.
         22    1    3    3    0    0  0.36792329178E+02  0.21175201045E+02  0.68477181317E+02  0.80567915368E+02  0.00000000000E+00 0.  1.
         22    1    3    3    0    0 -0.97669561791E+02  0.10925381190E+03  0.33737316095E+03  0.36782657387E+03  0.00000000000E+00 0.  1.
</event>
<event>
 7    1  0.6330892E-006  0.9911970E+02  0.7818608E-02  0.1337972E+00
          2   -1    0    0  502    0  0.00000000000E+00  0.00000000000E+00  0.81246748200E+03  0.81246748200E+03  0.00000000000E+00 0. -1.
          1   -1    0    0  501    0 -0.00000000000E+00 -0.00000000000E+00 -0.48993828173E+03  0.48993828173E+03  0.00000000000E+00 0. -1.
         25    2    1    2    0    0  0.73960218083E+02  0.46047301148E+02  0.20623851174E+03  0.25641699790E+03  0.12499954113E+03 0.  0.
          2    1    1    2  501    0 -0.33291970193E+02  0.49580364022E+02 -0.45825051699E+03  0.46212563670E+03  0.00000000000E+00 0. -1.
          1    1    1    2  502    0 -0.40668247890E+02 -0.95627665170E+02  0.57454120551E+03  0.58386312913E+03  0.00000000000E+00 0. -1.
         22    1    3    3    0    0 -0.24031651369E+02  0.14439643964E+02  0.25103635428E+01  0.28148277220E+02  0.00000000000E+00 0. -1.
         22    1    3    3    0    0  0.97991869452E+02  0.31607657184E+02  0.20372814820E+03  0.22826872068E+03  0.00000000000E+00 0. -1.
</event>
<event>
 7    1  0.6330892E-006  0.4826043E+02  0.7818608E-02  0.1465031E+00
          2   -1    0    0  502    0  0.00000000000E+00  0.00000000000E+00  0.10069964979E+04  0.10069964979E+04  0.00000000000E+00 0. -1.
          1   -1    0    0  501    0 -0.00000000000E+00 -0.00000000000E+00 -0.13771416918E+02  0.13771416918E+02  0.00000000000E+00 0. -1.
         25    2    1    2    0    0  0.29910070093E+02 -0.45034609911E+02  0.58512445835E+03  0.60077229068E+03  0.12503593525E+03 0.  0.
          2    1    1    2  501    0 -0.50742063715E+02  0.53107655800E+01  0.16210702432E+03  0.16994601670E+03  0.00000000000E+00 0. -1.
          1    1    1    2  502    0  0.20831993622E+02  0.39723844331E+02  0.24599359834E+03  0.25004960746E+03  0.00000000000E+00 0. -1.
         22    1    3    3    0    0  0.71158453542E+02 -0.12530425080E+01  0.39496531491E+03  0.40132617110E+03  0.00000000000E+00 0. -1.
         22    1    3    3    0    0 -0.41248383449E+02 -0.43781567403E+02  0.19015914344E+03  0.19944611958E+03  0.00000000000E+00 0. -1.
</event>
<event>
 7    1  0.6330892E-006  0.6616610E+02  0.7818608E-02  0.1457657E+00
          2   -1    0    0  502    0  0.00000000000E+00  0.00000000000E+00  0.60279429372E+03  0.60279429372E+03  0.00000000000E+00 0. -1.
          1   -1    0    0  501    0 -0.00000000000E+00 -0.00000000000E+00 -0.13005149873E+04  0.13005149873E+04  0.00000000000E+00 0. -1.
         25    2    1    2    0    0  0.50975674016E+02 -0.50352066688E+02  0.31128221864E+03  0.34300851536E+03  0.12499748799E+03 0.  0.
          2    1    1    2  501    0 -0.19017121766E+02  0.63383192035E+02 -0.12827152516E+04  0.12844210745E+04  0.00000000000E+00 0. -1.
          1    1    1    2  502    0 -0.31958552250E+02 -0.13031125346E+02  0.27371233935E+03  0.27587969117E+03  0.00000000000E+00 0. -1.
         22    1    3    3    0    0  0.91240263881E+01 -0.87097887989E+02  0.17219105930E+03  0.19318139365E+03  0.00000000000E+00 0. -1.
         22    1    3    3    0    0  0.41851647628E+02  0.36745821301E+02  0.13909115935E+03  0.14982712171E+03  0.00000000000E+00 0. -1.
</event>
<event>
 7    1  0.6330892E-006  0.5721748E+02  0.7818608E-02  0.1461391E+00
          2   -1    0    0  502    0  0.00000000000E+00  0.00000000000E+00  0.64317119505E+03  0.64317119505E+03  0.00000000000E+00 0. -1.
          1   -1    0    0  501    0 -0.00000000000E+00 -0.00000000000E+00 -0.36100825917E+02  0.36100825917E+02  0.00000000000E+00 0. -1.
         25    2    1    2    0    0 -0.45951700280E+02 -0.70889220415E+02  0.48322323490E+03  0.50623801565E+03  0.12504156672E+03 0.  0.
          2    1    1    2  501    0  0.27679060421E+02  0.27250359389E+02 -0.16891689815E+01  0.38878860123E+02  0.00000000000E+00 0. -1.
          1    1    1    2  502    0  0.18272639859E+02  0.43638861026E+02  0.12553630321E+03  0.13415514520E+03  0.00000000000E+00 0. -1.
         22    1    3    3    0    0 -0.17103572726E+01 -0.22217609098E+02  0.41448419082E+01  0.22665550743E+02  0.00000000000E+00 0.  1.
         22    1    3    3    0    0 -0.44241343007E+02 -0.48671611317E+02  0.47907839300E+03  0.48357246490E+03  0.00000000000E+00 0.  1.
</event>
