<event>
 7    1  0.5889087E-006  0.2761492E+02  0.7818608E-02  0.1665525E+00
          2   -1    0    0  502    0  0.00000000000E+00  0.00000000000E+00  0.32075724300E+03  0.32075724300E+03  0.00000000000E+00 0. -1.
          1   -1    0    0  501    0 -0.00000000000E+00 -0.00000000000E+00 -0.95466617031E+02  0.95466617031E+02  0.00000000000E+00 0. -1.
         25    2    1    2    0    0 -0.11334033155E+02 -0.38533380782E+01  0.54380621356E+02  0.13684099220E+03  0.12499958658E+03 0.  0.
          2    1    1    2  501    0  0.11542397417E+02  0.25923515513E+02 -0.49936545161E+02  0.57436174466E+02  0.00000000000E+00 0. -1.
          1    1    1    2  502    0 -0.20836426182E+00 -0.22070177435E+02  0.22084654977E+03  0.22194669336E+03  0.00000000000E+00 0. -1.
         22    1    3    3    0    0 -0.14094750567E+02  0.53487544062E+02 -0.33643540487E+01  0.55415685880E+02  0.00000000000E+00 0. -1.
         22    1    3    3    0    0  0.27607174120E+01 -0.57340882140E+02  0.57744975404E+02  0.81425306322E+02  0.00000000000E+00 0. -1.
</event>
<event>
 7    1  0.5889087E-006  0.1998179E+03  0.7818608E-02  0.1190052E+00
          2   -1    0    0  502    0  0.00000000000E+00  0.00000000000E+00  0.13355397098E+04  0.13355397098E+04  0.00000000000E+00 0. -1.
          1   -1    0    0  501    0 -0.00000000000E+00 -0.00000000000E+00 -0.30255600943E+03  0.30255600943E+03  0.00000000000E+00 0. -1.
         25    2    1    2    0    0 -0.11831818270E+03 -0.45364846355E+02  0.10422205786E+04  0.10573106621E+04  0.12499976017E+03 0.  0.
          2    1    1    2  501    0  0.10945394142E+03  0.17126381445E+03 -0.24198510519E+03  0.31601938321E+03  0.00000000000E+00 0. -1.
          1    1    1    2  502    0  0.88642412777E+01 -0.12589896809E+03  0.23274822690E+03  0.26476567388E+03  0.00000000000E+00 0. -1.
         22    1    3    3    0    0  0.18700347743E+02 -0.67175365245E+00  0.33671230627E+03  0.33723186601E+03  0.00000000000E+00 0. -1.
         22    1    3    3    0    0 -0.13701853044E+03 -0.44693092703E+02  0.70550827237E+03  0.72007879611E+03  0.00000000000E+00 0. -1.
</event>
<event>
 7    1  0.5889087E-006  0.4204015E+02  0.7818608E-02  0.1513291E+00
          2   -1    0    0  502    0  0.00000000000E+00  0.00000000000E+00  0.22791529157E+03  0.22791529157E+03  0.00000000000E+00 0. -1.
          1   -1    0    0  501    0 -0.00000000000E+00 -0.00000000000E+00 -0.13619334869E+03  0.13619334869E+03  0.00000000000E+00 0. -1.
         25    2    1    2    0    0 -0.30689597306E+01  0.27997949744E+02  0.52703083361E+02  0.13854145015E+03  0.12499125854E+03 0.  0.
          2    1    1    2  501    0  0.36763436994E+02  0.80071083741E+00 -0.85673156409E+02  0.93231331464E+02  0.00000000000E+00 0. -1.
          1    1    1    2  502    0 -0.33694477264E+02 -0.28798660582E+02  0.12469201592E+03  0.13233585865E+03  0.00000000000E+00 0. -1.
         22    1    3    3    0    0  0.24676810078E+02  0.71968045133E+02  0.33241165433E+02  0.83026017339E+02  0.00000000000E+00 0.  1.
         22    1    3    3    0    0 -0.27745769809E+02 -0.43970095389E+02  0.19461917928E+02  0.55515432811E+02  0.00000000000E+00 0.  1.
</event>
<event>
 7    1  0.5889087E-006  0.2161118E+03  0.7818608E-02  0.1286104E+00
          2   -1    0    0  502    0  0.00000000000E+00  0.00000000000E+00  0.60683878367E+03  0.60683878367E+03  0.00000000000E+00 0. -1.
          1   -1    0    0  501    0 -0.00000000000E+00 -0.00000000000E+00 -0.11325046529E+04  0.11325046529E+04  0.00000000000E+00 0. -1.
         25    2    1    2    0    0  0.30690529423E+02 -0.19108262277E+03  0.38658806096E+01  0.23042363811E+03  0.12500252256E+03 0.  0.
          2    1    1    2  501    0  0.39398751490E+02 -0.19128100846E+02 -0.99365147959E+03  0.99461621179E+03  0.00000000000E+00 0. -1.
          1    1    1    2  502    0 -0.70089280913E+02  0.21021072362E+03  0.46411972980E+03  0.51430358662E+03  0.00000000000E+00 0. -1.
         22    1    3    3    0    0 -0.44833525633E+02 -0.10402774378E+03 -0.12709401739E+02  0.11398835637E+03  0.00000000000E+00 0.  1.
         22    1    3    3    0    0  0.75524055055E+02 -0.87054878996E+02  0.16575282349E+02  0.11643528174E+03  0.00000000000E+00 0.  1.
</event>
<event>
 7    1  0.5889087E-006  0.1046485E+03  0.7818608E-02  0.1402711E+00
          2   -1    0    0  502    0  0.00000000000E+00  0.00000000000E+00  0.64645296369E+03  0.64645296369E+03  0.00000000000E+00 0. -1.
          1   -1    0    0  501    0 -0.00000000000E+00 -0.00000000000E+00 -0.20167450534E+03  0.20167450534E+03  0.00000000000E+00 0. -1.
         25    2    1    2    0    0  0.70542341077E+02  0.28724295555E+02  0.89150406509E+02  0.17139002896E+03  0.12500176001E+03 0.  0.
          2    1    1    2  501    0  0.32701226670E+02  0.51084513140E+01 -0.15304916393E+03  0.15658707827E+03  0.00000000000E+00 0. -1.
          1    1    1    2  502    0 -0.10324356775E+03 -0.33832746869E+02  0.50867721577E+03  0.52015036181E+03  0.00000000000E+00 0. -1.
         22    1    3    3    0    0  0.24734465929E+02 -0.12814632173E+01 -0.30804665590E+02  0.39526742528E+02  0.00000000000E+00 0.  1.
         22    1    3    3    0    0  0.45807875148E+02  0.30005758772E+02  0.11995507210E+03  0.13186328643E+03  0.00000000000E+00 0.  1.
</event>
<event>
 7    1  0.5889087E-006  0.9122557E+02  0.7818608E-02  0.1318399E+00
          2   -1    0    0  502    0  0.00000000000E+00  0.00000000000E+00  0.13271481909E+04  0.13271481909E+04  0.00000000000E+00 0. -1.
          1   -1    0    0  501    0 -0.00000000000E+00 -0.00000000000E+00 -0.17710887951E+04  0.17710887951E+04  0.00000000000E+00 0. -1.
         25    2    1    2    0    0  0.67908145516E+02  0.84230838795E+02  0.90810265307E+03  0.92302839753E+03  0.12499857475E+03 0.  0.
          2    1    1    2  501    0  0.23224263462E+02 -0.73538219557E+02 -0.17576558291E+04  0.17593468247E+04  0.00000000000E+00 0. -1.
          1    1    1    2  502    0 -0.91132408978E+02 -0.10692619238E+02  0.40561257184E+03  0.41586176370E+03  0.00000000000E+00 0. -1.
         22    1    3    3    0    0 -0.30172680584E+02  0.14246841819E+02  0.37488493549E+03  0.37636694596E+03  0.00000000000E+00 0.  1.
         22    1    3    3    0    0  0.98080826100E+02  0.69983996976E+02  0.53321771758E+03  0.54666145156E+03  0.00000000000E+00 0.  1.
</event>
<event>
 7    1  0.5889087E-006  0.2006109E+03  0.7818608E-02  0.1287327E+00
          2   -1    0    0  502    0  0.00000000000E+00  0.00000000000E+00  0.10405198725E+04  0.10405198725E+04  0.00000000000E+00 0. -1.
          1   -1    0    0  501    0 -0.00000000000E+00 -0.00000000000E+00 -0.12292818606E+04  0.12292818606E+04  0.00000000000E+00 0. -1.
         25    2    1    2    0    0  0.32298901215E+02  0.21989451880E+03 -0.67364049046E+02  0.26374012387E+03  0.12499647761E+03 0.  0.
          2    1    1    2  501    0  0.92465237407E+01 -0.19869656894E+03 -0.10538429524E+04  0.10724508348E+04  0.00000000000E+00 0. -1.
          1    1    1    2  502    0 -0.41545424956E+02 -0.21197949869E+02  0.93244501328E+03  0.93361077447E+03  0.00000000000E+00 0. -1.
         22    1    3    3    0    0 -0.12548569859E+02  0.19098005754E+03 -0.82288131101E+02  0.20833191187E+03  0.00000000000E+00 0. -1.
         22    1    3    3    0    0  0.44847471073E+02  0.28914461263E+02  0.14924082055E+02  0.55408211999E+02  0.00000000000E+00 0. -1.
</event>
<event>
 7    1  0.5889087E-006  0.8934411E+02  0.7818608E-02  0.1401104E+00
          2   -1    0    0  502    0  0.00000000000E+00  0.00000000000E+00  0.79280250076E+03  0.79280250076E+03  0.00000000000E+00 0. -1.
          1   -1    0    0  501    0 -0.00000000000E+00 -0.00000000000E+00 -0.12195954457E+04  0.12195954457E+04  0.00000000000E+00 0. -1.
         25    2    1    2    0    0  0.61124468495E+02  0.89350710724E+02 -0.24088825721E+02  0.16710616256E+03  0.12499779153E+03 0.  0.
          2    1    1    2  501    0  0.11270120163E+02 -0.37610109844E+02 -0.11209085377E+04  0.11215959548E+04  0.00000000000E+00 0. -1.
          1    1    1    2  502    0 -0.72394588658E+02 -0.51740600880E+02  0.71820441850E+03  0.72369582906E+03  0.00000000000E+00 0. -1.
         22    1    3    3    0    0 -0.24733772443E+02  0.62684730852E+02 -0.36025717365E+02  0.76413266472E+02  0.00000000000E+00 0.  1.
         22    1    3    3    0    0  0.85858240938E+02  0.26665979872E+02  0.11936891643E+02  0.90692896092E+02  0.00000000000E+00 0.  1.
</event>
<event>
 7    1  0.5889087E-006  0.1144045E+03  0.7818608E-02  0.1398941E+00
          2   -1    0    0  502    0  0.00000000000E+00  0.00000000000E+00  0.40294584485E+03  0.40294584485E+03  0.00000000000E+00 0. -1.
          1   -1    0    0  501    0 -0.00000000000E+00 -0.00000000000E+00 -0.70950355874E+03  0.70950355874E+03  0.00000000000E+00 0. -1.
         25    2    1    2    0    0  0.19175828732E+02  0.11115381177E+03 -0.21176289680E+02  0.16969328511E+03  0.12499797393E+03 0.  0.
          2    1    1    2  501    0 -0.49442349243E+02 -0.10361436945E+03 -0.60794385426E+03  0.61868910884E+03  0.00000000000E+00 0. -1.
          1    1    1    2  502    0  0.30266520511E+02 -0.75394423220E+01  0.32256243006E+03  0.32406700964E+03  0.00000000000E+00 0. -1.
         22    1    3    3    0    0  0.27297335887E+02 -0.11994511501E+02  0.23993228399E+02  0.38271240660E+02  0.00000000000E+00 0. -1.
         22    1    3    3    0    0 -0.81215071548E+01  0.12314832327E+03 -0.45169518078E+02  0.13142204445E+03  0.00000000000E+00 0. -1.
</event>
<event>
 7    1  0.5889087E-006  0.7331635E+02  0.7818608E-02  0.1484632E+00
          2   -1    0    0  502    0  0.00000000000E+00  0.00000000000E+00  0.46348802110E+03  0.46348802110E+03  0.00000000000E+00 0. -1.
          1   -1    0    0  501    0 -0.00000000000E+00 -0.00000000000E+00 -0.22474494314E+03  0.22474494314E+03  0.00000000000E+00 0. -1.
         25    2    1    2    0    0  0.50506765292E+02 -0.27165542574E+02  0.42906283374E+02  0.14406659587E+03  0.12500133939E+03 0.  0.
          2    1    1    2  501    0 -0.53196067838E+02  0.52706740297E+02 -0.16563848067E+03  0.18177988994E+03  0.00000000000E+00 0. -1.
          1    1    1    2  502    0  0.26893025460E+01 -0.25541197723E+02  0.36147527526E+03  0.36238647843E+03  0.00000000000E+00 0. -1.
         22    1    3    3    0    0  0.80669040787E+01 -0.30599964373E+01  0.81430777625E+02  0.81886568278E+02  0.00000000000E+00 0. -1.
         22    1    3    3    0    0  0.42439861213E+02 -0.24105546136E+02 -0.38524494252E+02  0.62180027595E+02  0.00000000000E+00 0. -1.
</event>
<event>
 7    1  0.5889087E-006  0.1467014E+03  0.7818608E-02  0.1284134E+00
          2   -1    0    0  502    0  0.00000000000E+00  0.00000000000E+00  0.28154419410E+03  0.28154419410E+03  0.00000000000E+00 0. -1.
          1   -1    0    0  501    0 -0.00000000000E+00 -0.00000000000E+00 -0.10415386778E+04  0.10415386778E+04  0.00000000000E+00 0. -1.
         25    2    1    2    0    0 -0.17599637960E+03 -0.46246481157E+02 -0.32028019326E+03  0.38899543533E+03  0.12499833541E+03 0.  0.
          2    1    1    2  501    0  0.11789404493E+03  0.76978747526E+02 -0.67513618272E+03  0.68966194518E+03  0.00000000000E+00 0. -1.
          1    1    1    2  502    0  0.58102334666E+02 -0.30732266369E+02  0.23542189228E+03  0.24442549142E+03  0.00000000000E+00 0. -1.
         22    1    3    3    0    0 -0.15297061225E+03 -0.15243140528E+01 -0.16155892011E+03  0.22249408175E+03  0.00000000000E+00 0.  1.
         22    1    3    3    0    0 -0.23025767350E+02 -0.44722167105E+02 -0.15872127315E+03  0.16650135358E+03  0.00000000000E+00 0.  1.
</event>
<event>
 7    1  0.5889087E-006  0.7324025E+02  0.7818608E-02  0.1367866E+00
          2   -1    0    0  502    0  0.00000000000E+00  0.00000000000E+00  0.41428109212E+03  0.41428109212E+03  0.00000000000E+00 0. -1.
          1   -1    0    0  501    0 -0.00000000000E+00 -0.00000000000E+00 -0.19653918852E+03  0.19653918852E+03  0.00000000000E+00 0. -1.
         25    2    1    2    0    0  0.85327985780E+02  0.99223012006E+02  0.36402414752E+02  0.18459728800E+03  0.12499980667E+03 0.  0.
          2    1    1    2  501    0 -0.48742362390E+02 -0.39435202100E+02 -0.10997654228E+03  0.12659302078E+03  0.00000000000E+00 0. -1.
          1    1    1    2  502    0 -0.36585623390E+02 -0.59787809906E+02  0.29131603113E+03  0.29962997187E+03  0.00000000000E+00 0. -1.
         22    1    3    3    0    0  0.96595519756E+02  0.11441507002E+03  0.73348900411E+01  0.14991765505E+03  0.00000000000E+00 0. -1.
         22    1    3    3    0    0 -0.11267533976E+02 -0.15192058009E+02  0.29067524711E+02  0.34679632946E+02  0.00000000000E+00 0. -1.
</event>
<event>
 7    1  0.5889087E-006  0.7028358E+02  0.7818608E-02  0.1417723E+00
          2   -1    0    0  502    0  0.00000000000E+00  0.00000000000E+00  0.17387816546E+04  0.17387816546E+04  0.00000000000E+00 0. -1.
          1   -1    0    0  501    0 -0.00000000000E+00 -0.00000000000E+00 -0.81518472505E+03  0.81518472505E+03  0.00000000000E+00 0. -1.
         25    2    1    2    0    0  0.87761055017E+02  0.43247803080E+02  0.19045927177E+03  0.24793666310E+03  0.12500191782E+03 0.  0.
          2    1    1    2  501    0 -0.45180131956E+02 -0.53657128096E+02 -0.78456484953E+03  0.78769431560E+03  0.00000000000E+00 0. -1.
          1    1    1    2  502    0 -0.42580923061E+02  0.10409325016E+02  0.15177025073E+04  0.15183354010E+04  0.00000000000E+00 0. -1.
         22    1    3    3    0    0  0.48280353575E+02  0.70405170689E+01  0.18808950581E+03  0.19431475398E+03  0.00000000000E+00 0. -1.
         22    1    3    3    0    0  0.39480701442E+02  0.36207286011E+02  0.23697659600E+01  0.53621909117E+02  0.00000000000E+00 0. -1.
</event>
<event>
 7    1  0.5889087E-006  0.1510674E+03  0.7818608E-02  0.1367475E+00
          2   -1    0    0  502    0  0.00000000000E+00  0.00000000000E+00  0.24470623170E+04  0.24470623170E+04  0.00000000000E+00 0. -1.
          1   -1    0    0  501    0 -0.00000000000E+00 -0.00000000000E+00 -0.36035950421E+03  0.36035950421E+03  0.00000000000E+00 0. -1.
         25    2    1    2    0    0  0.16250708306E+03 -0.19392218677E+02  0.21493225392E+03  0.29766520465E+03  0.12499636032E+03 0.  0.
          2    1    1    2  501    0 -0.12319826881E+02  0.27896353567E+02 -0.31567510279E+03  0.31714469127E+03  0.00000000000E+00 0. -1.
          1    1    1    2  502    0 -0.15018725618E+03 -0.85041348896E+01  0.21874456617E+04  0.21926119253E+04  0.00000000000E+00 0. -1.
         22    1    3    3    0    0  0.16002009024E+01 -0.69680579736E+01  0.98266777997E+02  0.98526514871E+02  0.00000000000E+00 0.  1.
         22    1    3    3    0    0  0.16090688215E+03 -0.12424160704E+02  0.11666547593E+03  0.19913868978E+03  0.00000000000E+00 0.  1.
</event>
<event>
 7    1  0.5889087E-006  0.8266670E+02  0.7818608E-02  0.1343881E+00
          2   -1    0    0  502    0  0.00000000000E+00  0.00000000000E+00  0.22588242523E+04  0.22588242523E+04  0.00000000000E+00 0. -1.
          1   -1    0    0  501    0 -0.00000000000E+00 -0.00000000000E+00 -0.25654248433E+02  0.25654248433E+02  0.00000000000E+00 0. -1.
         25    2    1    2    0    0 -0.78555512104E+02 -0.48672228930E+02  0.42814922801E+03  0.45549623567E+03  0.12500041963E+03 0.  0.
          2    1    1    2  501    0 -0.30322898352E+01  0.67970980403E+02  0.94698859149E+02  0.11660670171E+03  0.00000000000E+00 0. -1.
          1    1    1    2  502    0  0.81587801939E+02 -0.19298751473E+02  0.17103219167E+04  0.17123755633E+04  0.00000000000E+00 0. -1.
         22    1    3    3    0    0  0.27960578987E+02  0.91774030373E+01  0.13696738127E+03  0.14009311987E+03  0.00000000000E+00 0.  1.
         22    1    3    3    0    0 -0.10651609109E+03 -0.57849631967E+02  0.29118184675E+03  0.31540311580E+03  0.00000000000E+00 0.  1.
</event>
<event>
 7    1  0.5889087E-006  0.3932693E+03  0.7818608E-02  0.1203681E+00
          2   -1    0    0  502    0  0.00000000000E+00  0.00000000000E+00  0.16592184153E+04  0.16592184153E+04  0.00000000000E+00 0. -1.
          1   -1    0    0  501    0 -0.00000000000E+00 -0.00000000000E+00 -0.25321370725E+04  0.25321370725E+04  0.00000000000E+00 0. -1.
         25    2    1    2    0    0 -0.12646828488E+03  0.38285804202E+03 -0.37477593820E+03  0.56449642067E+03  0.12499879072E+03 0.  0.
          2    1    1    2  501    0  0.55146760808E+02  0.35492164416E+01 -0.20374461176E+04  0.20381953891E+04  0.00000000000E+00 0. -1.
          1    1    1    2  502    0  0.71321524070E+02 -0.38640725846E+03  0.15393033986E+04  0.15886636781E+04  0.00000000000E+00 0. -1.
         22    1    3    3    0    0 -0.11296404614E+03  0.14659222249E+03 -0.17696189056E+03  0.25605793510E+03  0.00000000000E+00 0.  1.
         22    1    3    3    0    0 -0.13504238737E+02  0.23626581953E+03 -0.19781404764E+03  0.30843848557E+03  0.00000000000E+00 0.  1.
</event>
<event>
 7    1  0.5889087E-006  0.6556500E+02  0.7818608E-02  0.1432037E+00
          2   -1    0    0  502    0  0.00000000000E+00  0.00000000000E+00  0.53722906464E+03  0.53722906464E+03  0.00000000000E+00 0. -1.
          1   -1    0    0  501    0 -0.00000000000E+00 -0.00000000000E+00 -0.20547215757E+03  0.20547215757E+03  0.00000000000E+00 0. -1.
         25    2    1    2    0    0  0.17156511075E+02  0.26124776030E+02  0.95565495326E+02  0.16042041741E+03  0.12500038652E+03 0.  0.
          2    1    1    2  501    0  0.40514426509E+02  0.11532174379E+02 -0.16752057859E+03  0.17273550316E+03  0.00000000000E+00 0. -1.
          1    1    1    2  502    0 -0.57670937584E+02 -0.37656950409E+02  0.40371199033E+03  0.40954530163E+03  0.00000000000E+00 0. -1.
         22    1    3    3    0    0  0.49989117210E+02 -0.79782635168E+01  0.10079555437E+03  0.11279321038E+03  0.00000000000E+00 0. -1.
         22    1    3    3    0    0 -0.32832606135E+02  0.34103039547E+02 -0.52300590390E+01  0.47627207031E+02  0.00000000000E+00 0. -1.
</event>
<event>
 7    1  0.5889087E-006  0.3655633E+02  0.7818608E-02  0.1564439E+00
          2   -1    0    0  502    0  0.00000000000E+00  0.00000000000E+00  0.26157142438E+04  0.26157142438E+04  0.00000000000E+00 0. -1.
          1   -1    0    0  501    0 -0.00000000000E+00 -0.00000000000E+00 -0.98920709475E+02  0.98920709475E+02  0.00000000000E+00 0. -1.
         25    2    1    2    0    0 -0.26559664996E+02  0.13646319237E+02  0.17596567781E+03  0.21789750624E+03  0.12499506241E+03 0.  0.
          2    1    1    2  501    0 -0.64702691284E+01 -0.29596118314E+02 -0.74866949499E+02  0.80764192122E+02  0.00000000000E+00 0. -1.
          1    1    1    2  502    0  0.33029934124E+02  0.15949799078E+02  0.24156948060E+04  0.24159732549E+04  0.00000000000E+00 0. -1.
         22    1    3    3    0    0  0.47592898240E+02  0.32597298745E+01  0.10221612045E+03  0.11280002252E+03  0.00000000000E+00 0. -1.
         22    1    3    3    0    0 -0.74152563236E+02  0.10386589362E+02  0.73749557359E+02  0.10509748372E+03  0.00000000000E+00 0. -1.
</event>
<event>
 7    1  0.5889087E-006  0.1552787E+03  0.7818608E-02  0.1406862E+00
          2   -1    0    0  502    0  0.00000000000E+00  0.00000000000E+00  0.54152949921E+02  0.54152949921E+02  0.00000000000E+00 0. -1.
          1   -1    0    0  501    0 -0.00000000000E+00 -0.00000000000E+00 -0.14804608481E+04  0.14804608481E+04  0.00000000000E+00 0. -1.
         25    2    1    2    0    0 -0.12686731032E+03 -0.62045379207E+02 -0.41947325795E+03  0.45992071549E+03  0.12499722751E+03 0.  0.
          2    1    1    2  501    0 -0.21523281642E+02 -0.16913327982E+01 -0.84766424260E+03  0.84793913723E+03  0.00000000000E+00 0. -1.
          1    1    1    2  502    0  0.14839059196E+03  0.63736712005E+02 -0.15917039768E+03  0.22675394536E+03  0.00000000000E+00 0. -1.
         22    1    3    3    0    0 -0.81031740919E+02 -0.59794712914E+02 -0.39555050168E+03  0.40816877650E+03  0.00000000000E+00 0. -1.
         22    1    3    3    0    0 -0.45835569402E+02 -0.22506662924E+01 -0.23922756275E+02  0.51751938987E+02  0.00000000000E+00 0. -1.
</event>
<event>
 7    1  0.5889087E-006  0.8765673E+02  0.7818608E-02  0.1426940E+00
          2   -1    0    0  502    0  0.00000000000E+00  0.00000000000E+00  0.40279421548E+03  0.40279421548E+03  0.00000000000E+00 0. -1.
          1   -1    0    0  501    0 -0.00000000000E+00 -0.00000000000E+00 -0.16957018046E+03  0.16957018046E+03  0.00000000000E+00 0. -1.
         25    2    1    2    0    0 -0.10075735835E+03  0.58871437326E+02  0.27850775472E+03  0.32681849084E+03  0.12500346043E+03 0.  0.
          2    1    1    2  501    0  0.68622723229E+02 -0.52553862768E+02 -0.12921072717E+03  0.15545545552E+03  0.00000000000E+00 0. -1.
          1    1    1    2  502    0  0.32134635126E+02 -0.63175745587E+01  0.83927007473E+02  0.90090449584E+02  0.00000000000E+00 0. -1.
         22    1    3    3    0    0 -0.33692550788E+02  0.44686643783E+02  0.20086942597E+02  0.59460654000E+02  0.00000000000E+00 0. -1.
         22    1    3    3    0    0 -0.67064807566E+02  0.14184793543E+02  0.25842081212E+03  0.26735783684E+03  0.00000000000E+00 0. -1.
</event>
<event>
 7    1  0.5889087E-006  0.8859803E+02  0.7818608E-02  0.1465308E+00
          2   -1    0    0  502    0  0.00000000000E+00  0.00000000000E+00  0.13792243125E+04  0.13792243125E+04  0.00000000000E+00 0. -1.
          1   -1    0    0  501    0 -0.00000000000E+00 -0.00000000000E+00 -0.16017983380E+04  0.16017983380E+04  0.00000000000E+00 0. -1.
         25    2    1    2    0    0 -0.68628216841E+02 -0.79920581212E+00 -0.12457270358E+03  0.18934787006E+03  0.12499514608E+03 0.  0.
          2    1    1    2  501    0  0.88487948551E+02 -0.13349422248E+02 -0.14433417846E+04  0.14461133536E+04  0.00000000000E+00 0. -1.
          1    1    1    2  502    0 -0.19859731710E+02  0.14148628060E+02  0.13453404628E+04  0.13455614268E+04  0.00000000000E+00 0. -1.
         22    1    3    3    0    0 -0.53670689530E+02 -0.38991869157E+02 -0.92912391367E+01  0.66986833779E+02  0.00000000000E+00 0. -1.
         22    1    3    3    0    0 -0.14957527311E+02  0.38192663345E+02 -0.11528146444E+03  0.12236103628E+03  0.00000000000E+00 0. -1.
</event>
<event>
 7    1  0.5889087E-006  0.8776530E+02  0.7818608E-02  0.1325364E+00
          2   -1    0    0  502    0  0.00000000000E+00  0.00000000000E+00  0.63462711489E+03  0.63462711489E+03  0.00000000000E+00 0. -1.
          1   -1    0    0  501    0 -0.00000000000E+00 -0.00000000000E+00 -0.31864942854E+03  0.31864942854E+03  0.00000000000E+00 0. -1.
         25    2    1    2    0    0  0.37789108070E+02 -0.64729996359E+02  0.33018547257E+02  0.14944940462E+03  0.12500764361E+03 0.  0.
          2    1    1    2  501    0  0.52104282654E+02  0.54412760019E+02 -0.25109953910E+03  0.26215755427E+03  0.00000000000E+00 0. -1.
          1    1    1    2  502    0 -0.89893390724E+02  0.10317236340E+02  0.53405867820E+03  0.54166958455E+03  0.00000000000E+00 0. -1.
         22    1    3    3    0    0 -0.32535571920E+02 -0.63485284187E+02 -0.94446442698E+00  0.71343091898E+02  0.00000000000E+00 0. -1.
         22    1    3    3    0    0  0.70324679990E+02 -0.12447121713E+01  0.33963011684E+02  0.78106312720E+02  0.00000000000E+00 0. -1.
</event>
<event>
 7    1  0.5889087E-006  0.5364399E+02  0.7818608E-02  0.1515274E+00
          2   -1    0    0  502    0  0.00000000000E+00  0.00000000000E+00  0.10139456453E+04  0.10139456453E+04  0.00000000000E+00 0. -1.
          1   -1    0    0  501    0 -0.00000000000E+00 -0.00000000000E+00 -0.10325071563E+04  0.10325071563E+04  0.00000000000E+00 0. -1.
         25    2    1    2    0    0  0.56100480613E+02 -0.39869043943E+02 -0.76416892089E+02  0.16186980904E+03  0.12500195635E+03 0.  0.
          2    1    1    2  501    0 -0.28210693188E+02  0.45412858002E+02 -0.91237300576E+03  0.91393800256E+03  0.00000000000E+00 0. -1.
          1    1    1    2  502    0 -0.27889787426E+02 -0.55438140593E+01  0.97022838683E+03  0.97064499006E+03  0.00000000000E+00 0. -1.
         22    1    3    3    0    0  0.12675892176E+02 -0.81162056553E+02 -0.36645060867E+02  0.89948975271E+02  0.00000000000E+00 0. -1.
         22    1    3    3    0    0  0.43424588437E+02  0.41293012611E+02 -0.39771831222E+02  0.71920833770E+02  0.00000000000E+00 0. -1.
</event>
<event>
 7    1  0.5889087E-006  0.5895735E+02  0.7818608E-02  0.1540580E+00
          2   -1    0    0  502    0  0.00000000000E+00  0.00000000000E+00  0.12897090301E+04  0.12897090301E+04  0.00000000000E+00 0. -1.
          1   -1    0    0  501    0 -0.00000000000E+00 -0.00000000000E+00 -0.30672847551E+03  0.30672847551E+03  0.00000000000E+00 0. -1.
         25    2    1    2    0    0  0.34357252236E+02 -0.18274985174E+02  0.30595022187E+03  0.33278092067E+03  0.12499282792E+03 0.  0.
          2    1    1    2  501    0  0.21249993575E+02 -0.52304268598E+01 -0.29196420437E+03  0.29278322395E+03  0.00000000000E+00 0. -1.
          1    1    1    2  502    0 -0.55607245811E+02  0.23505412034E+02  0.96899453712E+03  0.97087336103E+03  0.00000000000E+00 0. -1.
         22    1    3    3    0    0  0.26973050970E+02  0.23658918362E+02  0.15260589057E+02  0.38989427735E+02  0.00000000000E+00 0.  1.
         22    1    3    3    0    0  0.73842012653E+01 -0.41933903536E+02  0.29068963281E+03  0.29379149293E+03  0.00000000000E+00 0.  1.
</event>
<event>
 7    1  0.5889087E-006  0.4525288E+02  0.7818608E-02  0.1552050E+00
          2   -1    0    0  502    0  0.00000000000E+00  0.00000000000E+00  0.14487616005E+04  0.14487616005E+04  0.00000000000E+00 0. -1.
          1   -1    0    0  501    0 -0.00000000000E+00 -0.00000000000E+00 -0.17657244671E+02  0.17657244671E+02  0.00000000000E+00 0. -1.
         25    2    1    2    0    0  0.20729400246E+02 -0.75131721822E+01  0.76298376099E+03  0.77347177225E+03  0.12501282790E+03 0.  0.
          2    1    1    2  501    0 -0.46623301282E+02  0.19861699688E+01  0.32716660256E+02  0.56991727048E+02  0.00000000000E+00 0. -1.
          1    1    1    2  502    0  0.25893901036E+02  0.55270022134E+01  0.63540393459E+03  0.63595534589E+03  0.00000000000E+00 0. -1.
         22    1    3    3    0    0  0.65480647974E+01  0.27010293195E+02  0.35757086255E+02  0.45287992984E+02  0.00000000000E+00 0.  1.
         22    1    3    3    0    0  0.14181335448E+02 -0.34523465378E+02  0.72722667474E+03  0.72818377927E+03  0.00000000000E+00 0.  1.
</event>
<event>
 7    1  0.5889087E-006  0.9942655E+02  0.7818608E-02  0.1407721E+00
          2   -1    0    0  502    0  0.00000000000E+00  0.00000000000E+00  0.55768678051E+03  0.55768678051E+03  0.00000000000E+00 0. -1.
          1   -1    0    0  501    0 -0.00000000000E+00 -0.00000000000E+00 -0.11927527567E+04  0.11927527567E+04  0.00000000000E+00 0. -1.
         25    2    1    2    0    0 -0.12372453487E+02 -0.90557369503E+02 -0.63553306036E+02  0.16738452424E+03  0.12499936588E+03 0.  0.
          2    1    1    2  501    0 -0.33448605719E+02  0.16882574354E+01 -0.10720781806E+04  0.10726011769E+04  0.00000000000E+00 0. -1.
          1    1    1    2  502    0  0.45821059206E+02  0.88869112068E+02  0.50056551042E+03  0.51045383608E+03  0.00000000000E+00 0. -1.
         22    1    3    3    0    0  0.31151065817E+02  0.17349133584E+02 -0.19025199745E+01  0.35707155023E+02  0.00000000000E+00 0. -1.
         22    1    3    3    0    0 -0.43523519304E+02 -0.10790650309E+03 -0.61650786061E+02  0.13167736921E+03  0.00000000000E+00 0. -1.
</event>
<event>
 7    1  0.5889087E-006  0.9315106E+02  0.7818608E-02  0.1348031E+00
          2   -1    0    0  502    0  0.00000000000E+00  0.00000000000E+00  0.77206345681E+03  0.77206345681E+03  0.00000000000E+00 0. -1.
          1   -1    0    0  501    0 -0.00000000000E+00 -0.00000000000E+00 -0.47310374127E+03  0.47310374127E+03  0.00000000000E+00 0. -1.
         25    2    1    2    0    0 -0.12111637062E+03  0.18866505399E+02  0.40128329175E+03  0.43780967625E+03  0.12499564843E+03 0.  0.
          2    1    1    2  501    0  0.37875747337E+02 -0.44277870948E+02 -0.44755119972E+03  0.45132823805E+03  0.00000000000E+00 0. -1.
          1    1    1    2  502    0  0.83240623279E+02  0.25411365548E+02  0.34522762352E+03  0.35602928377E+03  0.00000000000E+00 0. -1.
         22    1    3    3    0    0 -0.12601625953E+03  0.53130803682E+02  0.35157875503E+03  0.37724077319E+03  0.00000000000E+00 0.  1.
         22    1    3    3    0    0  0.48998889160E+01 -0.34264298283E+02  0.49704536719E+02  0.60568903066E+02  0.00000000000E+00 0.  1.
</event>
<event>
 7    1  0.5889087E-006  0.9820821E+02  0.7818608E-02  0.1347897E+00
          2   -1    0    0  502    0  0.00000000000E+00  0.00000000000E+00  0.43644502830E+03  0.43644502830E+03  0.00000000000E+00 0. -1.
          1   -1    0    0  501    0 -0.00000000000E+00 -0.00000000000E+00 -0.18129457195E+04  0.18129457195E+04  0.00000000000E+00 0. -1.
         25    2    1    2    0    0  0.11365055331E+03  0.66027007779E+02  0.18902459129E+03  0.26198280093E+03  0.12501471051E+03 0.  0.
          2    1    1    2  501    0 -0.55221193705E+02  0.34744778831E+01 -0.17662422655E+04  0.17671087099E+04  0.00000000000E+00 0. -1.
          1    1    1    2  502    0 -0.58429359600E+02 -0.69501485662E+02  0.20071698296E+03  0.22029923700E+03  0.00000000000E+00 0. -1.
         22    1    3    3    0    0  0.29986057848E+02  0.14725735030E+02  0.15430804368E+03  0.15788281503E+03  0.00000000000E+00 0.  1.
         22    1    3    3    0    0  0.83664495457E+02  0.51301272749E+02  0.34716547617E+02  0.10409998590E+03  0.00000000000E+00 0.  1.
</event>
<event>
 7    1  0.5889087E-006  0.3524868E+03  0.7818608E-02  0.1213558E+00
          2   -1    0    0  502    0  0.00000000000E+00  0.00000000000E+00  0.67971739886E+03  0.67971739886E+03  0.00000000000E+00 0. -1.
          1   -1    0    0  501    0 -0.00000000000E+00 -0.00000000000E+00 -0.75639923777E+03  0.75639923777E+03  0.00000000000E+00 0. -1.
         25    2    1    2    0    0  0.35647062675E+03  0.54407430915E+02 -0.30886187937E+02  0.38289769783E+03  0.12500085649E+03 0.  0.
          2    1    1    2  501    0 -0.33470757685E+03 -0.10542957710E+03 -0.49158761672E+03  0.60398919083E+03  0.00000000000E+00 0. -1.
          1    1    1    2  502    0 -0.21763049899E+02  0.51022146189E+02  0.44579196574E+03  0.44922974797E+03  0.00000000000E+00 0. -1.
         22    1    3    3    0    0  0.12437470891E+03 -0.19976033782E+02  0.34399523830E+02  0.13058115248E+03  0.00000000000E+00 0. -1.
         22    1    3    3    0    0  0.23209591783E+03  0.74383464697E+02 -0.65285711768E+02  0.25231654535E+03  0.00000000000E+00 0. -1.
</event>
<event>
 7    1  0.5889087E-006  0.4523356E+03  0.7818608E-02  0.1135397E+00
          2   -1    0    0  502    0  0.00000000000E+00  0.00000000000E+00  0.15598212324E+04  0.15598212324E+04  0.00000000000E+00 0. -1.
          1   -1    0    0  501    0 -0.00000000000E+00 -0.00000000000E+00 -0.23753754322E+04  0.23753754322E+04  0.00000000000E+00 0. -1.
         25    2    1    2    0    0 -0.11192467291E+03  0.39390364377E+03  0.38398551511E+03  0.57511494541E+03  0.12500044655E+03 0.  0.
          2    1    1    2  501    0  0.25822943960E+02 -0.45407920227E+03 -0.22544929074E+04  0.22999115235E+04  0.00000000000E+00 0. -1.
          1    1    1    2  502    0  0.86101728952E+02  0.60175558504E+02  0.10549531925E+04  0.10601701957E+04  0.00000000000E+00 0. -1.
         22    1    3    3    0    0 -0.69209894276E+02  0.66593634800E+02  0.64181284897E+02  0.11551605513E+03  0.00000000000E+00 0.  1.
         22    1    3    3    0    0 -0.42714778636E+02  0.32731000897E+03  0.31980423021E+03  0.45959889028E+03  0.00000000000E+00 0.  1.
</event>
<event>
 7    1  0.5889087E-006  0.1223931E+03  0.7818608E-02  0.1377021E+00
          2   -1    0    0  502    0  0.00000000000E+00  0.00000000000E+00  0.21560282513E+04  0.21560282513E+04  0.00000000000E+00 0. -1.
          1   -1    0    0  501    0 -0.00000000000E+00 -0.00000000000E+00 -0.90309105196E+03  0.90309105196E+03  0.00000000000E+00 0. -1.
         25    2    1    2    0    0  0.48609504154E+02 -0.78244950029E+02  0.12375297697E+03  0.19855680399E+03  0.12499939602E+03 0.  0.
          2    1    1    2  501    0 -0.79567331234E+02  0.94116992876E+02 -0.86114997567E+03  0.86992427782E+03  0.00000000000E+00 0. -1.
          1    1    1    2  502    0  0.30957827079E+02 -0.15872042847E+02  0.19903341980E+04  0.19906382215E+04  0.00000000000E+00 0. -1.
         22    1    3    3    0    0  0.90801164823E+02 -0.52122047395E+02  0.93954282742E+02  0.14067326186E+03  0.00000000000E+00 0.  1.
         22    1    3    3    0    0 -0.42191660668E+02 -0.26122902634E+02  0.29798694226E+02  0.57883542130E+02  0.00000000000E+00 0.  1.
</event>
<event>
 7    1  0.5889087E-006  0.1110342E+03  0.7818608E-02  0.1307171E+00
          2   -1    0    0  502    0  0.00000000000E+00  0.00000000000E+00  0.82621072277E+03  0.82621072277E+03  0.00000000000E+00 0. -1.
          1   -1    0    0  501    0 -0.00000000000E+00 -0.00000000000E+00 -0.59452722657E+03  0.59452722657E+03  0.00000000000E+00 0. -1.
         25    2    1    2    0    0 -0.10935989353E+02  0.77146977648E+02  0.18579013860E+03  0.23709603972E+03  0.12500121769E+03 0.  0.
          2    1    1    2  501    0  0.61871369580E+02  0.33006695176E+02 -0.56067941935E+03  0.56504771443E+03  0.00000000000E+00 0. -1.
          1    1    1    2  502    0 -0.50935380227E+02 -0.11015367282E+03  0.60657277694E+03  0.61859419519E+03  0.00000000000E+00 0. -1.
         22    1    3    3    0    0 -0.38041442195E+02 -0.15645143332E+02  0.98910376383E+02  0.10712228709E+03  0.00000000000E+00 0. -1.
         22    1    3    3    0    0  0.27105452841E+02  0.92792120980E+02  0.86879762219E+02  0.12997375263E+03  0.00000000000E+00 0. -1.
</event>
<event>
 7    1  0.5889087E-006  0.7099978E+02  0.7818608E-02  0.1472144E+00
          2   -1    0    0  502    0  0.00000000000E+00  0.00000000000E+00  0.12438040444E+04  0.12438040444E+04  0.00000000000E+00 0. -1.
          1   -1    0    0  501    0 -0.00000000000E+00 -0.00000000000E+00 -0.16401743947E+03  0.16401743947E+03  0.00000000000E+00 0. -1.
         25    2    1    2    0    0 -0.19200659037E+02 -0.76935029049E+02  0.18725606968E+03  0.23869822363E+03  0.12499736929E+03 0.  0.
          2    1    1    2  501    0 -0.89993065328E+01  0.70293132797E+02 -0.12899895371E+03  0.14718302244E+03  0.00000000000E+00 0. -1.
          1    1    1    2  502    0  0.28199965570E+02  0.66418962520E+01  0.10215294890E+04  0.10219402378E+04  0.00000000000E+00 0. -1.
         22    1    3    3    0    0 -0.41166421918E+02 -0.98762634642E+02  0.17555899867E+03  0.20559594916E+03  0.00000000000E+00 0. -1.
         22    1    3    3    0    0  0.21965762881E+02  0.21827605593E+02  0.11697071007E+02  0.33102274469E+02  0.00000000000E+00 0. -1.
</event>
<event>
 7    1  0.5889087E-006  0.6414079E+02  0.7818608E-02  0.1404938E+00
          2   -1    0    0  502    0  0.00000000000E+00  0.00000000000E+00  0.99604040839E+02  0.99604040839E+02  0.00000000000E+00 0. -1.
          1   -1    0    0  501    0 -0.00000000000E+00 -0.00000000000E+00 -0.13695166296E+04  0.13695166296E+04  0.00000000000E+00 0. -1.
         25    2    1    2    0    0 -0.97026604838E+02 -0.39877349827E+02 -0.19667410100E+03  0.25555833771E+03  0.12499998757E+03 0.  0.
          2    1    1    2  501    0  0.52924283199E+02 -0.38187939995E+01 -0.11289203418E+04  0.11301666696E+04  0.00000000000E+00 0. -1.
          1    1    1    2  502    0  0.44102321639E+02  0.43696143827E+02  0.55681854043E+02  0.83395663130E+02  0.00000000000E+00 0. -1.
         22    1    3    3    0    0 -0.12152571392E+02 -0.37688764006E+02  0.18483596110E+01  0.39642708749E+02  0.00000000000E+00 0. -1.
         22    1    3    3    0    0 -0.84874033445E+02 -0.21885858216E+01 -0.19852246061E+03  0.21591562896E+03  0.00000000000E+00 0. -1.
</event>
<event>
 7    1  0.5889087E-006  0.9595247E+02  0.7818608E-02  0.1381142E+00
          2   -1    0    0  502    0  0.00000000000E+00  0.00000000000E+00  0.19189511171E+03  0.19189511171E+03  0.00000000000E+00 0. -1.
          1   -1    0    0  501    0 -0.00000000000E+00 -0.00000000000E+00 -0.33165916734E+03  0.33165916734E+03  0.00000000000E+00 0. -1.
         25    2    1    2    0    0 -0.79042209849E+02  0.10978328948E+03 -0.14913078934E+03  0.23699176367E+03  0.12500024853E+03 0.  0.
          2    1    1    2  501    0  0.20238254381E+02 -0.37835009099E+02 -0.11990975851E+03  0.12735550652E+03  0.00000000000E+00 0. -1.
          1    1    1    2  502    0  0.58803955469E+02 -0.71948280385E+02  0.12927649222E+03  0.15920700886E+03  0.00000000000E+00 0. -1.
         22    1    3    3    0    0 -0.14117010867E+02  0.76288226821E+02 -0.14422850767E+03  0.16377132219E+03  0.00000000000E+00 0.  1.
         22    1    3    3    0    0 -0.64925198982E+02  0.33495062664E+02 -0.49022816688E+01  0.73220441485E+02  0.00000000000E+00 0.  1.
</event>
<event>
 7    1  0.5889337E-006  0.7341480E+02  0.7818608E-02  0.1380196E+00
          2   -1    0    0  502    0  0.00000000000E+00  0.00000000000E+00  0.21504601309E+04  0.21504601309E+04  0.00000000000E+00 0. -1.
          1   -1    0    0  501    0 -0.00000000000E+00 -0.00000000000E+00 -0.12684487755E+04  0.12684487755E+04  0.00000000000E+00 0. -1.
         25    2    1    2    0    0  0.19950181267E+02  0.10946813781E+03 -0.18841676256E+02  0.16840664588E+03  0.12499802672E+03 0.  0.
          2    1    1    2  501    0 -0.43953115073E+02 -0.58305219568E+02 -0.11733048600E+04  0.11755746124E+04  0.00000000000E+00 0. -1.
          1    1    1    2  502    0  0.24002933806E+02 -0.51162918244E+02  0.20741578916E+04  0.20749276480E+04  0.00000000000E+00 0. -1.
         22    1    3    3    0    0 -0.27264905501E+01  0.39534477251E+02 -0.68886435437E+02  0.79471690743E+02  0.00000000000E+00 0. -1.
         22    1    3    3    0    0  0.22676671818E+02  0.69933660560E+02  0.50044759181E+02  0.88934955139E+02  0.00000000000E+00 0. -1.
</event>
<event>
 7    1  0.5889087E-006  0.1259218E+03  0.7818608E-02  0.1390043E+00
          2   -1    0    0  502    0  0.00000000000E+00  0.00000000000E+00  0.53338285068E+03  0.53338285068E+03  0.00000000000E+00 0. -1.
          1   -1    0    0  501    0 -0.00000000000E+00 -0.00000000000E+00 -0.14634708223E+04  0.14634708223E+04  0.00000000000E+00 0. -1.
         25    2    1    2    0    0  0.12034511263E+03  0.37074465249E+02 -0.14727180520E+03  0.23059589814E+03  0.12501208550E+03 0.  0.
          2    1    1    2  501    0 -0.12597336811E+03 -0.71750574184E+01 -0.12709393282E+04  0.12771873578E+04  0.00000000000E+00 0. -1.
          1    1    1    2  502    0  0.56282554774E+01 -0.29899407831E+02  0.48812316175E+03  0.48907041710E+03  0.00000000000E+00 0. -1.
         22    1    3    3    0    0 -0.20082803550E+02 -0.91784598911E+01 -0.47067453203E+02  0.51989501588E+02  0.00000000000E+00 0. -1.
         22    1    3    3    0    0  0.14042791619E+03  0.46252925140E+02 -0.10020435200E+03  0.17860639655E+03  0.00000000000E+00 0. -1.
</event>
<event>
 7    1  0.5889087E-006  0.1534298E+03  0.7818608E-02  0.1318097E+00
          2   -1    0    0  502    0  0.00000000000E+00  0.00000000000E+00  0.18739102858E+04  0.18739102858E+04  0.00000000000E+00 0. -1.
          1   -1    0    0  501    0 -0.00000000000E+00 -0.00000000000E+00 -0.69367855091E+03  0.69367855091E+03  0.00000000000E+00 0. -1.
         25    2    1    2    0    0  0.19822763959E+02 -0.18597039269E+03  0.70632662666E+02  0.23578011659E+03  0.12500144567E+03 0.  0.
          2    1    1    2  501    0 -0.41876992072E+02  0.14562829914E+03 -0.60139791560E+03  0.62019411225E+03  0.00000000000E+00 0. -1.
          1    1    1    2  502    0  0.22054228113E+02  0.40342093551E+02  0.17109969878E+04  0.17116146079E+04  0.00000000000E+00 0. -1.
         22    1    3    3    0    0  0.55624680078E+02 -0.18029551931E+03  0.58040615983E+02  0.19740641433E+03  0.00000000000E+00 0. -1.
         22    1    3    3    0    0 -0.35801916119E+02 -0.56748733815E+01  0.12592046683E+02  0.38373702262E+02  0.00000000000E+00 0. -1.
</event>
<event>
 7    1  0.5889087E-006  0.1527295E+03  0.7818608E-02  0.1227799E+00
          2   -1    0    0  502    0  0.00000000000E+00  0.00000000000E+00  0.41072241529E+03  0.41072241529E+03  0.00000000000E+00 0. -1.
          1   -1    0    0  501    0 -0.00000000000E+00 -0.00000000000E+00 -0.44973254062E+03  0.44973254062E+03  0.00000000000E+00 0. -1.
         25    2    1    2    0    0  0.78280302700E+02 -0.45186478587E+02 -0.31752609395E+02  0.15748884615E+03  0.12499953928E+03 0.  0.
          2    1    1    2  501    0  0.91170543045E+02  0.62009739155E+02 -0.32460427675E+03  0.34281950375E+03  0.00000000000E+00 0. -1.
          1    1    1    2  502    0 -0.16945084575E+03 -0.16823260568E+02  0.31734676081E+03  0.36014660601E+03  0.00000000000E+00 0. -1.
         22    1    3    3    0    0 -0.16755971680E+02  0.11350915488E+02  0.25828563253E+02  0.32813420259E+02  0.00000000000E+00 0.  1.
         22    1    3    3    0    0  0.95036274380E+02 -0.56537394075E+02 -0.57581172648E+02  0.12467542589E+03  0.00000000000E+00 0.  1.
</event>
<event>
 7    1  0.5889087E-006  0.8006425E+02  0.7818608E-02  0.1376818E+00
          2   -1    0    0  502    0  0.00000000000E+00  0.00000000000E+00  0.45545290754E+03  0.45545290754E+03  0.00000000000E+00 0. -1.
          1   -1    0    0  501    0 -0.00000000000E+00 -0.00000000000E+00 -0.70629291769E+03  0.70629291769E+03  0.00000000000E+00 0. -1.
         25    2    1    2    0    0 -0.79215258740E+02  0.23619401929E+02  0.98642771880E+02  0.17941181939E+03  0.12500108451E+03 0.  0.
          2    1    1    2  501    0  0.74723859212E+02  0.29461776070E+02 -0.66121860700E+03  0.66607934785E+03  0.00000000000E+00 0. -1.
          1    1    1    2  502    0  0.44913995277E+01 -0.53081177999E+02  0.31173582497E+03  0.31625465799E+03  0.00000000000E+00 0. -1.
         22    1    3    3    0    0 -0.72515075048E+02  0.70721212545E+02  0.76509103423E+02  0.12693923318E+03  0.00000000000E+00 0. -1.
         22    1    3    3    0    0 -0.67001836918E+01 -0.47101810616E+02  0.22133668457E+02  0.52472586216E+02  0.00000000000E+00 0. -1.
</event>
<event>
 7    1  0.5889087E-006  0.3509921E+03  0.7818608E-02  0.1237928E+00
          2   -1    0    0  502    0  0.00000000000E+00  0.00000000000E+00  0.35686200692E+04  0.35686200692E+04  0.00000000000E+00 0. -1.
          1   -1    0    0  501    0 -0.00000000000E+00 -0.00000000000E+00 -0.72445672195E+03  0.72445672195E+03  0.00000000000E+00 0. -1.
         25    2    1    2    0    0  0.28051753684E+03  0.27450081136E+03  0.20506135180E+04  0.20915740500E+04  0.12500168901E+03 0.  0.
          2    1    1    2  501    0 -0.24445106596E+03 -0.25065704952E+03 -0.66010199545E+03  0.74720808649E+03  0.00000000000E+00 0. -1.
          1    1    1    2  502    0 -0.36066470880E+02 -0.23843761840E+02  0.14536518246E+04  0.14542946546E+04  0.00000000000E+00 0. -1.
         22    1    3    3    0    0  0.29224547402E+03  0.25180243773E+03  0.19478971122E+04  0.19857278375E+04  0.00000000000E+00 0. -1.
         22    1    3    3    0    0 -0.11727937183E+02  0.22698373635E+02  0.10271640585E+03  0.10584621253E+03  0.00000000000E+00 0. -1.
</event>
<event>
 7    1  0.5889087E-006  0.1748465E+03  0.7818608E-02  0.1286601E+00
          2   -1    0    0  502    0  0.00000000000E+00  0.00000000000E+00  0.13368758048E+04  0.13368758048E+04  0.00000000000E+00 0. -1.
          1   -1    0    0  501    0 -0.00000000000E+00 -0.00000000000E+00 -0.16089385565E+04  0.16089385565E+04  0.00000000000E+00 0. -1.
         25    2    1    2    0    0 -0.61608424219E+00  0.21952437036E+03  0.68999899525E+02  0.26187267546E+03  0.12499993311E+03 0.  0.
          2    1    1    2  501    0  0.25424531715E+02 -0.17169508263E+03 -0.15068984830E+04  0.15168614460E+04  0.00000000000E+00 0. -1.
          1    1    1    2  502    0 -0.24808447473E+02 -0.47829287731E+02  0.11658358317E+04  0.11670802399E+04  0.00000000000E+00 0. -1.
         22    1    3    3    0    0  0.51952673357E+02  0.17336981291E+03  0.36032930697E+02  0.18453873412E+03  0.00000000000E+00 0. -1.
         22    1    3    3    0    0 -0.52568757600E+02  0.46154557452E+02  0.32966968828E+02  0.77333941338E+02  0.00000000000E+00 0. -1.
</event>
<event>
 7    1  0.5889087E-006  0.1283489E+03  0.7818608E-02  0.1391020E+00
          2   -1    0    0  502    0  0.00000000000E+00  0.00000000000E+00  0.13730848530E+04  0.13730848530E+04  0.00000000000E+00 0. -1.
          1   -1    0    0  501    0 -0.00000000000E+00 -0.00000000000E+00 -0.80998289808E+03  0.80998289808E+03  0.00000000000E+00 0. -1.
         25    2    1    2    0    0 -0.13682026307E+03 -0.69399727101E+02  0.19895348231E+02  0.19888940492E+03  0.12500025600E+03 0.  0.
          2    1    1    2  501    0  0.29612969096E+02  0.43091580879E+00 -0.71696457420E+03  0.71757599896E+03  0.00000000000E+00 0. -1.
          1    1    1    2  502    0  0.10720729397E+03  0.68968811292E+02  0.12601711809E+04  0.12666023472E+04  0.00000000000E+00 0. -1.
         22    1    3    3    0    0 -0.13954899104E+03 -0.39415235553E+02 -0.22651381976E+02  0.14676704944E+03  0.00000000000E+00 0. -1.
         22    1    3    3    0    0  0.27287279781E+01 -0.29984491548E+02  0.42546730206E+02  0.52122355482E+02  0.00000000000E+00 0. -1.
</event>
<event>
 7    1  0.5889087E-006  0.9692410E+02  0.7818608E-02  0.1367434E+00
          2   -1    0    0  502    0  0.00000000000E+00  0.00000000000E+00  0.17673280108E+04  0.17673280108E+04  0.00000000000E+00 0. -1.
          1   -1    0    0  501    0 -0.00000000000E+00 -0.00000000000E+00 -0.56402411534E+03  0.56402411534E+03  0.00000000000E+00 0. -1.
         25    2    1    2    0    0 -0.12346324848E+03  0.38142802955E+02  0.36531702455E+02  0.18345979798E+03  0.12499954020E+03 0.  0.
          2    1    1    2  501    0  0.27046413004E+02 -0.39105226183E+02 -0.48800124402E+03  0.49031208566E+03  0.00000000000E+00 0. -1.
          1    1    1    2  502    0  0.96416835473E+02  0.96242322762E+00  0.16547734370E+04  0.16575802425E+04  0.00000000000E+00 0. -1.
         22    1    3    3    0    0 -0.27378330762E+02  0.66859175664E+02 -0.99454276723E+01  0.72928964735E+02  0.00000000000E+00 0. -1.
         22    1    3    3    0    0 -0.96084917716E+02 -0.28716372708E+02  0.46477130128E+02  0.11053083325E+03  0.00000000000E+00 0. -1.
</event>
<event>
 7    1  0.5889087E-006  0.5482229E+02  0.7818608E-02  0.1422049E+00
          2   -1    0    0  502    0  0.00000000000E+00  0.00000000000E+00  0.15762670114E+03  0.15762670114E+03  0.00000000000E+00 0. -1.
          1   -1    0    0  501    0 -0.00000000000E+00 -0.00000000000E+00 -0.18860964826E+04  0.18860964826E+04  0.00000000000E+00 0. -1.
         25    2    1    2    0    0 -0.13057447214E+02 -0.50183010157E+02 -0.14518565509E+03  0.19847498930E+03  0.12499846198E+03 0.  0.
          2    1    1    2  501    0 -0.39971358488E+02  0.38235062885E+02 -0.17081594201E+04  0.17090547780E+04  0.00000000000E+00 0. -1.
          1    1    1    2  502    0  0.53028805702E+02  0.11947947272E+02  0.12487529380E+03  0.13619341643E+03  0.00000000000E+00 0. -1.
         22    1    3    3    0    0 -0.50595099628E+02 -0.60749282927E+02 -0.45003470042E+02  0.90970609531E+02  0.00000000000E+00 0. -1.
         22    1    3    3    0    0  0.37537652414E+02  0.10566272770E+02 -0.10018218505E+03  0.10750437977E+03  0.00000000000E+00 0. -1.
</event>
<event>
 7    1  0.5889087E-006  0.1301777E+03  0.7818608E-02  0.1303631E+00
          2   -1    0    0  502    0  0.00000000000E+00  0.00000000000E+00  0.16128876446E+04  0.16128876446E+04  0.00000000000E+00 0. -1.
          1   -1    0    0  501    0 -0.00000000000E+00 -0.00000000000E+00 -0.77543501403E+02  0.77543501403E+02  0.00000000000E+00 0. -1.
         25    2    1    2    0    0 -0.47202524744E+02 -0.67023223496E+02  0.38453154174E+03  0.41256540122E+03  0.12500205145E+03 0.  0.
          2    1    1    2  501    0  0.56133847945E+02  0.12815356397E+03  0.15377182645E+02  0.14075085289E+03  0.00000000000E+00 0. -1.
          1    1    1    2  502    0 -0.89313232009E+01 -0.61130340471E+02  0.11354354188E+04  0.11371148919E+04  0.00000000000E+00 0. -1.
         22    1    3    3    0    0 -0.45659858903E+02  0.18209146747E+02  0.62907078085E+02  0.79835432068E+02  0.00000000000E+00 0.  1.
         22    1    3    3    0    0 -0.15426658418E+01 -0.85232370243E+02  0.32162446365E+03  0.33272996915E+03  0.00000000000E+00 0.  1.
</event>
<event>
 7    1  0.5889087E-006  0.9895963E+02  0.7818608E-02  0.1448761E+00
          2   -1    0    0  502    0  0.00000000000E+00  0.00000000000E+00  0.83301158711E+03  0.83301158711E+03  0.00000000000E+00 0. -1.
          1   -1    0    0  501    0 -0.00000000000E+00 -0.00000000000E+00 -0.16339258549E+04  0.16339258549E+04  0.00000000000E+00 0. -1.
         25    2    1    2    0    0  0.11508092065E+03 -0.42207930333E+02  0.62032425638E+02  0.18573711653E+03  0.12500050777E+03 0.  0.
          2    1    1    2  501    0 -0.90671192642E+02  0.38908090783E+02 -0.15703108008E+04  0.15734074856E+04  0.00000000000E+00 0. -1.
          1    1    1    2  502    0 -0.24409728011E+02  0.32998395500E+01  0.70736410737E+03  0.70779283986E+03  0.00000000000E+00 0. -1.
         22    1    3    3    0    0  0.97709587297E+02 -0.84143046174E+02  0.53226547937E+02  0.13950011138E+03  0.00000000000E+00 0.  1.
         22    1    3    3    0    0  0.17371333356E+02  0.41935115840E+02  0.88058777003E+01  0.46237005149E+02  0.00000000000E+00 0.  1.
</event>
<event>
 7    1  0.5889087E-006  0.9305055E+02  0.7818608E-02  0.1326109E+00
          2   -1    0    0  502    0  0.00000000000E+00  0.00000000000E+00  0.45742038122E+03  0.45742038122E+03  0.00000000000E+00 0. -1.
          1   -1    0    0  501    0 -0.00000000000E+00 -0.00000000000E+00 -0.31239235716E+03  0.31239235716E+03  0.00000000000E+00 0. -1.
         25    2    1    2    0    0  0.23237706787E+02  0.51773447258E+02 -0.18215726082E+01  0.13729107885E+03  0.12500016539E+03 0.  0.
          2    1    1    2  501    0 -0.92791577643E+02 -0.39721616016E+02 -0.22891701800E+03  0.25018210326E+03  0.00000000000E+00 0. -1.
          1    1    1    2  502    0  0.69553870855E+02 -0.12051831242E+02  0.37576661467E+03  0.38233955627E+03  0.00000000000E+00 0. -1.
         22    1    3    3    0    0  0.46492475795E+02  0.49528554852E+02  0.47381594118E+02  0.82822964885E+02  0.00000000000E+00 0. -1.
         22    1    3    3    0    0 -0.23254769007E+02  0.22448924064E+01 -0.49203166726E+02  0.54468113969E+02  0.00000000000E+00 0. -1.
</event>
<event>
 7    1  0.5889087E-006  0.5804687E+02  0.7818608E-02  0.1513791E+00
          2   -1    0    0  502    0  0.00000000000E+00  0.00000000000E+00  0.43751530962E+03  0.43751530962E+03  0.00000000000E+00 0. -1.
          1   -1    0    0  501    0 -0.00000000000E+00 -0.00000000000E+00 -0.53258678371E+02  0.53258678371E+02  0.00000000000E+00 0. -1.
         25    2    1    2    0    0 -0.40235877021E+02 -0.68852555619E+02  0.19485877927E+03  0.24485676808E+03  0.12500117120E+03 0.  0.
          2    1    1    2  501    0  0.35150475260E+02  0.42801837964E+02  0.72880518442E+00  0.55390291578E+02  0.00000000000E+00 0. -1.
          1    1    1    2  502    0  0.50854017606E+01  0.26050717656E+02  0.18866904679E+03  0.19052692833E+03  0.00000000000E+00 0. -1.
         22    1    3    3    0    0  0.15110317884E+02 -0.40760756365E+02  0.17404612772E+03  0.17939290828E+03  0.00000000000E+00 0. -1.
         22    1    3    3    0    0 -0.55346194904E+02 -0.28091799255E+02  0.20812651550E+02  0.65463859803E+02  0.00000000000E+00 0. -1.
</event>
<event>
 7    1  0.5889087E-006  0.2515055E+03  0.7818608E-02  0.1271531E+00
          2   -1    0    0  502    0  0.00000000000E+00  0.00000000000E+00  0.92720375505E+03  0.92720375505E+03  0.00000000000E+00 0. -1.
          1   -1    0    0  501    0 -0.00000000000E+00 -0.00000000000E+00 -0.12400838622E+03  0.12400838622E+03  0.00000000000E+00 0. -1.
         25    2    1    2    0    0 -0.22426152679E+03 -0.56882856574E+02  0.23254735209E+03  0.35104120598E+03  0.12499106193E+03 0.  0.
          2    1    1    2  501    0  0.26706862923E+03  0.50761021687E+02  0.22799880618E+03  0.35480387493E+03  0.00000000000E+00 0. -1.
          1    1    1    2  502    0 -0.42807102446E+02  0.61218348876E+01  0.34264921057E+03  0.34536706036E+03  0.00000000000E+00 0. -1.
         22    1    3    3    0    0 -0.41898552156E+01 -0.48800255107E+01 -0.14659395937E+02  0.16008354848E+02  0.00000000000E+00 0. -1.
         22    1    3    3    0    0 -0.22007167157E+03 -0.52002831064E+02  0.24720674802E+03  0.33503285113E+03  0.00000000000E+00 0. -1.
</event>
<event>
 7    1  0.5889087E-006  0.9818147E+02  0.7818608E-02  0.1313464E+00
          2   -1    0    0  502    0  0.00000000000E+00  0.00000000000E+00  0.46825508689E+03  0.46825508689E+03  0.00000000000E+00 0. -1.
          1   -1    0    0  501    0 -0.00000000000E+00 -0.00000000000E+00 -0.31539563247E+03  0.31539563247E+03  0.00000000000E+00 0. -1.
         25    2    1    2    0    0  0.79477018749E+02  0.98196761021E+01  0.19072504091E+03  0.24169007491E+03  0.12500011413E+03 0.  0.
          2    1    1    2  501    0 -0.75926325777E+02  0.65001120561E+02 -0.27535742682E+03  0.29293628168E+03  0.00000000000E+00 0. -1.
          1    1    1    2  502    0 -0.35506929714E+01 -0.74820796663E+02  0.23749184032E+03  0.24902436277E+03  0.00000000000E+00 0. -1.
         22    1    3    3    0    0 -0.17669208397E+02  0.40415207932E+02  0.79210967514E+02  0.90664035494E+02  0.00000000000E+00 0.  1.
         22    1    3    3    0    0  0.97146227146E+02 -0.30595531830E+02  0.11151407340E+03  0.15102603942E+03  0.00000000000E+00 0.  1.
</event>
<event>
 7    1  0.5889087E-006  0.1062419E+03  0.7818608E-02  0.1390453E+00
          2   -1    0    0  502    0  0.00000000000E+00  0.00000000000E+00  0.98928912519E+03  0.98928912519E+03  0.00000000000E+00 0. -1.
          1   -1    0    0  501    0 -0.00000000000E+00 -0.00000000000E+00 -0.24535184108E+03  0.24535184108E+03  0.00000000000E+00 0. -1.
         25    2    1    2    0    0 -0.27377047790E+02 -0.13568202169E+03  0.17506453443E+03  0.25579662494E+03  0.12500083344E+03 0.  0.
          2    1    1    2  501    0  0.10947528404E+02  0.10371528361E+03 -0.19126844428E+03  0.21785391025E+03  0.00000000000E+00 0. -1.
          1    1    1    2  502    0  0.16429519386E+02  0.31966738081E+02  0.76014119395E+03  0.76099043108E+03  0.00000000000E+00 0. -1.
         22    1    3    3    0    0  0.41065547438E+02 -0.96839523712E+01  0.29579643713E+02  0.51527792909E+02  0.00000000000E+00 0. -1.
         22    1    3    3    0    0 -0.68442595228E+02 -0.12599806932E+03  0.14548489072E+03  0.20426883203E+03  0.00000000000E+00 0. -1.
</event>
<event>
 7    1  0.5889087E-006  0.5185656E+02  0.7818608E-02  0.1502007E+00
          2   -1    0    0  502    0  0.00000000000E+00  0.00000000000E+00  0.11918110555E+04  0.11918110555E+04  0.00000000000E+00 0. -1.
          1   -1    0    0  501    0 -0.00000000000E+00 -0.00000000000E+00 -0.19239864695E+02  0.19239864695E+02  0.00000000000E+00 0. -1.
         25    2    1    2    0    0  0.50950434101E+02  0.42492387832E+02  0.53308577608E+03  0.55154846701E+03  0.12499486810E+03 0.  0.
          2    1    1    2  501    0 -0.19104040628E+02 -0.47173392852E+02  0.58151216768E+02  0.77277793532E+02  0.00000000000E+00 0. -1.
          1    1    1    2  502    0 -0.31846393473E+02  0.46810050207E+01  0.58133419793E+03  0.58222465962E+03  0.00000000000E+00 0. -1.
         22    1    3    3    0    0 -0.83717698365E+00  0.71704997682E+02  0.18483160180E+03  0.19825495853E+03  0.00000000000E+00 0. -1.
         22    1    3    3    0    0  0.51787611084E+02 -0.29212609850E+02  0.34825417427E+03  0.35329350848E+03  0.00000000000E+00 0. -1.
</event>
<event>
 7    1  0.6149054E-006  0.9241789E+02  0.7818608E-02  0.1309739E+00
          2   -1    0    0  502    0  0.00000000000E+00  0.00000000000E+00  0.80753987885E+03  0.80753987885E+03  0.00000000000E+00 0. -1.
          1   -1    0    0  501    0 -0.00000000000E+00 -0.00000000000E+00 -0.14277827258E+04  0.14277827258E+04  0.00000000000E+00 0. -1.
         25    2    1    2    0    0  0.35554433264E+02  0.21694099316E+02 -0.84346933922E+02  0.15644271216E+03  0.12500066102E+03 0.  0.
          2    1    1    2  501    0 -0.85179201552E+02  0.43968656052E+02 -0.13034276747E+04  0.13069477580E+04  0.00000000000E+00 0. -1.
          1    1    1    2  502    0  0.49624768289E+02 -0.65662755367E+02  0.76753176165E+03  0.77193213446E+03  0.00000000000E+00 0. -1.
         22    1    3    3    0    0  0.12089979417E+02 -0.19400650224E+02  0.27047444126E+02  0.35413515290E+02  0.00000000000E+00 0. -1.
         22    1    3    3    0    0  0.23464453847E+02  0.41094749540E+02 -0.11139437805E+03  0.12102919687E+03  0.00000000000E+00 0. -1.
</event>
<event>
 7    1  0.5889087E-006  0.2410597E+03  0.7818608E-02  0.1239832E+00
          2   -1    0    0  502    0  0.00000000000E+00  0.00000000000E+00  0.12793309363E+04  0.12793309363E+04  0.00000000000E+00 0. -1.
          1   -1    0    0  501    0 -0.00000000000E+00 -0.00000000000E+00 -0.10795760541E+04  0.10795760541E+04  0.00000000000E+00 0. -1.
         25    2    1    2    0    0  0.20718730227E+03  0.20507032381E+03  0.10371570392E+02  0.31735301676E+03  0.12499980738E+03 0.  0.
          2    1    1    2  501    0 -0.58164233510E+02 -0.20721662031E+02 -0.91243627091E+03  0.91452305264E+03  0.00000000000E+00 0. -1.
          1    1    1    2  502    0 -0.14902306876E+03 -0.18434866178E+03  0.11018195827E+04  0.11270309210E+04  0.00000000000E+00 0. -1.
         22    1    3    3    0    0  0.16837521966E+03  0.20349520966E+03  0.41771518199E+02  0.26740488904E+03  0.00000000000E+00 0.  1.
         22    1    3    3    0    0  0.38812082608E+02  0.15751141588E+01 -0.31399947808E+02  0.49948127725E+02  0.00000000000E+00 0.  1.
</event>
<event>
 7    1  0.5889087E-006  0.8349135E+02  0.7818608E-02  0.1335625E+00
          2   -1    0    0  502    0  0.00000000000E+00  0.00000000000E+00  0.31497167872E+03  0.31497167872E+03  0.00000000000E+00 0. -1.
          1   -1    0    0  501    0 -0.00000000000E+00 -0.00000000000E+00 -0.91622943909E+03  0.91622943909E+03  0.00000000000E+00 0. -1.
         25    2    1    2    0    0  0.17292176985E+02 -0.26146594231E+02  0.42194535702E+00  0.12887280562E+03  0.12500143286E+03 0.  0.
          2    1    1    2  501    0 -0.85648656330E+02  0.24024011085E+01 -0.84456112214E+03  0.84889631457E+03  0.00000000000E+00 0. -1.
          1    1    1    2  502    0  0.68356479345E+02  0.23744193122E+02  0.24288141641E+03  0.25343199761E+03  0.00000000000E+00 0. -1.
         22    1    3    3    0    0  0.15122510535E+02 -0.52560715301E+02  0.49066565363E+02  0.73476846383E+02  0.00000000000E+00 0. -1.
         22    1    3    3    0    0  0.21696664505E+01  0.26414121070E+02 -0.48644620006E+02  0.55395959239E+02  0.00000000000E+00 0. -1.
</event>
<event>
 7    1  0.5889087E-006  0.1272241E+03  0.7818608E-02  0.1274401E+00
          2   -1    0    0  502    0  0.00000000000E+00  0.00000000000E+00  0.90251135549E+02  0.90251135549E+02  0.00000000000E+00 0. -1.
          1   -1    0    0  501    0 -0.00000000000E+00 -0.00000000000E+00 -0.14073526430E+04  0.14073526430E+04  0.00000000000E+00 0. -1.
         25    2    1    2    0    0  0.19112734317E+03  0.12326810306E+02 -0.34616277006E+03  0.41489188324E+03  0.12499999937E+03 0.  0.
          2    1    1    2  501    0 -0.79621595270E+02  0.23987805661E+02 -0.96147082704E+03  0.96506018698E+03  0.00000000000E+00 0. -1.
          1    1    1    2  502    0 -0.11150574790E+03 -0.36314615968E+02 -0.94679103599E+01  0.11765170833E+03  0.00000000000E+00 0. -1.
         22    1    3    3    0    0  0.89389960814E+02 -0.21722889929E+02 -0.61427189259E+02  0.11061531820E+03  0.00000000000E+00 0. -1.
         22    1    3    3    0    0  0.10173738236E+03  0.34049700235E+02 -0.28473558080E+03  0.30427656503E+03  0.00000000000E+00 0. -1.
</event>
<event>
 7    1  0.5889087E-006  0.1416945E+03  0.7818608E-02  0.1294829E+00
          2   -1    0    0  502    0  0.00000000000E+00  0.00000000000E+00  0.43432582376E+03  0.43432582376E+03  0.00000000000E+00 0. -1.
          1   -1    0    0  501    0 -0.00000000000E+00 -0.00000000000E+00 -0.81808303419E+03  0.81808303419E+03  0.00000000000E+00 0. -1.
         25    2    1    2    0    0 -0.72324972185E+02 -0.16871199954E+03  0.12404118633E+03  0.25437535706E+03  0.12500386386E+03 0.  0.
          2    1    1    2  501    0 -0.31776293458E+01  0.61479220143E+02 -0.73399258742E+03  0.73656969135E+03  0.00000000000E+00 0. -1.
          1    1    1    2  502    0  0.75502601531E+02  0.10723277940E+03  0.22619419065E+03  0.26146380954E+03  0.00000000000E+00 0. -1.
         22    1    3    3    0    0  0.34817849047E+02 -0.49628791318E+02  0.22235348433E+02  0.64573293705E+02  0.00000000000E+00 0. -1.
         22    1    3    3    0    0 -0.10714282123E+03 -0.11908320823E+03  0.10180583789E+03  0.18980206335E+03  0.00000000000E+00 0. -1.
</event>
<event>
 7    1  0.5889087E-006  0.5631308E+02  0.7818608E-02  0.1422283E+00
          2   -1    0    0  502    0  0.00000000000E+00  0.00000000000E+00  0.12819974075E+04  0.12819974075E+04  0.00000000000E+00 0. -1.
          1   -1    0    0  501    0 -0.00000000000E+00 -0.00000000000E+00 -0.74639541498E+02  0.74639541498E+02  0.00000000000E+00 0. -1.
         25    2    1    2    0    0 -0.71119820576E+01 -0.56939824373E+02  0.62442208265E+03  0.63939055336E+03  0.12499847411E+03 0.  0.
          2    1    1    2  501    0 -0.45081416179E+02  0.27533194483E+02 -0.55142691763E+02  0.76361818588E+02  0.00000000000E+00 0. -1.
          1    1    1    2  502    0  0.52193398236E+02  0.29406629890E+02  0.63807847516E+03  0.64088457710E+03  0.00000000000E+00 0. -1.
         22    1    3    3    0    0 -0.12448657173E+02 -0.79205031283E+02  0.21720966043E+03  0.23153497064E+03  0.00000000000E+00 0.  1.
         22    1    3    3    0    0  0.53366751152E+01  0.22265206910E+02  0.40721242222E+03  0.40785558271E+03  0.00000000000E+00 0.  1.
</event>
<event>
 7    1  0.5889087E-006  0.1233119E+03  0.7818608E-02  0.1355460E+00
          2   -1    0    0  502    0  0.00000000000E+00  0.00000000000E+00  0.20286651030E+04  0.20286651030E+04  0.00000000000E+00 0. -1.
          1   -1    0    0  501    0 -0.00000000000E+00 -0.00000000000E+00 -0.58409573648E+03  0.58409573648E+03  0.00000000000E+00 0. -1.
         25    2    1    2    0    0  0.95788870253E+02 -0.69750375587E+02  0.65759132828E+01  0.17235310232E+03  0.12498690605E+03 0.  0.
          2    1    1    2  501    0 -0.70433084276E+02  0.10237551817E+03 -0.49328057305E+03  0.50869174343E+03  0.00000000000E+00 0. -1.
          1    1    1    2  502    0 -0.25355785977E+02 -0.32625142588E+02  0.19312740263E+04  0.19317159937E+04  0.00000000000E+00 0. -1.
         22    1    3    3    0    0  0.11120222378E+03 -0.49691317883E+02 -0.32264859018E+02  0.12600072529E+03  0.00000000000E+00 0. -1.
         22    1    3    3    0    0 -0.15413353529E+02 -0.20059057704E+02  0.38840772301E+02  0.46352377025E+02  0.00000000000E+00 0. -1.
</event>
<event>
 7    1  0.5889087E-006  0.5184004E+02  0.7818608E-02  0.1543800E+00
          2   -1    0    0  502    0  0.00000000000E+00  0.00000000000E+00  0.55308916079E+03  0.55308916079E+03  0.00000000000E+00 0. -1.
          1   -1    0    0  501    0 -0.00000000000E+00 -0.00000000000E+00 -0.79888277285E+03  0.79888277285E+03  0.00000000000E+00 0. -1.
         25    2    1    2    0    0 -0.11745249690E+02  0.37425607613E+02 -0.73742885384E+02  0.15033857217E+03  0.12500018457E+03 0.  0.
          2    1    1    2  501    0 -0.24374182249E+02  0.33167684192E-01 -0.68530984558E+03  0.68574316351E+03  0.00000000000E+00 0. -1.
          1    1    1    2  502    0  0.36119431939E+02 -0.37458775297E+02  0.51325911890E+03  0.51589019795E+03  0.00000000000E+00 0. -1.
         22    1    3    3    0    0 -0.62298708244E+02  0.42147837696E+02 -0.63733855115E+02  0.98587897630E+02  0.00000000000E+00 0. -1.
         22    1    3    3    0    0  0.50553458554E+02 -0.47222300828E+01 -0.10009030269E+02  0.51750674543E+02  0.00000000000E+00 0. -1.
</event>
<event>
 7    1  0.5889087E-006  0.2552834E+03  0.7818608E-02  0.1186135E+00
          2   -1    0    0  502    0  0.00000000000E+00  0.00000000000E+00  0.40223659465E+03  0.40223659465E+03  0.00000000000E+00 0. -1.
          1   -1    0    0  501    0 -0.00000000000E+00 -0.00000000000E+00 -0.17003021003E+04  0.17003021003E+04  0.00000000000E+00 0. -1.
         25    2    1    2    0    0  0.21920962349E+03 -0.26135148752E+02 -0.47275936293E+02  0.25806192189E+03  0.12500014539E+03 0.  0.
          2    1    1    2  501    0  0.24024225227E+02 -0.10033637615E+03 -0.14821577457E+04  0.14857443033E+04  0.00000000000E+00 0. -1.
          1    1    1    2  502    0 -0.24323384872E+03  0.12647152491E+03  0.23136817637E+03  0.35873246969E+03  0.00000000000E+00 0. -1.
         22    1    3    3    0    0  0.10143900049E+03  0.48385898175E+02 -0.36975745837E+02  0.11831429222E+03  0.00000000000E+00 0. -1.
         22    1    3    3    0    0  0.11777062300E+03 -0.74521046928E+02 -0.10300190456E+02  0.13974762968E+03  0.00000000000E+00 0. -1.
</event>
<event>
 7    1  0.5889087E-006  0.1018037E+03  0.7818608E-02  0.1342472E+00
          2   -1    0    0  502    0  0.00000000000E+00  0.00000000000E+00  0.11446827199E+03  0.11446827199E+03  0.00000000000E+00 0. -1.
          1   -1    0    0  501    0 -0.00000000000E+00 -0.00000000000E+00 -0.67470946706E+03  0.67470946706E+03  0.00000000000E+00 0. -1.
         25    2    1    2    0    0 -0.86447158602E+00 -0.50864079818E+02 -0.38549376359E+02  0.14036352989E+03  0.12501185615E+03 0.  0.
          2    1    1    2  501    0  0.26978442914E+01  0.10675757888E+03 -0.56691989235E+03  0.57689047778E+03  0.00000000000E+00 0. -1.
          1    1    1    2  502    0 -0.18333727054E+01 -0.55893499061E+02  0.45228073635E+02  0.71923731393E+02  0.00000000000E+00 0. -1.
         22    1    3    3    0    0 -0.32762374855E+02  0.29070627920E+02 -0.31619238808E+02  0.54020837430E+02  0.00000000000E+00 0.  1.
         22    1    3    3    0    0  0.31897903269E+02 -0.79934707738E+02 -0.69301375508E+01  0.86342692456E+02  0.00000000000E+00 0.  1.
</event>
<event>
 7    1  0.5889087E-006  0.1202100E+03  0.7818608E-02  0.1356029E+00
          2   -1    0    0  502    0  0.00000000000E+00  0.00000000000E+00  0.11402058766E+04  0.11402058766E+04  0.00000000000E+00 0. -1.
          1   -1    0    0  501    0 -0.00000000000E+00 -0.00000000000E+00 -0.18801144924E+03  0.18801144924E+03  0.00000000000E+00 0. -1.
         25    2    1    2    0    0 -0.13587348953E+03  0.82594484316E+02  0.36560155140E+03  0.41781989250E+03  0.12500205673E+03 0.  0.
          2    1    1    2  501    0  0.10521704825E+03 -0.53619634413E+02 -0.13967446563E+03  0.18290612014E+03  0.00000000000E+00 0. -1.
          1    1    1    2  502    0  0.30656441277E+02 -0.28974849903E+02  0.72626734155E+03  0.72749131316E+03  0.00000000000E+00 0. -1.
         22    1    3    3    0    0 -0.60431088014E+02  0.29182494012E+02  0.37350977481E+02  0.76802538200E+02  0.00000000000E+00 0.  1.
         22    1    3    3    0    0 -0.75442401513E+02  0.53411990304E+02  0.32825057392E+03  0.34101735430E+03  0.00000000000E+00 0.  1.
</event>
<event>
 7    1  0.5889087E-006  0.1537923E+03  0.7818608E-02  0.1311817E+00
          2   -1    0    0  502    0  0.00000000000E+00  0.00000000000E+00  0.20994747796E+03  0.20994747796E+03  0.00000000000E+00 0. -1.
          1   -1    0    0  501    0 -0.00000000000E+00 -0.00000000000E+00 -0.27003891333E+03  0.27003891333E+03  0.00000000000E+00 0. -1.
         25    2    1    2    0    0 -0.16770302513E+03  0.45173311906E+01  0.75043406259E+02  0.22226607748E+03  0.12500394176E+03 0.  0.
          2    1    1    2  501    0  0.31551628549E+02 -0.36882612260E+02 -0.10339510130E+03  0.11422074822E+03  0.00000000000E+00 0. -1.
          1    1    1    2  502    0  0.13615139658E+03  0.32365281069E+02 -0.31739740327E+02  0.14349956559E+03  0.00000000000E+00 0. -1.
         22    1    3    3    0    0 -0.11848038232E+03  0.22144171038E+02 -0.11580088503E+02  0.12108700903E+03  0.00000000000E+00 0. -1.
         22    1    3    3    0    0 -0.49222642811E+02 -0.17626839847E+02  0.86623494763E+02  0.10117906845E+03  0.00000000000E+00 0. -1.
</event>
<event>
 7    1  0.5889087E-006  0.1230307E+03  0.7818608E-02  0.1320175E+00
          2   -1    0    0  502    0  0.00000000000E+00  0.00000000000E+00  0.33485207503E+03  0.33485207503E+03  0.00000000000E+00 0. -1.
          1   -1    0    0  501    0 -0.00000000000E+00 -0.00000000000E+00 -0.14689778642E+04  0.14689778642E+04  0.00000000000E+00 0. -1.
         25    2    1    2    0    0 -0.15701007226E+03  0.18758647997E+02  0.39968399259E+02  0.20546660833E+03  0.12496001174E+03 0.  0.
          2    1    1    2  501    0  0.49266028668E+02  0.27210284592E+02 -0.13694353175E+04  0.13705913432E+04  0.00000000000E+00 0. -1.
          1    1    1    2  502    0  0.10774404359E+03 -0.45968932589E+02  0.19534112906E+03  0.22777198773E+03  0.00000000000E+00 0. -1.
         22    1    3    3    0    0 -0.12333727467E+03 -0.50520653433E+01  0.80718461398E+02  0.14748924265E+03  0.00000000000E+00 0.  1.
         22    1    3    3    0    0 -0.33672797591E+02  0.23810713340E+02 -0.40750062139E+02  0.57977365684E+02  0.00000000000E+00 0.  1.
</event>
<event>
 7    1  0.5889087E-006  0.1001588E+03  0.7818608E-02  0.1386756E+00
          2   -1    0    0  502    0  0.00000000000E+00  0.00000000000E+00  0.41706027129E+04  0.41706027129E+04  0.00000000000E+00 0. -1.
          1   -1    0    0  501    0 -0.00000000000E+00 -0.00000000000E+00 -0.35444421243E+02  0.35444421243E+02  0.00000000000E+00 0. -1.
         25    2    1    2    0    0  0.77394364072E+02  0.62791572966E+02  0.11871710831E+04  0.11978855777E+04  0.12498802931E+03 0.  0.
          2    1    1    2  501    0 -0.96579891297E+02 -0.28519755600E+02  0.54684981277E+02  0.11459275300E+03  0.00000000000E+00 0. -1.
          1    1    1    2  502    0  0.19185527225E+02 -0.34271817366E+02  0.28933022273E+04  0.28935688034E+04  0.00000000000E+00 0. -1.
         22    1    3    3    0    0  0.10789081015E+02  0.18197931495E+02  0.24151286497E+02  0.32106909214E+02  0.00000000000E+00 0. -1.
         22    1    3    3    0    0  0.66605283057E+02  0.44593641471E+02  0.11630197966E+04  0.11657786685E+04  0.00000000000E+00 0. -1.
</event>
<event>
 7    1  0.5889087E-006  0.7610342E+02  0.7818608E-02  0.1465677E+00
          2   -1    0    0  502    0  0.00000000000E+00  0.00000000000E+00  0.85472746634E+03  0.85472746634E+03  0.00000000000E+00 0. -1.
          1   -1    0    0  501    0 -0.00000000000E+00 -0.00000000000E+00 -0.10988535869E+04  0.10988535869E+04  0.00000000000E+00 0. -1.
         25    2    1    2    0    0  0.25825433970E+02  0.45982250045E+02  0.11775686494E+03  0.17962641874E+03  0.12497059939E+03 0.  0.
          2    1    1    2  501    0  0.25345732100E+02  0.12616335524E+02 -0.10655871614E+04  0.10659632154E+04  0.00000000000E+00 0. -1.
          1    1    1    2  502    0 -0.51171166070E+02 -0.58598585569E+02  0.70370417585E+03  0.70799141914E+03  0.00000000000E+00 0. -1.
         22    1    3    3    0    0  0.10006106782E+02  0.80629060949E+02  0.34883116313E+02  0.88419451741E+02  0.00000000000E+00 0.  1.
         22    1    3    3    0    0  0.15819327188E+02 -0.34646810904E+02  0.82873748626E+02  0.91206967003E+02  0.00000000000E+00 0.  1.
</event>
<event>
 7    1  0.5889087E-006  0.1264097E+03  0.7818608E-02  0.1395182E+00
          2   -1    0    0  502    0  0.00000000000E+00  0.00000000000E+00  0.15495957808E+04  0.15495957808E+04  0.00000000000E+00 0. -1.
          1   -1    0    0  501    0 -0.00000000000E+00 -0.00000000000E+00 -0.21395727949E+04  0.21395727949E+04  0.00000000000E+00 0. -1.
         25    2    1    2    0    0  0.13761098217E+03 -0.57050848680E+02  0.62848190840E+03  0.65787882589E+03  0.12499383434E+03 0.  0.
          2    1    1    2  501    0 -0.28250689257E+02  0.69195292199E+01 -0.21207824022E+04  0.21209818431E+04  0.00000000000E+00 0. -1.
          1    1    1    2  502    0 -0.10936029291E+03  0.50131319461E+02  0.90232347972E+03  0.91030790665E+03  0.00000000000E+00 0. -1.
         22    1    3    3    0    0  0.83552805648E+02 -0.93736903533E+02  0.46937584029E+03  0.48588204110E+03  0.00000000000E+00 0.  1.
         22    1    3    3    0    0  0.54058176522E+02  0.36686054853E+02  0.15910606811E+03  0.17199678479E+03  0.00000000000E+00 0.  1.
</event>
<event>
 7    1  0.7433136E-006  0.5613645E+02  0.7818608E-02  0.1516647E+00
          2   -1    0    0  502    0  0.00000000000E+00  0.00000000000E+00  0.16801408751E+04  0.16801408751E+04  0.00000000000E+00 0. -1.
          1   -1    0    0  501    0 -0.00000000000E+00 -0.00000000000E+00 -0.66130498466E+03  0.66130498466E+03  0.00000000000E+00 0. -1.
         25    2    1    2    0    0 -0.38070633436E+02  0.71613085037E+02 -0.25956730498E+03  0.29929876144E+03  0.12500702264E+03 0.  0.
          2    1    1    2  501    0  0.47237353670E+01 -0.26505420726E+02 -0.38092286349E+03  0.38187311889E+03  0.00000000000E+00 0. -1.
          1    1    1    2  502    0  0.33346898069E+02 -0.45107664312E+02  0.16593260589E+04  0.16602739794E+04  0.00000000000E+00 0. -1.
         22    1    3    3    0    0 -0.11751807500E+02 -0.17710087467E+02 -0.16577163129E+03  0.16712865080E+03  0.00000000000E+00 0.  1.
         22    1    3    3    0    0 -0.26318825936E+02  0.89323172504E+02 -0.93795673682E+02  0.13217011064E+03  0.00000000000E+00 0.  1.
</event>
<event>
 7    1  0.5889087E-006  0.1127525E+03  0.7818608E-02  0.1305968E+00
          2   -1    0    0  502    0  0.00000000000E+00  0.00000000000E+00  0.84928905063E+03  0.84928905063E+03  0.00000000000E+00 0. -1.
          1   -1    0    0  501    0 -0.00000000000E+00 -0.00000000000E+00 -0.32096888837E+03  0.32096888837E+03  0.00000000000E+00 0. -1.
         25    2    1    2    0    0 -0.92493033795E+02  0.54736388992E+02  0.20040209957E+03  0.25949464686E+03  0.12500174660E+03 0.  0.
          2    1    1    2  501    0  0.11338229297E+03  0.11883592127E+02 -0.27819202620E+03  0.30064525202E+03  0.00000000000E+00 0. -1.
          1    1    1    2  502    0 -0.20889259175E+02 -0.66619981120E+02  0.60611008888E+03  0.61011804012E+03  0.00000000000E+00 0. -1.
         22    1    3    3    0    0 -0.10466627399E+03  0.37994117556E+02  0.79459215373E+02  0.13679308750E+03  0.00000000000E+00 0. -1.
         22    1    3    3    0    0  0.12173240194E+02  0.16742271437E+02  0.12094288420E+03  0.12270155936E+03  0.00000000000E+00 0. -1.
</event>
<event>
 7    1  0.5889087E-006  0.2884796E+02  0.7818608E-02  0.1612002E+00
          2   -1    0    0  502    0  0.00000000000E+00  0.00000000000E+00  0.13633078044E+04  0.13633078044E+04  0.00000000000E+00 0. -1.
          1   -1    0    0  501    0 -0.00000000000E+00 -0.00000000000E+00 -0.62794620622E+03  0.62794620622E+03  0.00000000000E+00 0. -1.
         25    2    1    2    0    0  0.25683898448E+02 -0.50339531884E+01 -0.30702835283E+03  0.33253061536E+03  0.12500078953E+03 0.  0.
          2    1    1    2  501    0 -0.89496176420E+01  0.28360544400E+02 -0.30729624315E+03  0.30873191799E+03  0.00000000000E+00 0. -1.
          1    1    1    2  502    0 -0.16734280806E+02 -0.23326591212E+02  0.13496861942E+04  0.13499914773E+04  0.00000000000E+00 0. -1.
         22    1    3    3    0    0  0.85084854095E+00  0.14763045704E+02 -0.29953536851E+03  0.29990016413E+03  0.00000000000E+00 0. -1.
         22    1    3    3    0    0  0.24833049907E+02 -0.19796998893E+02 -0.74929843258E+01  0.32630451222E+02  0.00000000000E+00 0. -1.
</event>
<event>
 7    1  0.5889087E-006  0.2300618E+03  0.7818608E-02  0.1227885E+00
          2   -1    0    0  502    0  0.00000000000E+00  0.00000000000E+00  0.21685564941E+04  0.21685564941E+04  0.00000000000E+00 0. -1.
          1   -1    0    0  501    0 -0.00000000000E+00 -0.00000000000E+00 -0.35481615315E+03  0.35481615315E+03  0.00000000000E+00 0. -1.
         25    2    1    2    0    0  0.19563028053E+03  0.55040045911E+02  0.62595886672E+03  0.66988855787E+03  0.12500225528E+03 0.  0.
          2    1    1    2  501    0  0.48918469718E+02 -0.54363005001E+02 -0.31885259549E+03  0.32713197741E+03  0.00000000000E+00 0. -1.
          1    1    1    2  502    0 -0.24454875025E+03 -0.67704091056E+00  0.15066340697E+04  0.15263521119E+04  0.00000000000E+00 0. -1.
         22    1    3    3    0    0  0.18797389775E+03  0.66577917267E+02  0.62496117396E+03  0.65600554438E+03  0.00000000000E+00 0. -1.
         22    1    3    3    0    0  0.76563827827E+01 -0.11537871356E+02  0.99769276234E+00  0.13883013491E+02  0.00000000000E+00 0. -1.
</event>
<event>
 7    1  0.5889087E-006  0.6443011E+02  0.7818608E-02  0.1429121E+00
          2   -1    0    0  502    0  0.00000000000E+00  0.00000000000E+00  0.35681861607E+04  0.35681861607E+04  0.00000000000E+00 0. -1.
          1   -1    0    0  501    0 -0.00000000000E+00 -0.00000000000E+00 -0.19532179104E+02  0.19532179104E+02  0.00000000000E+00 0. -1.
         25    2    1    2    0    0  0.87921806960E+02 -0.31186252403E+02  0.16582704586E+04  0.16655894769E+04  0.12499826003E+03 0.  0.
          2    1    1    2  501    0 -0.45994540514E+02  0.43935884015E+02  0.49175928278E+02  0.80399823278E+02  0.00000000000E+00 0. -1.
          1    1    1    2  502    0 -0.41927266446E+02 -0.12749631612E+02  0.18412075947E+04  0.18417290397E+04  0.00000000000E+00 0. -1.
         22    1    3    3    0    0  0.40187534307E+02 -0.25376543275E+02  0.14852726749E+04  0.14860329490E+04  0.00000000000E+00 0.  1.
         22    1    3    3    0    0  0.47734272653E+02 -0.58097091277E+01  0.17299778373E+03  0.17955652781E+03  0.00000000000E+00 0.  1.
</event>
<event>
 7    1  0.5889087E-006  0.5465810E+02  0.7818608E-02  0.1474537E+00
          2   -1    0    0  502    0  0.00000000000E+00  0.00000000000E+00  0.61338987627E+02  0.61338987627E+02  0.00000000000E+00 0. -1.
          1   -1    0    0  501    0 -0.00000000000E+00 -0.00000000000E+00 -0.16853072650E+04  0.16853072650E+04  0.00000000000E+00 0. -1.
         25    2    1    2    0    0  0.75164499402E+02 -0.43461665515E+02 -0.18186204838E+03  0.23714572482E+03  0.12500268725E+03 0.  0.
          2    1    1    2  501    0 -0.38578175284E+02  0.37963906769E+02 -0.14649957071E+04  0.14659952100E+04  0.00000000000E+00 0. -1.
          1    1    1    2  502    0 -0.36586324118E+02  0.54977587452E+01  0.22889478173E+02  0.43505317775E+02  0.00000000000E+00 0. -1.
         22    1    3    3    0    0  0.57784944954E+02  0.19032207042E+02 -0.15576983702E+03  0.16722908507E+03  0.00000000000E+00 0.  1.
         22    1    3    3    0    0  0.17379554448E+02 -0.62493872557E+02 -0.26092211359E+02  0.69916639747E+02  0.00000000000E+00 0.  1.
</event>
<event>
 7    1  0.5889087E-006  0.1229934E+03  0.7818608E-02  0.1280683E+00
          2   -1    0    0  502    0  0.00000000000E+00  0.00000000000E+00  0.18110872808E+04  0.18110872808E+04  0.00000000000E+00 0. -1.
          1   -1    0    0  501    0 -0.00000000000E+00 -0.00000000000E+00 -0.26628596100E+03  0.26628596100E+03  0.00000000000E+00 0. -1.
         25    2    1    2    0    0 -0.18076604676E+03 -0.83522891563E+02  0.54581785876E+03  0.59430116312E+03  0.12499720186E+03 0.  0.
          2    1    1    2  501    0  0.10181177222E+03  0.65406059227E+02 -0.22549702220E+03  0.25591501826E+03  0.00000000000E+00 0. -1.
          1    1    1    2  502    0  0.78954274537E+02  0.18116832336E+02  0.12244804832E+04  0.12271570604E+04  0.00000000000E+00 0. -1.
         22    1    3    3    0    0  0.17803343933E+02 -0.71757507457E+01  0.78906872440E+02  0.81208035146E+02  0.00000000000E+00 0.  1.
         22    1    3    3    0    0 -0.19856939069E+03 -0.76347140818E+02  0.46691098632E+03  0.51309312797E+03  0.00000000000E+00 0.  1.
</event>
<event>
 7    1  0.5889087E-006  0.1548072E+03  0.7818608E-02  0.1311842E+00
          2   -1    0    0  502    0  0.00000000000E+00  0.00000000000E+00  0.11733193813E+04  0.11733193813E+04  0.00000000000E+00 0. -1.
          1   -1    0    0  501    0 -0.00000000000E+00 -0.00000000000E+00 -0.11968084647E+03  0.11968084647E+03  0.00000000000E+00 0. -1.
         25    2    1    2    0    0  0.19434942725E+03  0.24808905371E+02  0.24256427432E+03  0.33593136809E+03  0.12500110092E+03 0.  0.
          2    1    1    2  501    0 -0.47996740476E+02  0.45048598466E+01 -0.57915481966E+02  0.75353725256E+02  0.00000000000E+00 0. -1.
          1    1    1    2  502    0 -0.14635268678E+03 -0.29313765217E+02  0.86898974246E+03  0.88171513442E+03  0.00000000000E+00 0. -1.
         22    1    3    3    0    0  0.11881932007E+03  0.68596310222E+02  0.18884906161E+03  0.23342547562E+03  0.00000000000E+00 0. -1.
         22    1    3    3    0    0  0.75530107184E+02 -0.43787404852E+02  0.53715212713E+02  0.10250589247E+03  0.00000000000E+00 0. -1.
</event>
<event>
 7    1  0.5889087E-006  0.6687852E+02  0.7818608E-02  0.1396068E+00
          2   -1    0    0  502    0  0.00000000000E+00  0.00000000000E+00  0.58618729305E+03  0.58618729305E+03  0.00000000000E+00 0. -1.
          1   -1    0    0  501    0 -0.00000000000E+00 -0.00000000000E+00 -0.17569956664E+04  0.17569956664E+04  0.00000000000E+00 0. -1.
         25    2    1    2    0    0 -0.18011267059E+02  0.90636050483E+02  0.39421430255E+03  0.42375544147E+03  0.12499783380E+03 0.  0.
          2    1    1    2  501    0 -0.27731597256E+02 -0.60843894793E+02 -0.17373624513E+04  0.17386487018E+04  0.00000000000E+00 0. -1.
          1    1    1    2  502    0  0.45742864315E+02 -0.29792155690E+02  0.17233977543E+03  0.18077881616E+03  0.00000000000E+00 0. -1.
         22    1    3    3    0    0  0.34150251877E+02  0.96897734261E+02  0.27010969856E+03  0.28898903070E+03  0.00000000000E+00 0.  1.
         22    1    3    3    0    0 -0.52161518936E+02 -0.62616837778E+01  0.12410460399E+03  0.13476641077E+03  0.00000000000E+00 0.  1.
</event>
<event>
 7    1  0.5889087E-006  0.1010241E+03  0.7818608E-02  0.1297106E+00
          2   -1    0    0  502    0  0.00000000000E+00  0.00000000000E+00  0.17865850507E+04  0.17865850507E+04  0.00000000000E+00 0. -1.
          1   -1    0    0  501    0 -0.00000000000E+00 -0.00000000000E+00 -0.75835423371E+03  0.75835423371E+03  0.00000000000E+00 0. -1.
         25    2    1    2    0    0 -0.53982204266E+02 -0.28207979913E+02  0.32723026985E+03  0.35554841533E+03  0.12500103051E+03 0.  0.
          2    1    1    2  501    0  0.11148462860E+02  0.10109375544E+03 -0.73947505618E+03  0.74643659765E+03  0.00000000000E+00 0. -1.
          1    1    1    2  502    0  0.42833741406E+02 -0.72885775526E+02  0.14404756033E+04  0.14429542714E+04  0.00000000000E+00 0. -1.
         22    1    3    3    0    0 -0.13172335717E+01  0.46334462272E+02  0.13535163584E+03  0.14306880451E+03  0.00000000000E+00 0. -1.
         22    1    3    3    0    0 -0.52664970694E+02 -0.74542442186E+02  0.19187863401E+03  0.21247961082E+03  0.00000000000E+00 0. -1.
</event>
<event>
 7    1  0.5889087E-006  0.3570588E+02  0.7818608E-02  0.1636156E+00
          2   -1    0    0  502    0  0.00000000000E+00  0.00000000000E+00  0.90257760998E+02  0.90257760998E+02  0.00000000000E+00 0. -1.
          1   -1    0    0  501    0 -0.00000000000E+00 -0.00000000000E+00 -0.86853240451E+03  0.86853240451E+03  0.00000000000E+00 0. -1.
         25    2    1    2    0    0  0.30519021233E+02 -0.86953073454E+01 -0.69575791471E+03  0.70760996243E+03  0.12500305600E+03 0.  0.
          2    1    1    2  501    0 -0.75246438137E+01 -0.18687590952E+02 -0.16240765468E+03  0.16365235293E+03  0.00000000000E+00 0. -1.
          1    1    1    2  502    0 -0.22994377419E+02  0.27382898297E+02  0.79890925888E+02  0.87527850147E+02  0.00000000000E+00 0. -1.
         22    1    3    3    0    0  0.43554000034E+02 -0.20604011911E+02 -0.68549869921E+03  0.68718988849E+03  0.00000000000E+00 0. -1.
         22    1    3    3    0    0 -0.13034978801E+02  0.11908704565E+02 -0.10259215505E+02  0.20420073936E+02  0.00000000000E+00 0. -1.
</event>
<event>
 7    1  0.5889087E-006  0.4752150E+02  0.7818608E-02  0.1518220E+00
          2   -1    0    0  502    0  0.00000000000E+00  0.00000000000E+00  0.31183335555E+03  0.31183335555E+03  0.00000000000E+00 0. -1.
          1   -1    0    0  501    0 -0.00000000000E+00 -0.00000000000E+00 -0.34148333339E+03  0.34148333339E+03  0.00000000000E+00 0. -1.
         25    2    1    2    0    0  0.11585398958E+02 -0.23845826166E+02  0.15858989582E+03  0.20364415962E+03  0.12496937142E+03 0.  0.
          2    1    1    2  501    0 -0.42926097654E+02  0.20996576603E+02 -0.31523497829E+03  0.31883631792E+03  0.00000000000E+00 0. -1.
          1    1    1    2  502    0  0.31340698696E+02  0.28492495629E+01  0.12699510462E+03  0.13083621141E+03  0.00000000000E+00 0. -1.
         22    1    3    3    0    0 -0.64784004762E+01  0.17292947076E+02  0.15762583917E+03  0.15870387792E+03  0.00000000000E+00 0. -1.
         22    1    3    3    0    0  0.18063799434E+02 -0.41138773242E+02  0.96405665042E+00  0.44940281698E+02  0.00000000000E+00 0. -1.
</event>
<event>
 7    1  0.5889087E-006  0.2622313E+02  0.7818608E-02  0.1664921E+00
          2   -1    0    0  502    0  0.00000000000E+00  0.00000000000E+00  0.31142172118E+02  0.31142172118E+02  0.00000000000E+00 0. -1.
          1   -1    0    0  501    0 -0.00000000000E+00 -0.00000000000E+00 -0.27750662357E+03  0.27750662357E+03  0.00000000000E+00 0. -1.
         25    2    1    2    0    0 -0.16174247348E+02 -0.28542201304E+02 -0.13782544461E+03  0.18893555903E+03  0.12499811499E+03 0.  0.
          2    1    1    2  501    0  0.25469166658E+02  0.71540225041E+01 -0.47485519699E+02  0.54357456428E+02  0.00000000000E+00 0. -1.
          1    1    1    2  502    0 -0.92949193100E+01  0.21388178800E+02 -0.61053487147E+02  0.65355780236E+02  0.00000000000E+00 0. -1.
         22    1    3    3    0    0  0.22235794508E+02 -0.61878356809E+02 -0.35632974451E+02  0.74786833514E+02  0.00000000000E+00 0.  1.
         22    1    3    3    0    0 -0.38410041856E+02  0.33336155506E+02 -0.10219247016E+03  0.11414872551E+03  0.00000000000E+00 0.  1.
</event>
<event>
 7    1  0.5889087E-006  0.3071033E+02  0.7818608E-02  0.1657631E+00
          2   -1    0    0  502    0  0.00000000000E+00  0.00000000000E+00  0.14055295246E+04  0.14055295246E+04  0.00000000000E+00 0. -1.
          1   -1    0    0  501    0 -0.00000000000E+00 -0.00000000000E+00 -0.18153926847E+03  0.18153926847E+03  0.00000000000E+00 0. -1.
         25    2    1    2    0    0 -0.29906093148E+02 -0.18429843387E+02  0.51347131893E+03  0.52963385131E+03  0.12500075021E+03 0.  0.
          2    1    1    2  501    0  0.30630298107E+02 -0.22955415355E+01 -0.17197541377E+03  0.17469695938E+03  0.00000000000E+00 0. -1.
          1    1    1    2  502    0 -0.72420495940E+00  0.20725384922E+02  0.88249435095E+03  0.88273798236E+03  0.00000000000E+00 0. -1.
         22    1    3    3    0    0 -0.38570283405E+02 -0.11587174519E+02  0.42563996588E+02  0.58597126046E+02  0.00000000000E+00 0.  1.
         22    1    3    3    0    0  0.86641902571E+01 -0.68426688673E+01  0.47090732234E+03  0.47103672526E+03  0.00000000000E+00 0.  1.
</event>
<event>
 7    1  0.5889087E-006  0.1115572E+03  0.7818608E-02  0.1418237E+00
          2   -1    0    0  502    0  0.00000000000E+00  0.00000000000E+00  0.14762858078E+04  0.14762858078E+04  0.00000000000E+00 0. -1.
          1   -1    0    0  501    0 -0.00000000000E+00 -0.00000000000E+00 -0.37860898504E+03  0.37860898504E+03  0.00000000000E+00 0. -1.
         25    2    1    2    0    0  0.84968474586E+02 -0.64836697528E+02  0.27967110452E+03  0.32444461945E+03  0.12499978148E+03 0.  0.
          2    1    1    2  501    0 -0.10280623462E+03  0.43896689224E+02 -0.34728608221E+03  0.36483374857E+03  0.00000000000E+00 0. -1.
          1    1    1    2  502    0  0.17837760035E+02  0.20940008304E+02  0.11652918004E+04  0.11656164248E+04  0.00000000000E+00 0. -1.
         22    1    3    3    0    0 -0.28122054259E+02  0.51999441098E+01  0.75792790904E+02  0.81008866845E+02  0.00000000000E+00 0. -1.
         22    1    3    3    0    0  0.11309052884E+03 -0.70036641638E+02  0.20387831361E+03  0.24343575261E+03  0.00000000000E+00 0. -1.
</event>
<event>
 7    1  0.5889087E-006  0.8966033E+02  0.7818608E-02  0.1307402E+00
          2   -1    0    0  502    0  0.00000000000E+00  0.00000000000E+00  0.40142979131E+03  0.40142979131E+03  0.00000000000E+00 0. -1.
          1   -1    0    0  501    0 -0.00000000000E+00 -0.00000000000E+00 -0.96441158205E+03  0.96441158205E+03  0.00000000000E+00 0. -1.
         25    2    1    2    0    0  0.13557322731E+03  0.30370554149E+02 -0.26268995428E+03  0.32238699476E+03  0.12499956716E+03 0.  0.
          2    1    1    2  501    0 -0.56725497052E+02 -0.66327192371E+02 -0.66392543419E+03  0.66963726048E+03  0.00000000000E+00 0. -1.
          1    1    1    2  502    0 -0.78847730254E+02  0.35956638222E+02  0.36363359773E+03  0.37381711811E+03  0.00000000000E+00 0. -1.
         22    1    3    3    0    0  0.25828597349E+01 -0.70540161843E+01  0.12431707103E+02  0.14525069715E+02  0.00000000000E+00 0.  1.
         22    1    3    3    0    0  0.13299036757E+03  0.37424570333E+02 -0.27512166138E+03  0.30786192505E+03  0.00000000000E+00 0.  1.
</event>
<event>
 7    1  0.5889087E-006  0.4642316E+02  0.7818608E-02  0.1496701E+00
          2   -1    0    0  502    0  0.00000000000E+00  0.00000000000E+00  0.67157638232E+02  0.67157638232E+02  0.00000000000E+00 0. -1.
          1   -1    0    0  501    0 -0.00000000000E+00 -0.00000000000E+00 -0.22617430109E+04  0.22617430109E+04  0.00000000000E+00 0. -1.
         25    2    1    2    0    0 -0.11417653688E+02 -0.44946790180E+02 -0.15402576093E+04  0.15460170085E+04  0.12499804318E+03 0.  0.
          2    1    1    2  501    0 -0.29489937803E+02  0.22826650667E+02 -0.70963990116E+03  0.71061909750E+03  0.00000000000E+00 0. -1.
          1    1    1    2  502    0  0.40907591491E+02  0.22120139513E+02  0.55312137766E+02  0.72264543159E+02  0.00000000000E+00 0. -1.
         22    1    3    3    0    0  0.17767658725E+02  0.37929660628E+02 -0.67850333207E+03  0.67979491061E+03  0.00000000000E+00 0. -1.
         22    1    3    3    0    0 -0.29185312414E+02 -0.82876450809E+02 -0.86175427720E+03  0.86622209787E+03  0.00000000000E+00 0. -1.
</event>
<event>
 7    1  0.5889087E-006  0.6579099E+02  0.7818608E-02  0.1415793E+00
          2   -1    0    0  502    0  0.00000000000E+00  0.00000000000E+00  0.40255461465E+02  0.40255461465E+02  0.00000000000E+00 0. -1.
          1   -1    0    0  501    0 -0.00000000000E+00 -0.00000000000E+00 -0.10134287326E+04  0.10134287326E+04  0.00000000000E+00 0. -1.
         25    2    1    2    0    0  0.77002577521E+02  0.51254734804E+02 -0.15024546925E+03  0.21623011415E+03  0.12500126579E+03 0.  0.
          2    1    1    2  501    0 -0.26071284304E+02 -0.39743393692E+02 -0.72429014244E+03  0.72584809681E+03  0.00000000000E+00 0. -1.
          1    1    1    2  502    0 -0.50931293217E+02 -0.11511341112E+02 -0.98637659404E+02  0.11160598306E+03  0.00000000000E+00 0. -1.
         22    1    3    3    0    0  0.10468874661E+01  0.64917240505E+02 -0.25939429233E+02  0.69915649729E+02  0.00000000000E+00 0. -1.
         22    1    3    3    0    0  0.75955690055E+02 -0.13662505700E+02 -0.12430604002E+03  0.14631446442E+03  0.00000000000E+00 0. -1.
</event>
<event>
 7    1  0.5889087E-006  0.1737129E+03  0.7818608E-02  0.1272702E+00
          2   -1    0    0  502    0  0.00000000000E+00  0.00000000000E+00  0.91147262674E+03  0.91147262674E+03  0.00000000000E+00 0. -1.
          1   -1    0    0  501    0 -0.00000000000E+00 -0.00000000000E+00 -0.13468060422E+04  0.13468060422E+04  0.00000000000E+00 0. -1.
         25    2    1    2    0    0 -0.13829793025E+03 -0.41358433295E+02 -0.98956831103E+02  0.21506800483E+03  0.12499981905E+03 0.  0.
          2    1    1    2  501    0  0.14510243081E+03  0.10288868013E+03 -0.11820074681E+04  0.11953168829E+04  0.00000000000E+00 0. -1.
          1    1    1    2  502    0 -0.68045005599E+01 -0.61530246839E+02  0.84563088379E+03  0.84789378116E+03  0.00000000000E+00 0. -1.
         22    1    3    3    0    0 -0.10936047676E+03 -0.63887036047E+02 -0.20284821278E+02  0.12826823936E+03  0.00000000000E+00 0. -1.
         22    1    3    3    0    0 -0.28937453485E+02  0.22528602752E+02 -0.78672009825E+02  0.86799765473E+02  0.00000000000E+00 0. -1.
</event>
<event>
 7    1  0.5889087E-006  0.1361169E+03  0.7818608E-02  0.1296520E+00
          2   -1    0    0  502    0  0.00000000000E+00  0.00000000000E+00  0.43375019109E+04  0.43375019109E+04  0.00000000000E+00 0. -1.
          1   -1    0    0  501    0 -0.00000000000E+00 -0.00000000000E+00 -0.51531626858E+03  0.51531626858E+03  0.00000000000E+00 0. -1.
         25    2    1    2    0    0  0.17763041329E+03 -0.30691788808E+02  0.27889953519E+04  0.27976088385E+04  0.12500236095E+03 0.  0.
          2    1    1    2  501    0 -0.12191078506E+03  0.60275407572E+02 -0.50130146254E+03  0.51942133246E+03  0.00000000000E+00 0. -1.
          1    1    1    2  502    0 -0.55719628235E+02 -0.29583618764E+02  0.15344917529E+04  0.15357880086E+04  0.00000000000E+00 0. -1.
         22    1    3    3    0    0  0.70945045960E+02  0.46468909884E+02  0.87948802583E+03  0.88356762430E+03  0.00000000000E+00 0. -1.
         22    1    3    3    0    0  0.10668536733E+03 -0.77160698692E+02  0.19095073261E+04  0.19140412142E+04  0.00000000000E+00 0. -1.
</event>
<event>
 7    1  0.5889087E-006  0.1252749E+03  0.7818608E-02  0.1317332E+00
          2   -1    0    0  502    0  0.00000000000E+00  0.00000000000E+00  0.11588158355E+04  0.11588158355E+04  0.00000000000E+00 0. -1.
          1   -1    0    0  501    0 -0.00000000000E+00 -0.00000000000E+00 -0.14914792356E+03  0.14914792356E+03  0.00000000000E+00 0. -1.
         25    2    1    2    0    0  0.13345016861E+03 -0.36621930585E+02  0.20537293211E+03  0.27740402062E+03  0.12499934443E+03 0.  0.
          2    1    1    2  501    0 -0.12342133821E+03 -0.19181137493E+02 -0.77467693538E+02  0.14697614195E+03  0.00000000000E+00 0. -1.
          1    1    1    2  502    0 -0.10028830402E+02  0.55803068078E+02  0.88176267333E+03  0.88358359646E+03  0.00000000000E+00 0. -1.
         22    1    3    3    0    0  0.21824215844E+02 -0.66286323957E+02  0.62486004329E+02  0.93673229249E+02  0.00000000000E+00 0. -1.
         22    1    3    3    0    0  0.11162595277E+03  0.29664393371E+02  0.14288692778E+03  0.18373079137E+03  0.00000000000E+00 0. -1.
</event>
<event>
 7    1  0.5889087E-006  0.4690624E+02  0.7818608E-02  0.1552645E+00
          2   -1    0    0  502    0  0.00000000000E+00  0.00000000000E+00  0.79794960436E+03  0.79794960436E+03  0.00000000000E+00 0. -1.
          1   -1    0    0  501    0 -0.00000000000E+00 -0.00000000000E+00 -0.10176950554E+04  0.10176950554E+04  0.00000000000E+00 0. -1.
         25    2    1    2    0    0  0.42937900144E+02 -0.53695294805E+02  0.40106460453E+03  0.42568396669E+03  0.12500869784E+03 0.  0.
          2    1    1    2  501    0 -0.36841878526E+02  0.28989394253E+02 -0.10044171148E+04  0.10055105417E+04  0.00000000000E+00 0. -1.
          1    1    1    2  502    0 -0.60960216180E+01  0.24705900552E+02  0.38360705922E+03  0.38445015136E+03  0.00000000000E+00 0. -1.
         22    1    3    3    0    0  0.39040894964E+02 -0.81602168704E+02  0.16697522663E+03  0.18990479648E+03  0.00000000000E+00 0. -1.
         22    1    3    3    0    0  0.38970051792E+01  0.27906873899E+02  0.23408937791E+03  0.23577917022E+03  0.00000000000E+00 0. -1.
</event>
<event>
 7    1  0.7902361E-006  0.8600392E+02  0.7818608E-02  0.1385144E+00
          2   -1    0    0  502    0  0.00000000000E+00  0.00000000000E+00  0.77350333252E+03  0.77350333252E+03  0.00000000000E+00 0. -1.
          1   -1    0    0  501    0 -0.00000000000E+00 -0.00000000000E+00 -0.14587512541E+04  0.14587512541E+04  0.00000000000E+00 0. -1.
         25    2    1    2    0    0 -0.38904137652E+02 -0.97347078492E+02 -0.52116795597E+03  0.54610532398E+03  0.12500000377E+03 0.  0.
          2    1    1    2  501    0  0.44868314161E+02  0.11588840237E+02 -0.92210327260E+03  0.92326697773E+03  0.00000000000E+00 0. -1.
          1    1    1    2  502    0 -0.59641765090E+01  0.85758238254E+02  0.75802330694E+03  0.76288228495E+03  0.00000000000E+00 0. -1.
         22    1    3    3    0    0 -0.67905811405E+02 -0.30566412107E+02 -0.38043597256E+03  0.38765581898E+03  0.00000000000E+00 0.  1.
         22    1    3    3    0    0  0.29001673752E+02 -0.66780666385E+02 -0.14073198341E+03  0.15844950501E+03  0.00000000000E+00 0.  1.
</event>
<event>
 7    1  0.5889087E-006  0.1766631E+03  0.7818608E-02  0.1253654E+00
          2   -1    0    0  502    0  0.00000000000E+00  0.00000000000E+00  0.10517313523E+04  0.10517313523E+04  0.00000000000E+00 0. -1.
          1   -1    0    0  501    0 -0.00000000000E+00 -0.00000000000E+00 -0.48427181580E+03  0.48427181580E+03  0.00000000000E+00 0. -1.
         25    2    1    2    0    0  0.12720656438E+03 -0.29418821175E+02  0.10340852392E+03  0.20823989842E+03  0.12499422152E+03 0.  0.
          2    1    1    2  501    0 -0.18226249281E+03 -0.19021256018E+02 -0.41081265378E+03  0.44983159179E+03  0.00000000000E+00 0. -1.
          1    1    1    2  502    0  0.55055928432E+02  0.48440077193E+02  0.87486366640E+03  0.87793167794E+03  0.00000000000E+00 0. -1.
         22    1    3    3    0    0  0.15034582593E+03 -0.13128124630E+02  0.76539339754E+02  0.16921727323E+03  0.00000000000E+00 0. -1.
         22    1    3    3    0    0 -0.23139261544E+02 -0.16290696545E+02  0.26869184168E+02  0.39022625188E+02  0.00000000000E+00 0. -1.
</event>
<event>
 7    1  0.5889087E-006  0.6810977E+02  0.7818608E-02  0.1442406E+00
          2   -1    0    0  502    0  0.00000000000E+00  0.00000000000E+00  0.42031582554E+02  0.42031582554E+02  0.00000000000E+00 0. -1.
          1   -1    0    0  501    0 -0.00000000000E+00 -0.00000000000E+00 -0.11839279273E+04  0.11839279273E+04  0.00000000000E+00 0. -1.
         25    2    1    2    0    0 -0.64411834996E+02  0.73480930770E+02 -0.51545125448E+03  0.53931722387E+03  0.12499896216E+03 0.  0.
          2    1    1    2  501    0  0.96380939647E+01 -0.36255862441E+02 -0.61884575747E+03  0.61998181583E+03  0.00000000000E+00 0. -1.
          1    1    1    2  502    0  0.54773741031E+02 -0.37225068330E+02 -0.75993327595E+01  0.66660470124E+02  0.00000000000E+00 0. -1.
         22    1    3    3    0    0 -0.58185144570E+02  0.94818220693E+02 -0.25869902033E+03  0.28160466818E+03  0.00000000000E+00 0. -1.
         22    1    3    3    0    0 -0.62266904265E+01 -0.21337289923E+02 -0.25675223415E+03  0.25771255569E+03  0.00000000000E+00 0. -1.
</event>
<event>
 7    1  0.5889087E-006  0.1991188E+03  0.7818608E-02  0.1331180E+00
          2   -1    0    0  502    0  0.00000000000E+00  0.00000000000E+00  0.15056461106E+04  0.15056461106E+04  0.00000000000E+00 0. -1.
          1   -1    0    0  501    0 -0.00000000000E+00 -0.00000000000E+00 -0.69652470806E+03  0.69652470806E+03  0.00000000000E+00 0. -1.
         25    2    1    2    0    0 -0.46909327937E+02  0.17357633523E+03  0.14745740743E+03  0.26400385543E+03  0.12500047789E+03 0.  0.
          2    1    1    2  501    0  0.76011206529E+02 -0.18574973258E+03 -0.62227522034E+03  0.65384028364E+03  0.00000000000E+00 0. -1.
          1    1    1    2  502    0 -0.29101878592E+02  0.12173397342E+02  0.12839392154E+04  0.12843266796E+04  0.00000000000E+00 0. -1.
         22    1    3    3    0    0 -0.28337903838E+02  0.16051790451E+03  0.60071617220E+02  0.17371710814E+03  0.00000000000E+00 0. -1.
         22    1    3    3    0    0 -0.18571424099E+02  0.13058430721E+02  0.87385790210E+02  0.90286747292E+02  0.00000000000E+00 0. -1.
</event>
<event>
 7    1  0.5889087E-006  0.8465045E+02  0.7818608E-02  0.1391086E+00
          2   -1    0    0  502    0  0.00000000000E+00  0.00000000000E+00  0.41102736270E+02  0.41102736270E+02  0.00000000000E+00 0. -1.
          1   -1    0    0  501    0 -0.00000000000E+00 -0.00000000000E+00 -0.66176019001E+03  0.66176019001E+03  0.00000000000E+00 0. -1.
         25    2    1    2    0    0 -0.24922484662E+02 -0.47411012695E+01 -0.40220154526E+03  0.42194384351E+03  0.12500766289E+03 0.  0.
          2    1    1    2  501    0  0.13491730636E+02  0.88616230724E+02 -0.13498457246E+03  0.16203610075E+03  0.00000000000E+00 0. -1.
          1    1    1    2  502    0  0.11430754027E+02 -0.83875129454E+02 -0.83471336025E+02  0.11888298203E+03  0.00000000000E+00 0. -1.
         22    1    3    3    0    0  0.43827759923E+02 -0.26223130616E+02 -0.22373062672E+03  0.22948620536E+03  0.00000000000E+00 0. -1.
         22    1    3    3    0    0 -0.68750244585E+02  0.21482029347E+02 -0.17847091854E+03  0.19245763815E+03  0.00000000000E+00 0. -1.
</event>
<event>
 7    1  0.5889087E-006  0.2661735E+02  0.7818608E-02  0.1680749E+00
          2   -1    0    0  502    0  0.00000000000E+00  0.00000000000E+00  0.23126747819E+04  0.23126747819E+04  0.00000000000E+00 0. -1.
          1   -1    0    0  501    0 -0.00000000000E+00 -0.00000000000E+00 -0.49276647006E+01  0.49276647006E+01  0.00000000000E+00 0. -1.
         25    2    1    2    0    0  0.16030048672E+02  0.88768518507E+01  0.95500576442E+03  0.96332587058E+03  0.12499984753E+03 0.  0.
          2    1    1    2  501    0  0.92202512224E+01 -0.18938044604E+02  0.18122714231E+03  0.18244708734E+03  0.00000000000E+00 0. -1.
          1    1    1    2  502    0 -0.25250299894E+02  0.10061192753E+02  0.11715142104E+04  0.11718294886E+04  0.00000000000E+00 0. -1.
         22    1    3    3    0    0 -0.32543770660E+02 -0.11598774423E+02  0.85397972872E+02  0.92121888537E+02  0.00000000000E+00 0. -1.
         22    1    3    3    0    0  0.48573819332E+02  0.20475626273E+02  0.86960779155E+03  0.87120398204E+03  0.00000000000E+00 0. -1.
</event>
<event>
 7    1  0.5889087E-006  0.3915434E+02  0.7818608E-02  0.1524114E+00
          2   -1    0    0  502    0  0.00000000000E+00  0.00000000000E+00  0.13154952772E+04  0.13154952772E+04  0.00000000000E+00 0. -1.
          1   -1    0    0  501    0 -0.00000000000E+00 -0.00000000000E+00 -0.31642030901E+02  0.31642030901E+02  0.00000000000E+00 0. -1.
         25    2    1    2    0    0  0.88825649737E+01  0.53236935560E+01  0.43975777837E+03  0.45730059752E+03  0.12501876329E+03 0.  0.
          2    1    1    2  501    0  0.16072795221E+01 -0.40514749624E+02 -0.41847999702E+01  0.40762002347E+02  0.00000000000E+00 0. -1.
          1    1    1    2  502    0 -0.10489844496E+02  0.35191056068E+02  0.84828026788E+03  0.84907470822E+03  0.00000000000E+00 0. -1.
         22    1    3    3    0    0 -0.43916605579E+02 -0.78300501256E+01  0.66367223072E+02  0.79966156772E+02  0.00000000000E+00 0. -1.
         22    1    3    3    0    0  0.52799170553E+02  0.13153743682E+02  0.37339055530E+03  0.37733444074E+03  0.00000000000E+00 0. -1.
</event>
<event>
 7    1  0.5889087E-006  0.6346547E+02  0.7818608E-02  0.1451932E+00
          2   -1    0    0  502    0  0.00000000000E+00  0.00000000000E+00  0.82442469224E+03  0.82442469224E+03  0.00000000000E+00 0. -1.
          1   -1    0    0  501    0 -0.00000000000E+00 -0.00000000000E+00 -0.58703041541E+02  0.58703041541E+02  0.00000000000E+00 0. -1.
         25    2    1    2    0    0  0.21009218098E+02  0.30886050873E+02  0.13256328334E+03  0.18599355473E+03  0.12500097171E+03 0.  0.
          2    1    1    2  501    0 -0.15395657034E+02  0.34217111450E+02 -0.18759604812E+02  0.41949490393E+02  0.00000000000E+00 0. -1.
          1    1    1    2  502    0 -0.56135610639E+01 -0.65103162322E+02  0.65191797217E+03  0.65518468865E+03  0.00000000000E+00 0. -1.
         22    1    3    3    0    0 -0.46724163058E+02  0.39360950718E+02  0.50595915106E+02  0.79324513742E+02  0.00000000000E+00 0.  1.
         22    1    3    3    0    0  0.67733381157E+02 -0.84748998460E+01  0.81967368235E+02  0.10666904099E+03  0.00000000000E+00 0.  1.
</event>
<event>
 7    1  0.5889087E-006  0.1404173E+03  0.7818608E-02  0.1262283E+00
          2   -1    0    0  502    0  0.00000000000E+00  0.00000000000E+00  0.11494103951E+04  0.11494103951E+04  0.00000000000E+00 0. -1.
          1   -1    0    0  501    0 -0.00000000000E+00 -0.00000000000E+00 -0.13980517444E+03  0.13980517444E+03  0.00000000000E+00 0. -1.
         25    2    1    2    0    0 -0.87798373984E+02 -0.28629806228E+02  0.68945419786E+02  0.17000762455E+03  0.12498360380E+03 0.  0.
          2    1    1    2  501    0 -0.54617959973E+02  0.64785102691E+02 -0.62532897785E+02  0.10531189101E+03  0.00000000000E+00 0. -1.
          1    1    1    2  502    0  0.14241633396E+03 -0.36155296464E+02  0.10031926986E+04  0.10138960540E+04  0.00000000000E+00 0. -1.
         22    1    3    3    0    0 -0.32166207491E+02 -0.66416875559E+02  0.71438159453E+02  0.10270967281E+03  0.00000000000E+00 0.  1.
         22    1    3    3    0    0 -0.55632166493E+02  0.37787069331E+02 -0.24927396671E+01  0.67297951739E+02  0.00000000000E+00 0.  1.
</event>
<event>
 7    1  0.5889087E-006  0.6843593E+02  0.7818608E-02  0.1406241E+00
          2   -1    0    0  502    0  0.00000000000E+00  0.00000000000E+00  0.29722591337E+03  0.29722591337E+03  0.00000000000E+00 0. -1.
          1   -1    0    0  501    0 -0.00000000000E+00 -0.00000000000E+00 -0.25211032433E+04  0.25211032433E+04  0.00000000000E+00 0. -1.
         25    2    1    2    0    0  0.15880040590E+01 -0.10660609886E+02 -0.15339726979E+04  0.15390953748E+04  0.12500465751E+03 0.  0.
          2    1    1    2  501    0 -0.69305165810E+02  0.20553179447E+02 -0.97924530708E+03  0.98190987908E+03  0.00000000000E+00 0. -1.
          1    1    1    2  502    0  0.67717161751E+02 -0.98925695610E+01  0.28934067506E+03  0.29732390280E+03  0.00000000000E+00 0. -1.
         22    1    3    3    0    0 -0.37309764634E+02 -0.68071409398E+01 -0.15512827794E+03  0.15969702039E+03  0.00000000000E+00 0.  1.
         22    1    3    3    0    0  0.38897768693E+02 -0.38534689463E+01 -0.13788444200E+04  0.13793983544E+04  0.00000000000E+00 0.  1.
</event>
<event>
 7    1  0.5889087E-006  0.2088140E+03  0.7818608E-02  0.1342486E+00
          2   -1    0    0  502    0  0.00000000000E+00  0.00000000000E+00  0.14467481994E+04  0.14467481994E+04  0.00000000000E+00 0. -1.
          1   -1    0    0  501    0 -0.00000000000E+00 -0.00000000000E+00 -0.23395040861E+03  0.23395040861E+03  0.00000000000E+00 0. -1.
         25    2    1    2    0    0 -0.22210087434E+03 -0.12351628129E+02  0.61941780011E+03  0.66991362036E+03  0.12499794619E+03 0.  0.
          2    1    1    2  501    0  0.21931485913E+02 -0.16192520659E+02 -0.19499657861E+03  0.19689300005E+03  0.00000000000E+00 0. -1.
          1    1    1    2  502    0  0.20016938842E+03  0.28544148788E+02  0.78837656927E+03  0.81389198759E+03  0.00000000000E+00 0. -1.
         22    1    3    3    0    0 -0.59898208828E+02 -0.49731583518E+02  0.29737095499E+03  0.30739308823E+03  0.00000000000E+00 0. -1.
         22    1    3    3    0    0 -0.16220266551E+03  0.37379955389E+02  0.32204684512E+03  0.36252053213E+03  0.00000000000E+00 0. -1.
</event>
<event>
 7    1  0.5889087E-006  0.4754642E+02  0.7818608E-02  0.1525066E+00
          2   -1    0    0  502    0  0.00000000000E+00  0.00000000000E+00  0.17855801866E+04  0.17855801866E+04  0.00000000000E+00 0. -1.
          1   -1    0    0  501    0 -0.00000000000E+00 -0.00000000000E+00 -0.48171323613E+03  0.48171323613E+03  0.00000000000E+00 0. -1.
         25    2    1    2    0    0 -0.59669650863E+02  0.82325024271E+01  0.11274503707E+04  0.11359564903E+04  0.12499827299E+03 0.  0.
          2    1    1    2  501    0  0.22724749220E+02  0.19660681807E+02 -0.47616665055E+03  0.47711386034E+03  0.00000000000E+00 0. -1.
          1    1    1    2  502    0  0.36944901642E+02 -0.27893184234E+02  0.65258323033E+03  0.65422307204E+03  0.00000000000E+00 0. -1.
         22    1    3    3    0    0 -0.30571285855E+02 -0.15503043486E+02  0.10426567899E+04  0.10432200772E+04  0.00000000000E+00 0. -1.
         22    1    3    3    0    0 -0.29098365007E+02  0.23735545913E+02  0.84793580804E+02  0.92736413190E+02  0.00000000000E+00 0. -1.
</event>
<event>
 7    1  0.5889087E-006  0.2287072E+02  0.7818608E-02  0.1704266E+00
          2   -1    0    0  502    0  0.00000000000E+00  0.00000000000E+00  0.85223440119E+02  0.85223440119E+02  0.00000000000E+00 0. -1.
          1   -1    0    0  501    0 -0.00000000000E+00 -0.00000000000E+00 -0.13214294030E+04  0.13214294030E+04  0.00000000000E+00 0. -1.
         25    2    1    2    0    0 -0.13615219567E+02  0.25031098904E+02 -0.10561597117E+04  0.10639128117E+04  0.12500081674E+03 0.  0.
          2    1    1    2  501    0 -0.86558835764E+01 -0.19802488171E+02 -0.25932635821E+03  0.26022533105E+03  0.00000000000E+00 0. -1.
          1    1    1    2  502    0  0.22271103143E+02 -0.52286107328E+01  0.79280107026E+02  0.82514700360E+02  0.00000000000E+00 0. -1.
         22    1    3    3    0    0  0.18688516263E+01  0.24043224564E+02 -0.34266487553E+02  0.41901806919E+02  0.00000000000E+00 0. -1.
         22    1    3    3    0    0 -0.15484071193E+02  0.98787434003E+00 -0.10218932242E+04  0.10220110048E+04  0.00000000000E+00 0. -1.
</event>
<event>
 7    1  0.5889087E-006  0.8340697E+02  0.7818608E-02  0.1440573E+00
          2   -1    0    0  502    0  0.00000000000E+00  0.00000000000E+00  0.51955004546E+03  0.51955004546E+03  0.00000000000E+00 0. -1.
          1   -1    0    0  501    0 -0.00000000000E+00 -0.00000000000E+00 -0.10531092033E+03  0.10531092033E+03  0.00000000000E+00 0. -1.
         25    2    1    2    0    0  0.42249879313E+02 -0.41363235273E+02  0.39863870922E+02  0.14391047048E+03  0.12500050309E+03 0.  0.
          2    1    1    2  501    0  0.36296016783E+01 -0.30843400490E+02 -0.44034511900E+02  0.53884391064E+02  0.00000000000E+00 0. -1.
          1    1    1    2  502    0 -0.45879480991E+02  0.72206635763E+02  0.41840976611E+03  0.42706610425E+03  0.00000000000E+00 0. -1.
         22    1    3    3    0    0  0.13523491403E+02 -0.59865139902E+02  0.73641977389E+02  0.95863760770E+02  0.00000000000E+00 0. -1.
         22    1    3    3    0    0  0.28726387910E+02  0.18501904629E+02 -0.33778106466E+02  0.48046709707E+02  0.00000000000E+00 0. -1.
</event>
<event>
 7    1  0.5889087E-006  0.5754457E+02  0.7818608E-02  0.1481092E+00
          2   -1    0    0  502    0  0.00000000000E+00  0.00000000000E+00  0.48416511372E+02  0.48416511372E+02  0.00000000000E+00 0. -1.
          1   -1    0    0  501    0 -0.00000000000E+00 -0.00000000000E+00 -0.20286669877E+04  0.20286669877E+04  0.00000000000E+00 0. -1.
         25    2    1    2    0    0 -0.21108829926E+00  0.82020996701E+02 -0.15448390351E+04  0.15520567516E+04  0.12500010966E+03 0.  0.
          2    1    1    2  501    0 -0.45473882814E+01 -0.48813803913E+02 -0.47248904934E+03  0.47502564977E+03  0.00000000000E+00 0. -1.
          1    1    1    2  502    0  0.47584765807E+01 -0.33207192788E+02  0.37077608078E+02  0.50001097718E+02  0.00000000000E+00 0. -1.
         22    1    3    3    0    0  0.59435690360E+01  0.30155847785E+02 -0.71925680076E+02  0.78217674620E+02  0.00000000000E+00 0.  1.
         22    1    3    3    0    0 -0.61546573353E+01  0.51865148916E+02 -0.14729133550E+04  0.14738390770E+04  0.00000000000E+00 0.  1.
</event>
<event>
 7    1  0.6975132E-006  0.9506741E+02  0.7818608E-02  0.1353234E+00
          2   -1    0    0  502    0  0.00000000000E+00  0.00000000000E+00  0.23031993545E+04  0.23031993545E+04  0.00000000000E+00 0. -1.
          1   -1    0    0  501    0 -0.00000000000E+00 -0.00000000000E+00 -0.11377559025E+04  0.11377559025E+04  0.00000000000E+00 0. -1.
         25    2    1    2    0    0 -0.54741696095E+02 -0.13684856678E+02 -0.39290308229E+02  0.14266213151E+03  0.12499930741E+03 0.  0.
          2    1    1    2  501    0  0.93936490800E+02 -0.24351174484E+02 -0.10441983692E+04  0.10486978965E+04  0.00000000000E+00 0. -1.
          1    1    1    2  502    0 -0.39194794706E+02  0.38036031162E+02  0.22489321294E+04  0.22495952290E+04  0.00000000000E+00 0. -1.
         22    1    3    3    0    0 -0.62815879925E+01 -0.26220766302E+02 -0.75965719235E+02  0.80608792523E+02  0.00000000000E+00 0.  1.
         22    1    3    3    0    0 -0.48460108102E+02  0.12535909624E+02  0.36675411006E+02  0.62053338990E+02  0.00000000000E+00 0.  1.
</event>
<event>
 7    1  0.5913383E-006  0.4510961E+02  0.7818608E-02  0.1576530E+00
          2   -1    0    0  502    0  0.00000000000E+00  0.00000000000E+00  0.83715750439E+03  0.83715750439E+03  0.00000000000E+00 0. -1.
          1   -1    0    0  501    0 -0.00000000000E+00 -0.00000000000E+00 -0.16147891395E+04  0.16147891395E+04  0.00000000000E+00 0. -1.
         25    2    1    2    0    0 -0.19533065117E+02 -0.20039099356E+02 -0.65348744491E+03  0.66592289528E+03  0.12499742266E+03 0.  0.
          2    1    1    2  501    0 -0.22481871565E+02  0.35689547821E+01 -0.95433543097E+03  0.95460687553E+03  0.00000000000E+00 0. -1.
          1    1    1    2  502    0  0.42014936683E+02  0.16470144574E+02  0.83019124078E+03  0.83141687308E+03  0.00000000000E+00 0. -1.
         22    1    3    3    0    0  0.21221509632E+00 -0.71181675872E+02 -0.42717557587E+03  0.43306564010E+03  0.00000000000E+00 0.  1.
         22    1    3    3    0    0 -0.19745280214E+02  0.51142576517E+02 -0.22631186904E+03  0.23285725518E+03  0.00000000000E+00 0.  1.
</event>
<event>
 7    1  0.5889087E-006  0.9954903E+02  0.7818608E-02  0.1313443E+00
          2   -1    0    0  502    0  0.00000000000E+00  0.00000000000E+00  0.27527872771E+04  0.27527872771E+04  0.00000000000E+00 0. -1.
          1   -1    0    0  501    0 -0.00000000000E+00 -0.00000000000E+00 -0.44902241687E+03  0.44902241687E+03  0.00000000000E+00 0. -1.
         25    2    1    2    0    0 -0.70112673521E+02 -0.15646103601E+03 -0.97002294774E+01  0.21240562157E+03  0.12500484329E+03 0.  0.
          2    1    1    2  501    0  0.39786578009E+02  0.62263569904E+02 -0.33299502360E+03  0.34109442925E+03  0.00000000000E+00 0. -1.
          1    1    1    2  502    0  0.30326095512E+02  0.94197466108E+02  0.26464601133E+04  0.26483096432E+04  0.00000000000E+00 0. -1.
         22    1    3    3    0    0  0.27142039860E+02 -0.90945855646E+02 -0.32678663784E+01  0.94965877754E+02  0.00000000000E+00 0. -1.
         22    1    3    3    0    0 -0.97254713380E+02 -0.65515180366E+02 -0.64323630989E+01  0.11743974382E+03  0.00000000000E+00 0. -1.
</event>
<event>
 7    1  0.5889087E-006  0.8862440E+02  0.7818608E-02  0.1351427E+00
          2   -1    0    0  502    0  0.00000000000E+00  0.00000000000E+00  0.44553322073E+03  0.44553322073E+03  0.00000000000E+00 0. -1.
          1   -1    0    0  501    0 -0.00000000000E+00 -0.00000000000E+00 -0.71806135880E+03  0.71806135880E+03  0.00000000000E+00 0. -1.
         25    2    1    2    0    0  0.15016166877E+02 -0.45522629343E+02 -0.20442949551E+03  0.24436695950E+03  0.12500398879E+03 0.  0.
          2    1    1    2  501    0  0.10215287960E+02  0.99401369860E+02 -0.48648046981E+03  0.49663692165E+03  0.00000000000E+00 0. -1.
          1    1    1    2  502    0 -0.25231454837E+02 -0.53878740517E+02  0.41838182724E+03  0.42259069838E+03  0.00000000000E+00 0. -1.
         22    1    3    3    0    0 -0.41320037591E+02 -0.34101436656E+02 -0.16794613625E+03  0.17628431062E+03  0.00000000000E+00 0.  1.
         22    1    3    3    0    0  0.56336204468E+02 -0.11421192687E+02 -0.36483359255E+02  0.68082648882E+02  0.00000000000E+00 0.  1.
</event>
<event>
 7    1  0.5889087E-006  0.4714016E+02  0.7818608E-02  0.1500370E+00
          2   -1    0    0  502    0  0.00000000000E+00  0.00000000000E+00  0.38483890868E+02  0.38483890868E+02  0.00000000000E+00 0. -1.
          1   -1    0    0  501    0 -0.00000000000E+00 -0.00000000000E+00 -0.62237184069E+03  0.62237184069E+03  0.00000000000E+00 0. -1.
         25    2    1    2    0    0  0.53981013475E+02 -0.13609807542E+01 -0.24361899698E+03  0.27908973053E+03  0.12500023965E+03 0.  0.
          2    1    1    2  501    0 -0.36885012729E+02 -0.30103530625E+02 -0.34258942986E+03  0.34588183556E+03  0.00000000000E+00 0. -1.
          1    1    1    2  502    0 -0.17096000746E+02  0.31464511379E+02  0.23204770169E+01  0.35884165469E+02  0.00000000000E+00 0. -1.
         22    1    3    3    0    0 -0.36961295906E+02  0.14237318711E+02 -0.10821520117E+03  0.11523614191E+03  0.00000000000E+00 0. -1.
         22    1    3    3    0    0  0.90942309381E+02 -0.15598299465E+02 -0.13540379582E+03  0.16385358862E+03  0.00000000000E+00 0. -1.
</event>
<event>
 7    1  0.5889087E-006  0.1340260E+03  0.7818608E-02  0.1344445E+00
          2   -1    0    0  502    0  0.00000000000E+00  0.00000000000E+00  0.21548893124E+04  0.21548893124E+04  0.00000000000E+00 0. -1.
          1   -1    0    0  501    0 -0.00000000000E+00 -0.00000000000E+00 -0.22379677511E+02  0.22379677511E+02  0.00000000000E+00 0. -1.
         25    2    1    2    0    0 -0.11727770199E+03  0.49036130458E+02  0.10416558190E+04  0.10568019380E+04  0.12499955752E+03 0.  0.
          2    1    1    2  501    0 -0.22506601134E+02 -0.35179169200E+02  0.32730087592E+02  0.53060151470E+02  0.00000000000E+00 0. -1.
          1    1    1    2  502    0  0.13978430313E+03 -0.13856961258E+02  0.10581237283E+04  0.10674069005E+04  0.00000000000E+00 0. -1.
         22    1    3    3    0    0 -0.54698129037E+02  0.50540812690E+02  0.88462359075E+03  0.88775286897E+03  0.00000000000E+00 0. -1.
         22    1    3    3    0    0 -0.62579572957E+02 -0.15046822316E+01  0.15703222825E+03  0.16904906900E+03  0.00000000000E+00 0. -1.
</event>
<event>
 7    1  0.5889087E-006  0.7711081E+02  0.7818608E-02  0.1343248E+00
          2   -1    0    0  502    0  0.00000000000E+00  0.00000000000E+00  0.13364620266E+03  0.13364620266E+03  0.00000000000E+00 0. -1.
          1   -1    0    0  501    0 -0.00000000000E+00 -0.00000000000E+00 -0.31255648220E+03  0.31255648220E+03  0.00000000000E+00 0. -1.
         25    2    1    2    0    0 -0.42349857586E+01  0.29680983161E+02 -0.61869122363E+02  0.14265930902E+03  0.12499997713E+03 0.  0.
          2    1    1    2  501    0  0.72488357779E+02 -0.56517181459E+02 -0.18307628700E+03  0.20485526763E+03  0.00000000000E+00 0. -1.
          1    1    1    2  502    0 -0.68253372020E+02  0.26836198298E+02  0.66035129820E+02  0.98688108207E+02  0.00000000000E+00 0. -1.
         22    1    3    3    0    0  0.67400154973E+01 -0.44612856893E+02  0.37046987242E+00  0.45120638925E+02  0.00000000000E+00 0. -1.
         22    1    3    3    0    0 -0.10975001256E+02  0.74293840054E+02 -0.62239592235E+02  0.97538670096E+02  0.00000000000E+00 0. -1.
</event>
<event>
 7    1  0.5889087E-006  0.6138296E+02  0.7818608E-02  0.1439204E+00
          2   -1    0    0  502    0  0.00000000000E+00  0.00000000000E+00  0.60589858138E+03  0.60589858138E+03  0.00000000000E+00 0. -1.
          1   -1    0    0  501    0 -0.00000000000E+00 -0.00000000000E+00 -0.30777176857E+03  0.30777176857E+03  0.00000000000E+00 0. -1.
         25    2    1    2    0    0 -0.33013171272E+02  0.48013449275E+02  0.87968280871E+02  0.16357974450E+03  0.12499901433E+03 0.  0.
          2    1    1    2  501    0 -0.27365615231E+02 -0.32690876586E+02 -0.26624248356E+03  0.26963425295E+03  0.00000000000E+00 0. -1.
          1    1    1    2  502    0  0.60378786504E+02 -0.15322572689E+02  0.47640101550E+03  0.48045635251E+03  0.00000000000E+00 0. -1.
         22    1    3    3    0    0 -0.32107908579E+02  0.90089855020E+02  0.57126901761E+02  0.11140279474E+03  0.00000000000E+00 0.  1.
         22    1    3    3    0    0 -0.90526269322E+00 -0.42076405745E+02  0.30841379110E+02  0.52176949761E+02  0.00000000000E+00 0.  1.
</event>
<event>
 7    1  0.5889087E-006  0.3366569E+02  0.7818608E-02  0.1584920E+00
          2   -1    0    0  502    0  0.00000000000E+00  0.00000000000E+00  0.12173626681E+04  0.12173626681E+04  0.00000000000E+00 0. -1.
          1   -1    0    0  501    0 -0.00000000000E+00 -0.00000000000E+00 -0.15853451753E+03  0.15853451753E+03  0.00000000000E+00 0. -1.
         25    2    1    2    0    0 -0.30108398404E+02  0.20631193872E+02  0.79501049430E+03  0.80560462182E+03  0.12499983536E+03 0.  0.
          2    1    1    2  501    0  0.32669872578E+02  0.82182089535E+01 -0.15087476826E+03  0.15458995838E+03  0.00000000000E+00 0. -1.
          1    1    1    2  502    0 -0.25614741744E+01 -0.28849402826E+02  0.41469242453E+03  0.41570260542E+03  0.00000000000E+00 0. -1.
         22    1    3    3    0    0  0.71427302999E-01  0.70766038267E+02  0.48261306492E+03  0.48777372593E+03  0.00000000000E+00 0.  1.
         22    1    3    3    0    0 -0.30179825707E+02 -0.50134844395E+02  0.31239742938E+03  0.31783089589E+03  0.00000000000E+00 0.  1.
</event>
<event>
 7    1  0.5889087E-006  0.1021425E+03  0.7818608E-02  0.1319242E+00
          2   -1    0    0  502    0  0.00000000000E+00  0.00000000000E+00  0.72253992749E+02  0.72253992749E+02  0.00000000000E+00 0. -1.
          1   -1    0    0  501    0 -0.00000000000E+00 -0.00000000000E+00 -0.21383532326E+04  0.21383532326E+04  0.00000000000E+00 0. -1.
         25    2    1    2    0    0 -0.22133529924E+02  0.42375248447E+02 -0.79318025980E+02  0.15556824535E+03  0.12499829954E+03 0.  0.
          2    1    1    2  501    0 -0.77769271842E+02 -0.66219589413E+02 -0.19391236195E+04  0.19418119130E+04  0.00000000000E+00 0. -1.
          1    1    1    2  502    0  0.99902801766E+02  0.23844340965E+02 -0.47657594309E+02  0.11322706696E+03  0.00000000000E+00 0. -1.
         22    1    3    3    0    0 -0.24227286439E+02  0.64770643261E+02 -0.10225460516E+03  0.12344311205E+03  0.00000000000E+00 0. -1.
         22    1    3    3    0    0  0.20937565143E+01 -0.22395394814E+02  0.22936579180E+02  0.32125133302E+02  0.00000000000E+00 0. -1.
</event>
<event>
 7    1  0.5889087E-006  0.7206023E+02  0.7818608E-02  0.1353293E+00
          2   -1    0    0  502    0  0.00000000000E+00  0.00000000000E+00  0.27565902569E+04  0.27565902569E+04  0.00000000000E+00 0. -1.
          1   -1    0    0  501    0 -0.00000000000E+00 -0.00000000000E+00 -0.25266318331E+02  0.25266318331E+02  0.00000000000E+00 0. -1.
         25    2    1    2    0    0 -0.85294967759E+01 -0.40991371422E+02  0.96983281060E+03  0.97875145633E+03  0.12500275155E+03 0.  0.
          2    1    1    2  501    0  0.75027917943E+02  0.13340060381E+02  0.52364459120E+02  0.92461788112E+02  0.00000000000E+00 0. -1.
          1    1    1    2  502    0 -0.66498421168E+02  0.27651311041E+02  0.17091266689E+04  0.17106433308E+04  0.00000000000E+00 0. -1.
         22    1    3    3    0    0 -0.59377459015E+02 -0.92734904267E+00  0.63114096786E+03  0.63392859529E+03  0.00000000000E+00 0.  1.
         22    1    3    3    0    0  0.50847962240E+02 -0.40064022379E+02  0.33869184275E+03  0.34482286104E+03  0.00000000000E+00 0.  1.
</event>
<event>
 7    1  0.5889087E-006  0.9988176E+02  0.7818608E-02  0.1299320E+00
          2   -1    0    0  502    0  0.00000000000E+00  0.00000000000E+00  0.18520305657E+03  0.18520305657E+03  0.00000000000E+00 0. -1.
          1   -1    0    0  501    0 -0.00000000000E+00 -0.00000000000E+00 -0.92471850175E+03  0.92471850175E+03  0.00000000000E+00 0. -1.
         25    2    1    2    0    0 -0.10312268981E+03  0.13668434361E+03 -0.20035339483E+03  0.29169088485E+03  0.12500076217E+03 0.  0.
          2    1    1    2  501    0  0.34608227389E+02 -0.88477172479E+02 -0.66242000164E+03  0.66919817545E+03  0.00000000000E+00 0. -1.
          1    1    1    2  502    0  0.68514462420E+02 -0.48207171136E+02  0.12325795128E+03  0.14903249801E+03  0.00000000000E+00 0. -1.
         22    1    3    3    0    0 -0.81576779445E+02  0.13156285108E+03 -0.21515251253E+03  0.26505501009E+03  0.00000000000E+00 0. -1.
         22    1    3    3    0    0 -0.21545910365E+02  0.51214925364E+01  0.14799117702E+02  0.26635874756E+02  0.00000000000E+00 0. -1.
</event>
<event>
 7    1  0.5889087E-006  0.5823963E+03  0.7818608E-02  0.1237737E+00
          2   -1    0    0  502    0  0.00000000000E+00  0.00000000000E+00  0.47972662293E+03  0.47972662293E+03  0.00000000000E+00 0. -1.
          1   -1    0    0  501    0 -0.00000000000E+00 -0.00000000000E+00 -0.16461896963E+04  0.16461896963E+04  0.00000000000E+00 0. -1.
         25    2    1    2    0    0 -0.53286409349E+03  0.26886368166E+03 -0.16689652828E+03  0.63222716082E+03  0.12499964110E+03 0.  0.
          2    1    1    2  501    0  0.50790105857E+03 -0.27650918203E+03 -0.11785648195E+04  0.13127969556E+04  0.00000000000E+00 0. -1.
          1    1    1    2  502    0  0.24963034917E+02  0.76455003713E+01  0.17899827439E+03  0.18089220277E+03  0.00000000000E+00 0. -1.
         22    1    3    3    0    0 -0.32712180128E+03  0.12129265616E+03 -0.14590359207E+03  0.37816456668E+03  0.00000000000E+00 0.  1.
         22    1    3    3    0    0 -0.20574229221E+03  0.14757102550E+03 -0.20992936216E+02  0.25406259414E+03  0.00000000000E+00 0.  1.
</event>
<event>
 7    1  0.5889087E-006  0.7509080E+02  0.7818608E-02  0.1419459E+00
          2   -1    0    0  502    0  0.00000000000E+00  0.00000000000E+00  0.83128935804E+03  0.83128935804E+03  0.00000000000E+00 0. -1.
          1   -1    0    0  501    0 -0.00000000000E+00 -0.00000000000E+00 -0.46128915716E+03  0.46128915716E+03  0.00000000000E+00 0. -1.
         25    2    1    2    0    0  0.66556774027E+02 -0.79927304593E+02 -0.25405233828E+03  0.30163858554E+03  0.12500027005E+03 0.  0.
          2    1    1    2  501    0 -0.31125148812E+02  0.60344253335E+02 -0.17663188139E+03  0.18923272794E+03  0.00000000000E+00 0. -1.
          1    1    1    2  502    0 -0.35431625215E+02  0.19583051258E+02  0.80068442056E+03  0.80170720172E+03  0.00000000000E+00 0. -1.
         22    1    3    3    0    0  0.76660766143E+02 -0.64113712527E+02 -0.26263258771E+03  0.28100412333E+03  0.00000000000E+00 0. -1.
         22    1    3    3    0    0 -0.10103992116E+02 -0.15813592066E+02  0.85802494263E+01  0.20634462216E+02  0.00000000000E+00 0. -1.
</event>
<event>
 7    1  0.5889087E-006  0.1985055E+03  0.7818608E-02  0.1340813E+00
          2   -1    0    0  502    0  0.00000000000E+00  0.00000000000E+00  0.20559206759E+04  0.20559206759E+04  0.00000000000E+00 0. -1.
          1   -1    0    0  501    0 -0.00000000000E+00 -0.00000000000E+00 -0.63083898382E+02  0.63083898382E+02  0.00000000000E+00 0. -1.
         25    2    1    2    0    0  0.17549102569E+03 -0.94382929214E+01  0.37896069900E+03  0.43602987566E+03  0.12499863843E+03 0.  0.
          2    1    1    2  501    0  0.27095116340E+02 -0.10599413288E+02 -0.20740457077E+02  0.35730371553E+02  0.00000000000E+00 0. -1.
          1    1    1    2  502    0 -0.20258614203E+03  0.20037706210E+02  0.16346165356E+04  0.16472443271E+04  0.00000000000E+00 0. -1.
         22    1    3    3    0    0 -0.10818113971E+02  0.23989173952E+02  0.49816956534E+02  0.56340404819E+02  0.00000000000E+00 0.  1.
         22    1    3    3    0    0  0.18630913967E+03 -0.33427466874E+02  0.32914374246E+03  0.37968947084E+03  0.00000000000E+00 0.  1.
</event>
<event>
 7    1  0.5889087E-006  0.5418227E+02  0.7818608E-02  0.1475598E+00
          2   -1    0    0  502    0  0.00000000000E+00  0.00000000000E+00  0.11957156934E+04  0.11957156934E+04  0.00000000000E+00 0. -1.
          1   -1    0    0  501    0 -0.00000000000E+00 -0.00000000000E+00 -0.22876323314E+02  0.22876323314E+02  0.00000000000E+00 0. -1.
         25    2    1    2    0    0  0.21698618150E+02 -0.52236996827E+01  0.47717577297E+03  0.49377977037E+03  0.12499450486E+03 0.  0.
          2    1    1    2  501    0  0.37005654293E+02 -0.16265587904E+01  0.12495297416E+02  0.39092155231E+02  0.00000000000E+00 0. -1.
          1    1    1    2  502    0 -0.58704272443E+02  0.68502584731E+01  0.68316829969E+03  0.68572009111E+03  0.00000000000E+00 0. -1.
         22    1    3    3    0    0  0.28342739042E+02 -0.57405445976E+02  0.35552081548E+03  0.36123918160E+03  0.00000000000E+00 0.  1.
         22    1    3    3    0    0 -0.66441208914E+01  0.52181746293E+02  0.12165495749E+03  0.13254058877E+03  0.00000000000E+00 0.  1.
</event>
<event>
 7    1  0.5889087E-006  0.4917667E+02  0.7818608E-02  0.1552947E+00
          2   -1    0    0  502    0  0.00000000000E+00  0.00000000000E+00  0.35598542174E+03  0.35598542174E+03  0.00000000000E+00 0. -1.
          1   -1    0    0  501    0 -0.00000000000E+00 -0.00000000000E+00 -0.13692804503E+03  0.13692804503E+03  0.00000000000E+00 0. -1.
         25    2    1    2    0    0  0.56408392763E+02 -0.33003247708E+02  0.15040662535E+02  0.14187762192E+03  0.12502766470E+03 0.  0.
          2    1    1    2  501    0 -0.23988340336E+02 -0.33782160200E+01 -0.69298340077E+02  0.73410576575E+02  0.00000000000E+00 0. -1.
          1    1    1    2  502    0 -0.32420052427E+02  0.36381463728E+02  0.27331505425E+03  0.27762526827E+03  0.00000000000E+00 0. -1.
         22    1    3    3    0    0  0.60240344464E+02  0.24795385003E+02  0.42491461463E+02  0.77776825057E+02  0.00000000000E+00 0.  1.
         22    1    3    3    0    0 -0.38319517006E+01 -0.57798632711E+02 -0.27450798928E+02  0.64100796866E+02  0.00000000000E+00 0.  1.
</event>
<event>
 7    1  0.5889087E-006  0.7041354E+02  0.7818608E-02  0.1442631E+00
          2   -1    0    0  502    0  0.00000000000E+00  0.00000000000E+00  0.60991000325E+03  0.60991000325E+03  0.00000000000E+00 0. -1.
          1   -1    0    0  501    0 -0.00000000000E+00 -0.00000000000E+00 -0.60927318012E+03  0.60927318012E+03  0.00000000000E+00 0. -1.
         25    2    1    2    0    0  0.11296069149E+02 -0.90627514406E+02 -0.89894553524E+02  0.17901500531E+03  0.12499757529E+03 0.  0.
          2    1    1    2  501    0 -0.32676321788E+02  0.61382539874E+02 -0.47168629685E+03  0.47678456439E+03  0.00000000000E+00 0. -1.
          1    1    1    2  502    0  0.21380252639E+02  0.29244974532E+02  0.56221767351E+03  0.56338361366E+03  0.00000000000E+00 0. -1.
         22    1    3    3    0    0 -0.48788125160E+02 -0.10680266522E+02 -0.51913676018E+02  0.72037344533E+02  0.00000000000E+00 0. -1.
         22    1    3    3    0    0  0.60084194309E+02 -0.79947247884E+02 -0.37980877506E+02  0.10697766078E+03  0.00000000000E+00 0. -1.
</event>
<event>
 7    1  0.5889087E-006  0.2528728E+02  0.7818608E-02  0.1668841E+00
          2   -1    0    0  502    0  0.00000000000E+00  0.00000000000E+00  0.41957074887E+03  0.41957074887E+03  0.00000000000E+00 0. -1.
          1   -1    0    0  501    0 -0.00000000000E+00 -0.00000000000E+00 -0.30063042146E+04  0.30063042146E+04  0.00000000000E+00 0. -1.
         25    2    1    2    0    0 -0.32227043579E+02 -0.30273087045E+02 -0.16981241311E+04  0.17032925328E+04  0.12499938199E+03 0.  0.
          2    1    1    2  501    0  0.23092180300E+02  0.84420824389E+01 -0.13051442392E+04  0.13053758090E+04  0.00000000000E+00 0. -1.
          1    1    1    2  502    0  0.91348632790E+01  0.21831004606E+02  0.41653490456E+03  0.41720662172E+03  0.00000000000E+00 0. -1.
         22    1    3    3    0    0  0.12244974360E+02 -0.50172367198E+02 -0.30686326811E+03  0.31117884110E+03  0.00000000000E+00 0.  1.
         22    1    3    3    0    0 -0.44472017940E+02  0.19899280153E+02 -0.13912608630E+04  0.13921136917E+04  0.00000000000E+00 0.  1.
</event>
<event>
 7    1  0.5889087E-006  0.1145050E+03  0.7818608E-02  0.1392476E+00
          2   -1    0    0  502    0  0.00000000000E+00  0.00000000000E+00  0.64347243481E+03  0.64347243481E+03  0.00000000000E+00 0. -1.
          1   -1    0    0  501    0 -0.00000000000E+00 -0.00000000000E+00 -0.45467224421E+03  0.45467224421E+03  0.00000000000E+00 0. -1.
         25    2    1    2    0    0  0.15657717006E+02 -0.13535586595E+03  0.38928873595E+03  0.43097175197E+03  0.12499822602E+03 0.  0.
          2    1    1    2  501    0 -0.34810659552E+02  0.10871461868E+03 -0.42510907662E+03  0.44016857834E+03  0.00000000000E+00 0. -1.
          1    1    1    2  502    0  0.19152942546E+02  0.26641247275E+02  0.22462053127E+03  0.22700434871E+03  0.00000000000E+00 0. -1.
         22    1    3    3    0    0 -0.40215183338E+02 -0.79243216419E+02  0.29367390065E+03  0.30682423021E+03  0.00000000000E+00 0. -1.
         22    1    3    3    0    0  0.55872900344E+02 -0.56112649531E+02  0.95614835302E+02  0.12414752176E+03  0.00000000000E+00 0. -1.
</event>
<event>
 7    1  0.5889087E-006  0.2368656E+03  0.7818608E-02  0.1217077E+00
          2   -1    0    0  502    0  0.00000000000E+00  0.00000000000E+00  0.15609459900E+04  0.15609459900E+04  0.00000000000E+00 0. -1.
          1   -1    0    0  501    0 -0.00000000000E+00 -0.00000000000E+00 -0.47837379158E+03  0.47837379158E+03  0.00000000000E+00 0. -1.
         25    2    1    2    0    0  0.57103032042E+02 -0.16497012800E+03 -0.54968236854E+02  0.22163518386E+03  0.12499899305E+03 0.  0.
          2    1    1    2  501    0  0.67551695944E+02 -0.41972315099E+02 -0.32537606455E+03  0.33495445995E+03  0.00000000000E+00 0. -1.
          1    1    1    2  502    0 -0.12465472799E+03  0.20694244310E+03  0.14629164998E+04  0.14827301377E+04  0.00000000000E+00 0. -1.
         22    1    3    3    0    0 -0.33839748902E+02 -0.10561935742E+02 -0.71211869379E+01  0.36157909173E+02  0.00000000000E+00 0. -1.
         22    1    3    3    0    0  0.90942780944E+02 -0.15440819225E+03 -0.47847049916E+02  0.18547727469E+03  0.00000000000E+00 0. -1.
</event>
<event>
 7    1  0.5889087E-006  0.1007841E+03  0.7818608E-02  0.1430377E+00
          2   -1    0    0  502    0  0.00000000000E+00  0.00000000000E+00  0.16338444713E+04  0.16338444713E+04  0.00000000000E+00 0. -1.
          1   -1    0    0  501    0 -0.00000000000E+00 -0.00000000000E+00 -0.37359948494E+04  0.37359948494E+04  0.00000000000E+00 0. -1.
         25    2    1    2    0    0  0.12326671493E+03 -0.25956963276E+02 -0.74600357866E+03  0.76682095304E+03  0.12499835078E+03 0.  0.
          2    1    1    2  501    0 -0.97607770014E+02  0.15389098837E+02 -0.29786446552E+04  0.29802832220E+04  0.00000000000E+00 0. -1.
          1    1    1    2  502    0 -0.25658944912E+02  0.10567864439E+02  0.16224978558E+04  0.16227351457E+04  0.00000000000E+00 0. -1.
         22    1    3    3    0    0  0.12498122117E+03 -0.63189861105E+02 -0.57629845933E+03  0.59307097250E+03  0.00000000000E+00 0. -1.
         22    1    3    3    0    0 -0.17145062407E+01  0.37232897829E+02 -0.16970511932E+03  0.17374998054E+03  0.00000000000E+00 0. -1.
</event>
<event>
 7    1  0.5889087E-006  0.6789817E+02  0.7818608E-02  0.1398901E+00
          2   -1    0    0  502    0  0.00000000000E+00  0.00000000000E+00  0.77991430256E+03  0.77991430256E+03  0.00000000000E+00 0. -1.
          1   -1    0    0  501    0 -0.00000000000E+00 -0.00000000000E+00 -0.10321214356E+03  0.10321214356E+03  0.00000000000E+00 0. -1.
         25    2    1    2    0    0 -0.61816287725E+01  0.49788581488E+02  0.39414894829E+03  0.41652692480E+03  0.12499668100E+03 0.  0.
          2    1    1    2  501    0 -0.46373409900E+02 -0.51139516239E+02 -0.76889136445E+02  0.10333287265E+03  0.00000000000E+00 0. -1.
          1    1    1    2  502    0  0.52555038673E+02  0.13509347512E+01  0.35944234715E+03  0.36326664868E+03  0.00000000000E+00 0. -1.
         22    1    3    3    0    0  0.52412285556E+02 -0.66211026482E+01  0.17350432272E+03  0.18136878640E+03  0.00000000000E+00 0.  1.
         22    1    3    3    0    0 -0.58593914329E+02  0.56409684136E+02  0.22064462558E+03  0.23515813840E+03  0.00000000000E+00 0.  1.
</event>
<event>
 7    1  0.5889087E-006  0.1614427E+03  0.7818608E-02  0.1254746E+00
          2   -1    0    0  502    0  0.00000000000E+00  0.00000000000E+00  0.46646412083E+03  0.46646412083E+03  0.00000000000E+00 0. -1.
          1   -1    0    0  501    0 -0.00000000000E+00 -0.00000000000E+00 -0.39628080262E+03  0.39628080262E+03  0.00000000000E+00 0. -1.
         25    2    1    2    0    0 -0.19965788252E+03 -0.34329406426E+02 -0.11644437064E+03  0.26500246018E+03  0.12500093699E+03 0.  0.
          2    1    1    2  501    0  0.43901457444E+02  0.66136779533E+02 -0.18076728709E+03  0.19742903447E+03  0.00000000000E+00 0. -1.
          1    1    1    2  502    0  0.15575642507E+03 -0.31807373107E+02  0.36739497594E+03  0.40031342880E+03  0.00000000000E+00 0. -1.
         22    1    3    3    0    0 -0.20012769883E+03 -0.62621674386E+02 -0.10443647222E+03  0.23426383987E+03  0.00000000000E+00 0.  1.
         22    1    3    3    0    0  0.46981631038E+00  0.28292267960E+02 -0.12007898424E+02  0.30738620305E+02  0.00000000000E+00 0.  1.
</event>
<event>
 7    1  0.5889087E-006  0.8614753E+02  0.7818608E-02  0.1313021E+00
          2   -1    0    0  502    0  0.00000000000E+00  0.00000000000E+00  0.90299881286E+03  0.90299881286E+03  0.00000000000E+00 0. -1.
          1   -1    0    0  501    0 -0.00000000000E+00 -0.00000000000E+00 -0.80792349441E+03  0.80792349441E+03  0.00000000000E+00 0. -1.
         25    2    1    2    0    0 -0.63248882991E+01 -0.34723392132E+02  0.29134363869E+03  0.31898645550E+03  0.12500209923E+03 0.  0.
          2    1    1    2  501    0 -0.82855847965E+02 -0.23586126899E+02 -0.78698518365E+03  0.79168622333E+03  0.00000000000E+00 0. -1.
          1    1    1    2  502    0  0.89180736264E+02  0.58309519031E+02  0.59071686341E+03  0.60024962845E+03  0.00000000000E+00 0. -1.
         22    1    3    3    0    0  0.53972251645E+01 -0.80827149234E+02  0.16094608283E+03  0.18018268416E+03  0.00000000000E+00 0. -1.
         22    1    3    3    0    0 -0.11722113464E+02  0.46103757102E+02  0.13039755586E+03  0.13880377134E+03  0.00000000000E+00 0. -1.
</event>
<event>
 7    1  0.5889087E-006  0.6747849E+02  0.7818608E-02  0.1462542E+00
          2   -1    0    0  502    0  0.00000000000E+00  0.00000000000E+00  0.27945342939E+04  0.27945342939E+04  0.00000000000E+00 0. -1.
          1   -1    0    0  501    0 -0.00000000000E+00 -0.00000000000E+00 -0.62089037971E+02  0.62089037971E+02  0.00000000000E+00 0. -1.
         25    2    1    2    0    0  0.33684077277E+02 -0.80166538084E+02  0.14869613222E+03  0.21283244558E+03  0.12500327701E+03 0.  0.
          2    1    1    2  501    0 -0.29969132264E+02  0.12987278831E+02 -0.20571970614E+02  0.38600832569E+02  0.00000000000E+00 0. -1.
          1    1    1    2  502    0 -0.37149450135E+01  0.67179259253E+02  0.26043210943E+04  0.26051900537E+04  0.00000000000E+00 0. -1.
         22    1    3    3    0    0 -0.24794754203E+02 -0.28458270745E+02 -0.72550493582E+01  0.38435514189E+02  0.00000000000E+00 0.  1.
         22    1    3    3    0    0  0.58478831480E+02 -0.51708267338E+02  0.15595118158E+03  0.17439693139E+03  0.00000000000E+00 0.  1.
</event>
<event>
 7    1  0.5889087E-006  0.2345274E+03  0.7818608E-02  0.1176908E+00
          2   -1    0    0  502    0  0.00000000000E+00  0.00000000000E+00  0.70926484448E+03  0.70926484448E+03  0.00000000000E+00 0. -1.
          1   -1    0    0  501    0 -0.00000000000E+00 -0.00000000000E+00 -0.14685498600E+04  0.14685498600E+04  0.00000000000E+00 0. -1.
         25    2    1    2    0    0  0.95518496565E+01  0.20847805076E+03  0.15898201257E+03  0.29061327456E+03  0.12500583806E+03 0.  0.
          2    1    1    2  501    0  0.11498388906E+03 -0.20726764799E+03 -0.13844888640E+04  0.14046318333E+04  0.00000000000E+00 0. -1.
          1    1    1    2  502    0 -0.12453573871E+03 -0.12104027627E+01  0.46622183590E+03  0.48256959660E+03  0.00000000000E+00 0. -1.
         22    1    3    3    0    0  0.62116876999E+02  0.10457238542E+03  0.11101319030E+03  0.16467488765E+03  0.00000000000E+00 0. -1.
         22    1    3    3    0    0 -0.52565027343E+02  0.10390566534E+03  0.47968822271E+02  0.12593838691E+03  0.00000000000E+00 0. -1.
</event>
<event>
 7    1  0.5889087E-006  0.6096333E+02  0.7818608E-02  0.1522224E+00
          2   -1    0    0  502    0  0.00000000000E+00  0.00000000000E+00  0.11081489582E+04  0.11081489582E+04  0.00000000000E+00 0. -1.
          1   -1    0    0  501    0 -0.00000000000E+00 -0.00000000000E+00 -0.15828096791E+03  0.15828096791E+03  0.00000000000E+00 0. -1.
         25    2    1    2    0    0 -0.45139452712E+02 -0.67076035751E+01  0.30731830889E+03  0.33489374948E+03  0.12500687309E+03 0.  0.
          2    1    1    2  501    0  0.54124878024E+02  0.28836140333E+02 -0.13779504064E+03  0.15082605423E+03  0.00000000000E+00 0. -1.
          1    1    1    2  502    0 -0.89854253123E+01 -0.22128536758E+02  0.78034472202E+03  0.78071012238E+03  0.00000000000E+00 0. -1.
         22    1    3    3    0    0  0.15584889825E+02  0.46574558801E+02  0.15328441522E+03  0.16096021331E+03  0.00000000000E+00 0.  1.
         22    1    3    3    0    0 -0.60724342537E+02 -0.53282162376E+02  0.15403389367E+03  0.17393353617E+03  0.00000000000E+00 0.  1.
</event>
<event>
 7    1  0.5889087E-006  0.6744620E+02  0.7818608E-02  0.1452888E+00
          2   -1    0    0  502    0  0.00000000000E+00  0.00000000000E+00  0.62677256611E+03  0.62677256611E+03  0.00000000000E+00 0. -1.
          1   -1    0    0  501    0 -0.00000000000E+00 -0.00000000000E+00 -0.45833625060E+03  0.45833625060E+03  0.00000000000E+00 0. -1.
         25    2    1    2    0    0 -0.92756909059E+02 -0.39295540807E+02 -0.56335954770E+02  0.17013675301E+03  0.12499916488E+03 0.  0.
          2    1    1    2  501    0  0.34442086844E+02  0.65515690822E+01 -0.34223906730E+03  0.34403017250E+03  0.00000000000E+00 0. -1.
          1    1    1    2  502    0  0.58314822216E+02  0.32743971724E+02  0.56701133758E+03  0.57094189119E+03  0.00000000000E+00 0. -1.
         22    1    3    3    0    0 -0.84562120699E+02 -0.59691298521E+01 -0.88890938973E+02  0.12283314618E+03  0.00000000000E+00 0.  1.
         22    1    3    3    0    0 -0.81947883599E+01 -0.33326410954E+02  0.32554984203E+02  0.47303606837E+02  0.00000000000E+00 0.  1.
</event>
<event>
 7    1  0.5889087E-006  0.4656474E+02  0.7818608E-02  0.1583016E+00
          2   -1    0    0  502    0  0.00000000000E+00  0.00000000000E+00  0.12090617879E+04  0.12090617879E+04  0.00000000000E+00 0. -1.
          1   -1    0    0  501    0 -0.00000000000E+00 -0.00000000000E+00 -0.26751549394E+03  0.26751549394E+03  0.00000000000E+00 0. -1.
         25    2    1    2    0    0  0.34590323603E+02 -0.10262669897E+02  0.24591082477E+03  0.27820579004E+03  0.12499805995E+03 0.  0.
          2    1    1    2  501    0  0.43276683023E+00 -0.21181736882E+02 -0.25033544665E+03  0.25123035070E+03  0.00000000000E+00 0. -1.
          1    1    1    2  502    0 -0.35023090433E+02  0.31444406779E+02  0.94597091582E+03  0.94714114109E+03  0.00000000000E+00 0. -1.
         22    1    3    3    0    0  0.23114123401E+02  0.54406769086E+02  0.15628137864E+03  0.16708748766E+03  0.00000000000E+00 0.  1.
         22    1    3    3    0    0  0.11476200201E+02 -0.64669438983E+02  0.89629446126E+02  0.11111830237E+03  0.00000000000E+00 0.  1.
</event>
<event>
 7    1  0.5889087E-006  0.8939003E+02  0.7818608E-02  0.1308273E+00
          2   -1    0    0  502    0  0.00000000000E+00  0.00000000000E+00  0.86011210892E+03  0.86011210892E+03  0.00000000000E+00 0. -1.
          1   -1    0    0  501    0 -0.00000000000E+00 -0.00000000000E+00 -0.79084931339E+03  0.79084931339E+03  0.00000000000E+00 0. -1.
         25    2    1    2    0    0 -0.22298959705E+02 -0.70327643616E+02  0.16909180646E+03  0.22284482671E+03  0.12499822687E+03 0.  0.
          2    1    1    2  501    0 -0.63687612242E+02  0.63789203446E+02 -0.75849357733E+03  0.76383092453E+03  0.00000000000E+00 0. -1.
          1    1    1    2  502    0  0.85986571947E+02  0.65384401701E+01  0.65866456640E+03  0.66428567107E+03  0.00000000000E+00 0. -1.
         22    1    3    3    0    0 -0.44679693940E+02 -0.45062194208E+02  0.15143097471E+02  0.65239480366E+02  0.00000000000E+00 0. -1.
         22    1    3    3    0    0  0.22380734235E+02 -0.25265449407E+02  0.15394870899E+03  0.15760534635E+03  0.00000000000E+00 0. -1.
</event>
<event>
 7    1  0.5889087E-006  0.1053428E+03  0.7818608E-02  0.1313872E+00
          2   -1    0    0  502    0  0.00000000000E+00  0.00000000000E+00  0.13111024985E+04  0.13111024985E+04  0.00000000000E+00 0. -1.
          1   -1    0    0  501    0 -0.00000000000E+00 -0.00000000000E+00 -0.18683920510E+03  0.18683920510E+03  0.00000000000E+00 0. -1.
         25    2    1    2    0    0  0.12632000147E+02  0.58487957850E+02  0.10407663956E+04  0.10499525427E+04  0.12500097305E+03 0.  0.
          2    1    1    2  501    0  0.46146540670E+02 -0.95678806996E+02 -0.16150360791E+03  0.19330637002E+03  0.00000000000E+00 0. -1.
          1    1    1    2  502    0 -0.58778540817E+02  0.37190849146E+02  0.24500050572E+03  0.25468279079E+03  0.00000000000E+00 0. -1.
         22    1    3    3    0    0 -0.17765945404E+01  0.30975085877E+02  0.98968118667E+03  0.99016739165E+03  0.00000000000E+00 0. -1.
         22    1    3    3    0    0  0.14408594688E+02  0.27512871973E+02  0.51085208880E+02  0.59785151094E+02  0.00000000000E+00 0. -1.
</event>
<event>
 7    1  0.5889087E-006  0.7210233E+02  0.7818608E-02  0.1361262E+00
          2   -1    0    0  502    0  0.00000000000E+00  0.00000000000E+00  0.62354483640E+03  0.62354483640E+03  0.00000000000E+00 0. -1.
          1   -1    0    0  501    0 -0.00000000000E+00 -0.00000000000E+00 -0.11538000965E+03  0.11538000965E+03  0.00000000000E+00 0. -1.
         25    2    1    2    0    0  0.78779712783E+02  0.50692856230E+02  0.20888005505E+03  0.26082870971E+03  0.12499891836E+03 0.  0.
          2    1    1    2  501    0 -0.64159091707E+02  0.20305222302E+02 -0.72728479674E+02  0.99086441338E+02  0.00000000000E+00 0. -1.
          1    1    1    2  502    0 -0.14620621077E+02 -0.70998078532E+02  0.37201325137E+03  0.37900969501E+03  0.00000000000E+00 0. -1.
         22    1    3    3    0    0  0.55184508402E+02 -0.35160277586E+02  0.10800734077E+03  0.12628206820E+03  0.00000000000E+00 0.  1.
         22    1    3    3    0    0  0.23595204381E+02  0.85853133816E+02  0.10087271428E+03  0.13454664151E+03  0.00000000000E+00 0.  1.
</event>
<event>
 7    1  0.5889087E-006  0.5508240E+02  0.7818608E-02  0.1482340E+00
          2   -1    0    0  502    0  0.00000000000E+00  0.00000000000E+00  0.76896470962E+03  0.76896470962E+03  0.00000000000E+00 0. -1.
          1   -1    0    0  501    0 -0.00000000000E+00 -0.00000000000E+00 -0.58987249497E+03  0.58987249497E+03  0.00000000000E+00 0. -1.
         25    2    1    2    0    0  0.66676615976E+02 -0.34773686060E+02  0.26101023514E+03  0.29900967788E+03  0.12500185701E+03 0.  0.
          2    1    1    2  501    0 -0.33791498512E+02 -0.80590696201E+01 -0.56885030120E+03  0.56991006234E+03  0.00000000000E+00 0. -1.
          1    1    1    2  502    0 -0.32885117464E+02  0.42832755680E+02  0.48693228071E+03  0.48991746438E+03  0.00000000000E+00 0. -1.
         22    1    3    3    0    0  0.59985944091E+02 -0.48887870954E+02  0.27008006372E+03  0.28094764322E+03  0.00000000000E+00 0. -1.
         22    1    3    3    0    0  0.66906718855E+01  0.14114184894E+02 -0.90698285751E+01  0.18062034655E+02  0.00000000000E+00 0. -1.
</event>
<event>
 7    1  0.5889087E-006  0.9059038E+02  0.7818608E-02  0.1425899E+00
          2   -1    0    0  502    0  0.00000000000E+00  0.00000000000E+00  0.98886430294E+02  0.98886430294E+02  0.00000000000E+00 0. -1.
          1   -1    0    0  501    0 -0.00000000000E+00 -0.00000000000E+00 -0.53166457786E+03  0.53166457786E+03  0.00000000000E+00 0. -1.
         25    2    1    2    0    0 -0.23618498336E+02  0.66372024162E+02 -0.19278406207E+03  0.24032143998E+03  0.12500248346E+03 0.  0.
          2    1    1    2  501    0  0.16987216462E+02  0.27049815740E+02 -0.28467446477E+03  0.28646083318E+03  0.00000000000E+00 0. -1.
          1    1    1    2  502    0  0.66312818743E+01 -0.93421839902E+02  0.44680379274E+02  0.10376873499E+03  0.00000000000E+00 0. -1.
         22    1    3    3    0    0  0.14408234806E+02 -0.24873779464E+02 -0.65564655867E+01  0.29483713742E+02  0.00000000000E+00 0.  1.
         22    1    3    3    0    0 -0.38026733143E+02  0.91245803626E+02 -0.18622759649E+03  0.21083772624E+03  0.00000000000E+00 0.  1.
</event>
<event>
 7    1  0.5889087E-006  0.1463001E+03  0.7818608E-02  0.1398142E+00
          2   -1    0    0  502    0  0.00000000000E+00  0.00000000000E+00  0.11492568937E+04  0.11492568937E+04  0.00000000000E+00 0. -1.
          1   -1    0    0  501    0 -0.00000000000E+00 -0.00000000000E+00 -0.37683116205E+03  0.37683116205E+03  0.00000000000E+00 0. -1.
         25    2    1    2    0    0 -0.11636014454E+03  0.51681157887E+02  0.26035855254E+03  0.31562558012E+03  0.12498922204E+03 0.  0.
          2    1    1    2  501    0  0.14013523435E+03 -0.45576007457E+02 -0.33346520806E+03  0.36457386268E+03  0.00000000000E+00 0. -1.
          1    1    1    2  502    0 -0.23775089816E+02 -0.61051504295E+01  0.84553238717E+03  0.84588861294E+03  0.00000000000E+00 0. -1.
         22    1    3    3    0    0 -0.65684999392E+02 -0.10057728432E+01  0.26895373589E+02  0.70985152283E+02  0.00000000000E+00 0. -1.
         22    1    3    3    0    0 -0.50675145146E+02  0.52686930730E+02  0.23346317895E+03  0.24464042783E+03  0.00000000000E+00 0. -1.
</event>
<event>
 7    1  0.5889087E-006  0.1010557E+03  0.7818608E-02  0.1350814E+00
          2   -1    0    0  502    0  0.00000000000E+00  0.00000000000E+00  0.74208728327E+03  0.74208728327E+03  0.00000000000E+00 0. -1.
          1   -1    0    0  501    0 -0.00000000000E+00 -0.00000000000E+00 -0.13052184472E+03  0.13052184472E+03  0.00000000000E+00 0. -1.
         25    2    1    2    0    0  0.10305849361E+02 -0.14525023797E+03  0.36726499288E+03  0.41438169873E+03  0.12499910034E+03 0.  0.
          2    1    1    2  501    0 -0.25773296583E+02  0.95134334395E+02 -0.81707759433E+02  0.12802719379E+03  0.00000000000E+00 0. -1.
          1    1    1    2  502    0  0.15467447222E+02  0.50115903573E+02  0.32600820510E+03  0.33020023547E+03  0.00000000000E+00 0. -1.
         22    1    3    3    0    0 -0.23659323041E+02 -0.61595644657E+02  0.45400404285E+02  0.80093593481E+02  0.00000000000E+00 0. -1.
         22    1    3    3    0    0  0.33965172402E+02 -0.83654593311E+02  0.32186458860E+03  0.33428810525E+03  0.00000000000E+00 0. -1.
</event>
<event>
 7    1  0.5889087E-006  0.4829189E+02  0.7818608E-02  0.1476205E+00
          2   -1    0    0  502    0  0.00000000000E+00  0.00000000000E+00  0.79226677416E+03  0.79226677416E+03  0.00000000000E+00 0. -1.
          1   -1    0    0  501    0 -0.00000000000E+00 -0.00000000000E+00 -0.96838695316E+03  0.96838695316E+03  0.00000000000E+00 0. -1.
         25    2    1    2    0    0  0.34526483485E+02 -0.46576503294E+02  0.20666990204E+03  0.24839314890E+03  0.12500103715E+03 0.  0.
          2    1    1    2  501    0 -0.47746292471E+02  0.73644669332E+01 -0.94615017723E+03  0.94738276409E+03  0.00000000000E+00 0. -1.
          1    1    1    2  502    0  0.13219808985E+02  0.39212036361E+02  0.56336009619E+03  0.56487781433E+03  0.00000000000E+00 0. -1.
         22    1    3    3    0    0  0.44234097657E+02  0.32843267826E+02  0.10902051443E+03  0.12215076014E+03  0.00000000000E+00 0.  1.
         22    1    3    3    0    0 -0.97076141718E+01 -0.79419771120E+02  0.97649387615E+02  0.12624238876E+03  0.00000000000E+00 0.  1.
</event>
<event>
 7    1  0.5889087E-006  0.2758173E+02  0.7818608E-02  0.1630976E+00
          2   -1    0    0  502    0  0.00000000000E+00  0.00000000000E+00  0.96733818312E+03  0.96733818312E+03  0.00000000000E+00 0. -1.
          1   -1    0    0  501    0 -0.00000000000E+00 -0.00000000000E+00 -0.13761742744E+02  0.13761742744E+02  0.00000000000E+00 0. -1.
         25    2    1    2    0    0  0.18643506795E+01 -0.10827920962E+02  0.35755828623E+03  0.37893762697E+03  0.12500030964E+03 0.  0.
          2    1    1    2  501    0  0.20257406806E+02  0.26079913693E+02  0.97892670760E+02  0.10331262951E+03  0.00000000000E+00 0. -1.
          1    1    1    2  502    0 -0.22121757485E+02 -0.15251992731E+02  0.49812548339E+03  0.49884966938E+03  0.00000000000E+00 0. -1.
         22    1    3    3    0    0 -0.46590390208E+02  0.34390135240E+02  0.19410083737E+03  0.20255488374E+03  0.00000000000E+00 0.  1.
         22    1    3    3    0    0  0.48454740887E+02 -0.45218056202E+02  0.16345744886E+03  0.17638274323E+03  0.00000000000E+00 0.  1.
</event>
<event>
 7    1  0.5889087E-006  0.8774205E+02  0.7818608E-02  0.1334067E+00
          2   -1    0    0  502    0  0.00000000000E+00  0.00000000000E+00  0.14268230697E+03  0.14268230697E+03  0.00000000000E+00 0. -1.
          1   -1    0    0  501    0 -0.00000000000E+00 -0.00000000000E+00 -0.13281432095E+04  0.13281432095E+04  0.00000000000E+00 0. -1.
         25    2    1    2    0    0  0.11063993759E+01  0.56234236938E+02  0.10676846421E+02  0.13749030457E+03  0.12500430104E+03 0.  0.
          2    1    1    2  501    0 -0.84942409962E+02 -0.21987597975E+02 -0.12325929824E+04  0.12357119923E+04  0.00000000000E+00 0. -1.
          1    1    1    2  502    0  0.83836010586E+02 -0.34246638963E+02  0.36455233522E+02  0.97623219587E+02  0.00000000000E+00 0. -1.
         22    1    3    3    0    0  0.49083561451E+02  0.16093658606E+02 -0.32910360182E+02  0.61247805343E+02  0.00000000000E+00 0. -1.
         22    1    3    3    0    0 -0.47977162075E+02  0.40140578331E+02  0.43587206603E+02  0.76242499231E+02  0.00000000000E+00 0. -1.
</event>
<event>
 7    1  0.5889087E-006  0.9476625E+02  0.7818608E-02  0.1375290E+00
          2   -1    0    0  502    0  0.00000000000E+00  0.00000000000E+00  0.20498802065E+04  0.20498802065E+04  0.00000000000E+00 0. -1.
          1   -1    0    0  501    0 -0.00000000000E+00 -0.00000000000E+00 -0.22440953067E+03  0.22440953067E+03  0.00000000000E+00 0. -1.
         25    2    1    2    0    0 -0.95460267503E+02  0.95068390852E+02  0.12407531652E+03  0.22174334010E+03  0.12499905239E+03 0.  0.
          2    1    1    2  501    0  0.55230718888E+02 -0.73653858112E+02 -0.16320999828E+03  0.18738416865E+03  0.00000000000E+00 0. -1.
          1    1    1    2  502    0  0.40229548615E+02 -0.21414532741E+02  0.18646053576E+04  0.18651622285E+04  0.00000000000E+00 0. -1.
         22    1    3    3    0    0 -0.51724607100E+02 -0.19046764120E+02  0.67295485629E+02  0.86987910592E+02  0.00000000000E+00 0. -1.
         22    1    3    3    0    0 -0.43735660403E+02  0.11411515497E+03  0.56779830889E+02  0.13475542951E+03  0.00000000000E+00 0. -1.
</event>
<event>
 7    1  0.5889087E-006  0.7532019E+02  0.7818608E-02  0.1431155E+00
          2   -1    0    0  502    0  0.00000000000E+00  0.00000000000E+00  0.21168437911E+03  0.21168437911E+03  0.00000000000E+00 0. -1.
          1   -1    0    0  501    0 -0.00000000000E+00 -0.00000000000E+00 -0.24120725617E+04  0.24120725617E+04  0.00000000000E+00 0. -1.
         25    2    1    2    0    0  0.38068553691E+02  0.18262072966E+02  0.60939535097E+02  0.14533980135E+03  0.12500925097E+03 0.  0.
          2    1    1    2  501    0 -0.74506141259E+02 -0.12353391445E+02 -0.23661140511E+04  0.23673190478E+04  0.00000000000E+00 0. -1.
          1    1    1    2  502    0  0.36437587568E+02 -0.59086815203E+01  0.10478633340E+03  0.11109809167E+03  0.00000000000E+00 0. -1.
         22    1    3    3    0    0  0.17147375720E+02  0.68064538819E+02  0.58319840599E+02  0.91257973603E+02  0.00000000000E+00 0.  1.
         22    1    3    3    0    0  0.20921177971E+02 -0.49802465853E+02  0.26196944978E+01  0.54081827743E+02  0.00000000000E+00 0.  1.
</event>
<event>
 7    1  0.5889087E-006  0.5078067E+02  0.7818608E-02  0.1546904E+00
          2   -1    0    0  502    0  0.00000000000E+00  0.00000000000E+00  0.17991876284E+03  0.17991876284E+03  0.00000000000E+00 0. -1.
          1   -1    0    0  501    0 -0.00000000000E+00 -0.00000000000E+00 -0.80862478527E+02  0.80862478527E+02  0.00000000000E+00 0. -1.
         25    2    1    2    0    0  0.46021748953E+00  0.41169328910E+02 -0.62746178679E+00  0.13161548622E+03  0.12500846796E+03 0.  0.
          2    1    1    2  501    0  0.23555678791E+02  0.63189381259E+01  0.53133512584E+02  0.58463400020E+02  0.00000000000E+00 0. -1.
          1    1    1    2  502    0 -0.24015896281E+02 -0.47488267036E+02  0.46550233521E+02  0.70702355131E+02  0.00000000000E+00 0. -1.
         22    1    3    3    0    0  0.30525748004E+01 -0.33993042285E+02 -0.35035178010E+02  0.48911234240E+02  0.00000000000E+00 0. -1.
         22    1    3    3    0    0 -0.25923573108E+01  0.75162371195E+02  0.34407716223E+02  0.82704251981E+02  0.00000000000E+00 0. -1.
</event>
<event>
 7    1  0.5889087E-006  0.8513977E+02  0.7818608E-02  0.1378327E+00
          2   -1    0    0  502    0  0.00000000000E+00  0.00000000000E+00  0.47584257808E+03  0.47584257808E+03  0.00000000000E+00 0. -1.
          1   -1    0    0  501    0 -0.00000000000E+00 -0.00000000000E+00 -0.26686283120E+03  0.26686283120E+03  0.00000000000E+00 0. -1.
         25    2    1    2    0    0 -0.84273798392E+02 -0.37876636096E+02  0.10932282020E+03  0.19003633761E+03  0.12500247173E+03 0.  0.
          2    1    1    2  501    0  0.84677973833E+02 -0.11602085726E+02 -0.21644973563E+03  0.23271324780E+03  0.00000000000E+00 0. -1.
          1    1    1    2  502    0 -0.40417544121E+00  0.49478721822E+02  0.31610666231E+03  0.31995582387E+03  0.00000000000E+00 0. -1.
         22    1    3    3    0    0 -0.15832461727E+02  0.10352919952E+02 -0.25245637877E+02  0.31546664288E+02  0.00000000000E+00 0.  1.
         22    1    3    3    0    0 -0.68441336665E+02 -0.48229556047E+02  0.13456845808E+03  0.15848967332E+03  0.00000000000E+00 0.  1.
</event>
<event>
 7    1  0.5889087E-006  0.7777472E+02  0.7818608E-02  0.1371584E+00
          2   -1    0    0  502    0  0.00000000000E+00  0.00000000000E+00  0.65958381793E+03  0.65958381793E+03  0.00000000000E+00 0. -1.
          1   -1    0    0  501    0 -0.00000000000E+00 -0.00000000000E+00 -0.90581220625E+03  0.90581220625E+03  0.00000000000E+00 0. -1.
         25    2    1    2    0    0  0.23386626685E+02  0.11643563914E+03  0.33248384039E+03  0.37453121518E+03  0.12499573853E+03 0.  0.
          2    1    1    2  501    0 -0.33564867134E+02 -0.46380438995E+02 -0.87975238067E+03  0.88161329206E+03  0.00000000000E+00 0. -1.
          1    1    1    2  502    0  0.10178240449E+02 -0.70055200148E+02  0.30104015196E+03  0.30925151695E+03  0.00000000000E+00 0. -1.
         22    1    3    3    0    0  0.31337837834E+01 -0.40839667115E+00 -0.10846708479E+02  0.11297719835E+02  0.00000000000E+00 0.  1.
         22    1    3    3    0    0  0.20252842902E+02  0.11684403581E+03  0.34333054887E+03  0.36323349535E+03  0.00000000000E+00 0.  1.
</event>
<event>
 7    1  0.5889087E-006  0.1401355E+03  0.7818608E-02  0.1405089E+00
          2   -1    0    0  502    0  0.00000000000E+00  0.00000000000E+00  0.17268074281E+04  0.17268074281E+04  0.00000000000E+00 0. -1.
          1   -1    0    0  501    0 -0.00000000000E+00 -0.00000000000E+00 -0.34767244783E+02  0.34767244783E+02  0.00000000000E+00 0. -1.
         25    2    1    2    0    0 -0.14397741446E+03 -0.33399595789E+02  0.98197905270E+03  0.10008759604E+04  0.12499919679E+03 0.  0.
          2    1    1    2  501    0  0.87699128171E+01  0.22617010945E+02 -0.11254361290E+02  0.26741376235E+02  0.00000000000E+00 0. -1.
          1    1    1    2  502    0  0.13520750164E+03  0.10782584844E+02  0.72131549188E+03  0.73395733627E+03  0.00000000000E+00 0. -1.
         22    1    3    3    0    0  0.12358992891E+02  0.22484668338E+02  0.90397761745E+02  0.93968400774E+02  0.00000000000E+00 0.  1.
         22    1    3    3    0    0 -0.15633640735E+03 -0.55884264127E+02  0.89158129096E+03  0.90690755958E+03  0.00000000000E+00 0.  1.
</event>
<event>
 7    1  0.5889087E-006  0.1068520E+03  0.7818608E-02  0.1384892E+00
          2   -1    0    0  502    0  0.00000000000E+00  0.00000000000E+00  0.16649300862E+03  0.16649300862E+03  0.00000000000E+00 0. -1.
          1   -1    0    0  501    0 -0.00000000000E+00 -0.00000000000E+00 -0.12103074869E+04  0.12103074869E+04  0.00000000000E+00 0. -1.
         25    2    1    2    0    0  0.84156014224E+02  0.14964628606E+02 -0.52559271828E+02  0.16029734704E+03  0.12500635013E+03 0.  0.
          2    1    1    2  501    0  0.28688020074E+02 -0.23956489133E+02 -0.10750265489E+04  0.10756760649E+04  0.00000000000E+00 0. -1.
          1    1    1    2  502    0 -0.11284403430E+03  0.89918605264E+01  0.83771342468E+02  0.14082708351E+03  0.00000000000E+00 0. -1.
         22    1    3    3    0    0 -0.63404674531E+01  0.45030374605E+02  0.95869913637E+01  0.46474149460E+02  0.00000000000E+00 0. -1.
         22    1    3    3    0    0  0.90496481677E+02 -0.30065745999E+02 -0.62146263192E+02  0.11382319758E+03  0.00000000000E+00 0. -1.
</event>
<event>
 7    1  0.5889087E-006  0.2486589E+03  0.7818608E-02  0.1241352E+00
          2   -1    0    0  502    0  0.00000000000E+00  0.00000000000E+00  0.26771795984E+04  0.26771795984E+04  0.00000000000E+00 0. -1.
          1   -1    0    0  501    0 -0.00000000000E+00 -0.00000000000E+00 -0.41808007229E+03  0.41808007229E+03  0.00000000000E+00 0. -1.
         25    2    1    2    0    0  0.15188504658E+03 -0.12582276605E+03  0.23911631022E+03  0.33421523585E+03  0.12499111259E+03 0.  0.
          2    1    1    2  501    0  0.47632812552E+02 -0.34716924409E+02 -0.36127706644E+03  0.36605364144E+03  0.00000000000E+00 0. -1.
          1    1    1    2  502    0 -0.19951785913E+03  0.16053969046E+03  0.23812602824E+04  0.23949907934E+04  0.00000000000E+00 0. -1.
         22    1    3    3    0    0  0.13859105986E+03 -0.49712869769E+02  0.11016398732E+03  0.18388843193E+03  0.00000000000E+00 0. -1.
         22    1    3    3    0    0  0.13293986717E+02 -0.76109896283E+02  0.12895232290E+03  0.15032680392E+03  0.00000000000E+00 0. -1.
</event>
<event>
 7    1  0.5889087E-006  0.1364659E+03  0.7818608E-02  0.1389554E+00
          2   -1    0    0  502    0  0.00000000000E+00  0.00000000000E+00  0.51103739803E+03  0.51103739803E+03  0.00000000000E+00 0. -1.
          1   -1    0    0  501    0 -0.00000000000E+00 -0.00000000000E+00 -0.22272509680E+03  0.22272509680E+03  0.00000000000E+00 0. -1.
         25    2    1    2    0    0 -0.12500473672E+03  0.22215775781E+02 -0.19654317066E+02  0.17925143102E+03  0.12500023379E+03 0.  0.
          2    1    1    2  501    0 -0.32904661782E+01  0.27991739628E+02 -0.11045383229E+03  0.11399304243E+03  0.00000000000E+00 0. -1.
          1    1    1    2  502    0  0.12829520290E+03 -0.50207515410E+02  0.41842045059E+03  0.44051802138E+03  0.00000000000E+00 0. -1.
         22    1    3    3    0    0 -0.35265262462E+02 -0.49903861692E+02  0.56765654717E+01  0.61369842300E+02  0.00000000000E+00 0. -1.
         22    1    3    3    0    0 -0.89739474256E+02  0.72119637474E+02 -0.25330882537E+02  0.11788158872E+03  0.00000000000E+00 0. -1.
</event>
<event>
 7    1  0.5889087E-006  0.6101336E+02  0.7818608E-02  0.1411603E+00
          2   -1    0    0  502    0  0.00000000000E+00  0.00000000000E+00  0.97992310891E+03  0.97992310891E+03  0.00000000000E+00 0. -1.
          1   -1    0    0  501    0 -0.00000000000E+00 -0.00000000000E+00 -0.10567024488E+03  0.10567024488E+03  0.00000000000E+00 0. -1.
         25    2    1    2    0    0  0.35501938295E+02  0.10536612492E+03  0.27987626117E+03  0.32606385131E+03  0.12499802262E+03 0.  0.
          2    1    1    2  501    0 -0.15975430899E+02 -0.50480004909E+02 -0.72687016500E+02  0.89926901735E+02  0.00000000000E+00 0. -1.
          1    1    1    2  502    0 -0.19526507396E+02 -0.54886120013E+02  0.66706361936E+03  0.66960260075E+03  0.00000000000E+00 0. -1.
         22    1    3    3    0    0  0.40595453467E+02  0.40629371104E+02  0.24294202684E+02  0.62361405713E+02  0.00000000000E+00 0.  1.
         22    1    3    3    0    0 -0.50935151722E+01  0.64736753819E+02  0.25558205849E+03  0.26370244559E+03  0.00000000000E+00 0.  1.
</event>
<event>
 7    1  0.5889087E-006  0.1741458E+03  0.7818608E-02  0.1238740E+00
          2   -1    0    0  502    0  0.00000000000E+00  0.00000000000E+00  0.13632274207E+04  0.13632274207E+04  0.00000000000E+00 0. -1.
          1   -1    0    0  501    0 -0.00000000000E+00 -0.00000000000E+00 -0.30125459502E+03  0.30125459502E+03  0.00000000000E+00 0. -1.
         25    2    1    2    0    0 -0.22633247977E+02 -0.11234108243E+03  0.52734351457E+02  0.17759085057E+03  0.12499926267E+03 0.  0.
          2    1    1    2  501    0 -0.28610872643E+00  0.19567081704E+03 -0.19694063552E+03  0.27761981993E+03  0.00000000000E+00 0. -1.
          1    1    1    2  502    0  0.22919356704E+02 -0.83329734606E+02  0.12061791097E+04  0.12092713452E+04  0.00000000000E+00 0. -1.
         22    1    3    3    0    0 -0.35863033744E+02 -0.32103367546E+02 -0.33820514573E+02  0.58826954733E+02  0.00000000000E+00 0. -1.
         22    1    3    3    0    0  0.13229785767E+02 -0.80237714889E+02  0.86554866031E+02  0.11876389584E+03  0.00000000000E+00 0. -1.
</event>
<event>
 7    1  0.5889087E-006  0.7204779E+02  0.7818608E-02  0.1504602E+00
          2   -1    0    0  502    0  0.00000000000E+00  0.00000000000E+00  0.12813018766E+04  0.12813018766E+04  0.00000000000E+00 0. -1.
          1   -1    0    0  501    0 -0.00000000000E+00 -0.00000000000E+00 -0.84503221733E+02  0.84503221733E+02  0.00000000000E+00 0. -1.
         25    2    1    2    0    0  0.61058744161E+01 -0.92808153323E+02  0.24201782364E+03  0.28783424151E+03  0.12500115438E+03 0.  0.
          2    1    1    2  501    0 -0.72774258742E+01  0.70078093436E+02 -0.41275067244E+02  0.81654952593E+02  0.00000000000E+00 0. -1.
          1    1    1    2  502    0  0.11715514581E+01  0.22730059887E+02  0.99605589846E+03  0.99631590422E+03  0.00000000000E+00 0. -1.
         22    1    3    3    0    0  0.84128958940E+01 -0.11016572865E+03  0.11448143843E+03  0.15910142781E+03  0.00000000000E+00 0.  1.
         22    1    3    3    0    0 -0.23070214779E+01  0.17357575325E+02  0.12753638522E+03  0.12873281370E+03  0.00000000000E+00 0.  1.
</event>
<event>
 7    1  0.5889087E-006  0.7102322E+02  0.7818608E-02  0.1494265E+00
          2   -1    0    0  502    0  0.00000000000E+00  0.00000000000E+00  0.32990958504E+04  0.32990958504E+04  0.00000000000E+00 0. -1.
          1   -1    0    0  501    0 -0.00000000000E+00 -0.00000000000E+00 -0.55333536369E+02  0.55333536369E+02  0.00000000000E+00 0. -1.
         25    2    1    2    0    0  0.16333844857E+02  0.92454240391E+02  0.52865339483E+03  0.55128376331E+03  0.12499917909E+03 0.  0.
          2    1    1    2  501    0 -0.10215907835E+02 -0.22586597190E+02 -0.40046210612E+02  0.47097963119E+02  0.00000000000E+00 0. -1.
          1    1    1    2  502    0 -0.61179370215E+01 -0.69867643201E+02  0.27551551298E+04  0.27560476603E+04  0.00000000000E+00 0. -1.
         22    1    3    3    0    0  0.53154447205E+01  0.12332337541E+03  0.40883773263E+03  0.42706580347E+03  0.00000000000E+00 0.  1.
         22    1    3    3    0    0  0.11018400136E+02 -0.30869135016E+02  0.11981566220E+03  0.12421795984E+03  0.00000000000E+00 0.  1.
</event>
<event>
 7    1  0.5889087E-006  0.5057868E+02  0.7818608E-02  0.1512112E+00
          2   -1    0    0  502    0  0.00000000000E+00  0.00000000000E+00  0.49201670017E+03  0.49201670017E+03  0.00000000000E+00 0. -1.
          1   -1    0    0  501    0 -0.00000000000E+00 -0.00000000000E+00 -0.21754261103E+03  0.21754261103E+03  0.00000000000E+00 0. -1.
         25    2    1    2    0    0  0.25863581976E+02  0.18659695433E+02  0.63815016384E+02  0.14392548721E+03  0.12500032178E+03 0.  0.
          2    1    1    2  501    0 -0.79877178729E+01  0.29755228967E+02 -0.17441576995E+03  0.17711588888E+03  0.00000000000E+00 0. -1.
          1    1    1    2  502    0 -0.17875864103E+02 -0.48414924400E+02  0.38507484270E+03  0.38851793511E+03  0.00000000000E+00 0. -1.
         22    1    3    3    0    0  0.27777929829E+02  0.69788624017E+02  0.52165974994E+02  0.91451377107E+02  0.00000000000E+00 0.  1.
         22    1    3    3    0    0 -0.19143478534E+01 -0.51128928583E+02  0.11649041390E+02  0.52474110103E+02  0.00000000000E+00 0.  1.
</event>
<event>
 7    1  0.5889087E-006  0.8791283E+02  0.7818608E-02  0.1475376E+00
          2   -1    0    0  502    0  0.00000000000E+00  0.00000000000E+00  0.67889628493E+02  0.67889628493E+02  0.00000000000E+00 0. -1.
          1   -1    0    0  501    0 -0.00000000000E+00 -0.00000000000E+00 -0.86630463655E+03  0.86630463655E+03  0.00000000000E+00 0. -1.
         25    2    1    2    0    0  0.52019475628E+02 -0.92276597333E+02 -0.58231163774E+02  0.17389075737E+03  0.12500452314E+03 0.  0.
          2    1    1    2  501    0 -0.32121986937E+02  0.81011023864E+02 -0.73015198665E+03  0.73533429924E+03  0.00000000000E+00 0. -1.
          1    1    1    2  502    0 -0.19897488692E+02  0.11265573469E+02 -0.10031857629E+02  0.24969208424E+02  0.00000000000E+00 0. -1.
         22    1    3    3    0    0  0.72547645381E+02 -0.10264573017E+03 -0.74134951448E+02  0.14592908483E+03  0.00000000000E+00 0. -1.
         22    1    3    3    0    0 -0.20528169752E+02  0.10369132838E+02  0.15903787674E+02  0.27961672546E+02  0.00000000000E+00 0. -1.
</event>
<event>
 7    1  0.5889087E-006  0.1530177E+03  0.7818608E-02  0.1291062E+00
          2   -1    0    0  502    0  0.00000000000E+00  0.00000000000E+00  0.57323580399E+03  0.57323580399E+03  0.00000000000E+00 0. -1.
          1   -1    0    0  501    0 -0.00000000000E+00 -0.00000000000E+00 -0.76125634696E+03  0.76125634696E+03  0.00000000000E+00 0. -1.
         25    2    1    2    0    0  0.91530084768E+02 -0.50045508874E+02 -0.25038405418E+03  0.29866223274E+03  0.12499858121E+03 0.  0.
          2    1    1    2  501    0  0.58229247303E+02  0.97684869427E+01 -0.47391481206E+03  0.47757859842E+03  0.00000000000E+00 0. -1.
          1    1    1    2  502    0 -0.14975933207E+03  0.40277021931E+02  0.53627832327E+03  0.55825131979E+03  0.00000000000E+00 0. -1.
         22    1    3    3    0    0  0.36808768937E+02  0.41025334182E+02 -0.67376323542E+02  0.87049023483E+02  0.00000000000E+00 0.  1.
         22    1    3    3    0    0  0.54721315832E+02 -0.91070843056E+02 -0.18300773063E+03  0.21161320926E+03  0.00000000000E+00 0.  1.
</event>
<event>
 7    1  0.5889087E-006  0.6244993E+02  0.7818608E-02  0.1437279E+00
          2   -1    0    0  502    0  0.00000000000E+00  0.00000000000E+00  0.11020113068E+04  0.11020113068E+04  0.00000000000E+00 0. -1.
          1   -1    0    0  501    0 -0.00000000000E+00 -0.00000000000E+00 -0.12234865317E+03  0.12234865317E+03  0.00000000000E+00 0. -1.
         25    2    1    2    0    0  0.41797668811E+02 -0.93888774393E+02  0.24447596880E+03  0.29318177510E+03  0.12499962742E+03 0.  0.
          2    1    1    2  501    0 -0.19011038684E+02  0.57998096115E+02 -0.87890175472E+02  0.10700411996E+03  0.00000000000E+00 0. -1.
          1    1    1    2  502    0 -0.22786630127E+02  0.35890678278E+02  0.82307686033E+03  0.82417406493E+03  0.00000000000E+00 0. -1.
         22    1    3    3    0    0 -0.46333497571E+01 -0.82737992909E+02  0.59174678606E+02  0.10182674496E+03  0.00000000000E+00 0. -1.
         22    1    3    3    0    0  0.46431018568E+02 -0.11150781484E+02  0.18530129019E+03  0.19135503014E+03  0.00000000000E+00 0. -1.
</event>
<event>
 7    1  0.7790331E-006  0.1065553E+03  0.7818608E-02  0.1340553E+00
          2   -1    0    0  502    0  0.00000000000E+00  0.00000000000E+00  0.16560376527E+04  0.16560376527E+04  0.00000000000E+00 0. -1.
          1   -1    0    0  501    0 -0.00000000000E+00 -0.00000000000E+00 -0.95803473373E+03  0.95803473373E+03  0.00000000000E+00 0. -1.
         25    2    1    2    0    0  0.68593399907E+02 -0.42226580128E+02 -0.22393838186E+03  0.26881452215E+03  0.12499883945E+03 0.  0.
          2    1    1    2  501    0 -0.17332862635E+02 -0.51484058867E+02 -0.70887190197E+03  0.71095035680E+03  0.00000000000E+00 0. -1.
          1    1    1    2  502    0 -0.51260537273E+02  0.93710638996E+02  0.16308132028E+04  0.16343075075E+04  0.00000000000E+00 0. -1.
         22    1    3    3    0    0 -0.24371721897E+02  0.10965637306E+02 -0.10678912708E+03  0.11008244044E+03  0.00000000000E+00 0.  1.
         22    1    3    3    0    0  0.92965121804E+02 -0.53192217434E+02 -0.11714925478E+03  0.15873208171E+03  0.00000000000E+00 0.  1.
</event>
<event>
 7    1  0.5889087E-006  0.1101050E+03  0.7818608E-02  0.1421644E+00
          2   -1    0    0  502    0  0.00000000000E+00  0.00000000000E+00  0.16107713187E+04  0.16107713187E+04  0.00000000000E+00 0. -1.
          1   -1    0    0  501    0 -0.00000000000E+00 -0.00000000000E+00 -0.37009223430E+03  0.37009223430E+03  0.00000000000E+00 0. -1.
         25    2    1    2    0    0 -0.48433502106E+02  0.10456075590E+03 -0.19240352846E+03  0.25675521542E+03  0.12500146832E+03 0.  0.
          2    1    1    2  501    0  0.21320519033E+02 -0.10597300912E+03 -0.12530302126E+03  0.16548622399E+03  0.00000000000E+00 0. -1.
          1    1    1    2  502    0  0.27112983073E+02  0.14122532232E+01  0.15583856341E+04  0.15586221136E+04  0.00000000000E+00 0. -1.
         22    1    3    3    0    0  0.12200290231E+02  0.90575367625E+02 -0.56930222925E+02  0.10767448437E+03  0.00000000000E+00 0.  1.
         22    1    3    3    0    0 -0.60633792336E+02  0.13985388273E+02 -0.13547330553E+03  0.14908073105E+03  0.00000000000E+00 0.  1.
</event>
<event>
 7    1  0.5889087E-006  0.5996858E+02  0.7818608E-02  0.1409940E+00
          2   -1    0    0  502    0  0.00000000000E+00  0.00000000000E+00  0.17082242789E+02  0.17082242789E+02  0.00000000000E+00 0. -1.
          1   -1    0    0  501    0 -0.00000000000E+00 -0.00000000000E+00 -0.19475322203E+04  0.19475322203E+04  0.00000000000E+00 0. -1.
         25    2    1    2    0    0 -0.53167639796E+02  0.44520743073E+02 -0.48749138378E+03  0.50801597868E+03  0.12499396323E+03 0.  0.
          2    1    1    2  501    0  0.51473189473E+02  0.18131361867E+02 -0.12919222617E+04  0.12930743852E+04  0.00000000000E+00 0. -1.
          1    1    1    2  502    0  0.16944503238E+01 -0.62652104940E+02 -0.15103633208E+03  0.16352409922E+03  0.00000000000E+00 0. -1.
         22    1    3    3    0    0 -0.31201539999E+02 -0.17309205144E+02 -0.32330518390E+02  0.48149840087E+02  0.00000000000E+00 0. -1.
         22    1    3    3    0    0 -0.21966099797E+02  0.61829948217E+02 -0.45516086539E+03  0.45986613859E+03  0.00000000000E+00 0. -1.
</event>
<event>
 7    1  0.5889087E-006  0.1195556E+03  0.7818608E-02  0.1275755E+00
          2   -1    0    0  502    0  0.00000000000E+00  0.00000000000E+00  0.40119054585E+03  0.40119054585E+03  0.00000000000E+00 0. -1.
          1   -1    0    0  501    0 -0.00000000000E+00 -0.00000000000E+00 -0.47755008213E+03  0.47755008213E+03  0.00000000000E+00 0. -1.
         25    2    1    2    0    0 -0.18611350052E+03 -0.15568883903E+02  0.72887543012E+02  0.23625440263E+03  0.12499169418E+03 0.  0.
          2    1    1    2  501    0  0.83676583382E+02 -0.25060650979E+02 -0.37832623039E+03  0.38827895055E+03  0.00000000000E+00 0. -1.
          1    1    1    2  502    0  0.10243691714E+03  0.40629534882E+02  0.22907915110E+03  0.25420727481E+03  0.00000000000E+00 0. -1.
         22    1    3    3    0    0 -0.90972318024E+02  0.45330018086E+02 -0.32628642776E+00  0.10164093491E+03  0.00000000000E+00 0.  1.
         22    1    3    3    0    0 -0.95141182495E+02 -0.60898901988E+02  0.73213829439E+02  0.13461346772E+03  0.00000000000E+00 0.  1.
</event>
<event>
 7    1  0.5889087E-006  0.2609608E+02  0.7818608E-02  0.1665480E+00
          2   -1    0    0  502    0  0.00000000000E+00  0.00000000000E+00  0.17459689570E+04  0.17459689570E+04  0.00000000000E+00 0. -1.
          1   -1    0    0  501    0 -0.00000000000E+00 -0.00000000000E+00 -0.17204566190E+03  0.17204566190E+03  0.00000000000E+00 0. -1.
         25    2    1    2    0    0  0.10161217630E+02 -0.48368176745E+02  0.93917702275E+03  0.94874728390E+03  0.12500079117E+03 0.  0.
          2    1    1    2  501    0 -0.49085035358E+01  0.25604708899E+02 -0.16607323251E+03  0.16810714762E+03  0.00000000000E+00 0. -1.
          1    1    1    2  502    0 -0.52527140946E+01  0.22763467846E+02  0.80081950484E+03  0.80116018736E+03  0.00000000000E+00 0. -1.
         22    1    3    3    0    0 -0.36324196860E+01 -0.54834804491E+02  0.15555149925E+03  0.16497369238E+03  0.00000000000E+00 0.  1.
         22    1    3    3    0    0  0.13793637316E+02  0.64666277463E+01  0.78362552349E+03  0.78377359153E+03  0.00000000000E+00 0.  1.
</event>
<event>
 7    1  0.5889087E-006  0.6962853E+02  0.7818608E-02  0.1409623E+00
          2   -1    0    0  502    0  0.00000000000E+00  0.00000000000E+00  0.27974974475E+04  0.27974974475E+04  0.00000000000E+00 0. -1.
          1   -1    0    0  501    0 -0.00000000000E+00 -0.00000000000E+00 -0.25441009722E+03  0.25441009722E+03  0.00000000000E+00 0. -1.
         25    2    1    2    0    0 -0.49307257247E+02  0.85757239112E+02  0.19019791729E+03  0.24816458114E+03  0.12499960766E+03 0.  0.
          2    1    1    2  501    0  0.56919838089E+02 -0.39258072529E+02 -0.21990373722E+03  0.23051836775E+03  0.00000000000E+00 0. -1.
          1    1    1    2  502    0 -0.76125808428E+01 -0.46499166583E+02  0.25727931702E+04  0.25732245958E+04  0.00000000000E+00 0. -1.
         22    1    3    3    0    0 -0.82701269822E+02  0.40293144419E+02  0.15901642056E+03  0.18370971538E+03  0.00000000000E+00 0.  1.
         22    1    3    3    0    0  0.33394012576E+02  0.45464094693E+02  0.31181496725E+02  0.64454865761E+02  0.00000000000E+00 0.  1.
</event>
<event>
 7    1  0.5889087E-006  0.1298780E+03  0.7818608E-02  0.1262621E+00
          2   -1    0    0  502    0  0.00000000000E+00  0.00000000000E+00  0.32296445423E+03  0.32296445423E+03  0.00000000000E+00 0. -1.
          1   -1    0    0  501    0 -0.00000000000E+00 -0.00000000000E+00 -0.10018937474E+04  0.10018937474E+04  0.00000000000E+00 0. -1.
         25    2    1    2    0    0  0.14367938564E+02 -0.12749099667E+02  0.49889540063E+02  0.13595330382E+03  0.12500142963E+03 0.  0.
          2    1    1    2  501    0 -0.91881202794E+02 -0.91793999147E+02 -0.93560301481E+03  0.94457466355E+03  0.00000000000E+00 0. -1.
          1    1    1    2  502    0  0.77513264231E+02  0.10454309881E+03  0.20678418156E+03  0.24433023428E+03  0.00000000000E+00 0. -1.
         22    1    3    3    0    0  0.38238640745E+02  0.47186210283E+02  0.14792329055E+02  0.62510359827E+02  0.00000000000E+00 0. -1.
         22    1    3    3    0    0 -0.23870702182E+02 -0.59935309950E+02  0.35097211008E+02  0.73442943990E+02  0.00000000000E+00 0. -1.
</event>
<event>
 7    1  0.5889087E-006  0.1293078E+03  0.7818608E-02  0.1383516E+00
          2   -1    0    0  502    0  0.00000000000E+00  0.00000000000E+00  0.21582102009E+04  0.21582102009E+04  0.00000000000E+00 0. -1.
          1   -1    0    0  501    0 -0.00000000000E+00 -0.00000000000E+00 -0.21415002440E+04  0.21415002440E+04  0.00000000000E+00 0. -1.
         25    2    1    2    0    0 -0.60105209346E+02 -0.14289961439E+03  0.88483645324E+03  0.90696951715E+03  0.12500088029E+03 0.  0.
          2    1    1    2  501    0  0.34904997496E+02  0.12445185660E+03 -0.21282795892E+04  0.21322008895E+04  0.00000000000E+00 0. -1.
          1    1    1    2  502    0  0.25200211849E+02  0.18447757795E+02  0.12601530928E+04  0.12605400382E+04  0.00000000000E+00 0. -1.
         22    1    3    3    0    0 -0.24351244436E+02 -0.15805852376E+03  0.73329725624E+03  0.75053337437E+03  0.00000000000E+00 0. -1.
         22    1    3    3    0    0 -0.35753964910E+02  0.15158909362E+02  0.15153919700E+03  0.15643614278E+03  0.00000000000E+00 0. -1.
</event>
<event>
 7    1  0.5889087E-006  0.8046092E+02  0.7818608E-02  0.1457504E+00
          2   -1    0    0  502    0  0.00000000000E+00  0.00000000000E+00  0.48981358995E+03  0.48981358995E+03  0.00000000000E+00 0. -1.
          1   -1    0    0  501    0 -0.00000000000E+00 -0.00000000000E+00 -0.25372650887E+03  0.25372650887E+03  0.00000000000E+00 0. -1.
         25    2    1    2    0    0 -0.97414350184E+02  0.30030022472E+02  0.77146461230E+02  0.17879834667E+03  0.12500365763E+03 0.  0.
          2    1    1    2  501    0  0.19160651302E+02 -0.20980297340E+02 -0.19758477885E+03  0.19961725443E+03  0.00000000000E+00 0. -1.
          1    1    1    2  502    0  0.78253698882E+02 -0.90497251321E+01  0.35652539870E+03  0.36512449771E+03  0.00000000000E+00 0. -1.
         22    1    3    3    0    0 -0.16379489567E+02  0.19026928579E+02 -0.33092481898E+02  0.41538223937E+02  0.00000000000E+00 0.  1.
         22    1    3    3    0    0 -0.81034860617E+02  0.11003093893E+02  0.11023894313E+03  0.13726012273E+03  0.00000000000E+00 0.  1.
</event>
<event>
 7    1  0.1548283E-005  0.8184118E+02  0.7818608E-02  0.1362828E+00
          2   -1    0    0  502    0  0.00000000000E+00  0.00000000000E+00  0.21316922156E+04  0.21316922156E+04  0.00000000000E+00 0. -1.
          1   -1    0    0  501    0 -0.00000000000E+00 -0.00000000000E+00 -0.14904725331E+04  0.14904725331E+04  0.00000000000E+00 0. -1.
         25    2    1    2    0    0  0.79447484517E+02 -0.85159569965E+02 -0.23606824179E+03  0.29140580720E+03  0.12500029813E+03 0.  0.
          2    1    1    2  501    0 -0.21459763614E+01  0.58475299488E+02 -0.12252423952E+04  0.12266388600E+04  0.00000000000E+00 0. -1.
          1    1    1    2  502    0 -0.77301508156E+02  0.26684270477E+02  0.21025303194E+04  0.21041200816E+04  0.00000000000E+00 0. -1.
         22    1    3    3    0    0  0.94345447865E+02 -0.40659681773E+02 -0.21822978460E+03  0.24120222251E+03  0.00000000000E+00 0. -1.
         22    1    3    3    0    0 -0.14897963348E+02 -0.44499888192E+02 -0.17838457193E+02  0.50203584693E+02  0.00000000000E+00 0. -1.
</event>
<event>
 7    1  0.5889087E-006  0.1462504E+03  0.7818608E-02  0.1371854E+00
          2   -1    0    0  502    0  0.00000000000E+00  0.00000000000E+00  0.15094630689E+04  0.15094630689E+04  0.00000000000E+00 0. -1.
          1   -1    0    0  501    0 -0.00000000000E+00 -0.00000000000E+00 -0.33295713025E+03  0.33295713025E+03  0.00000000000E+00 0. -1.
         25    2    1    2    0    0 -0.12661027982E+03 -0.68472449737E+02  0.12456710420E+04  0.12601744031E+04  0.12499816797E+03 0.  0.
          2    1    1    2  501    0  0.14034885427E+03  0.41378621374E+02 -0.30826222141E+03  0.34122659386E+03  0.00000000000E+00 0. -1.
          1    1    1    2  502    0 -0.13738574455E+02  0.27093828364E+02  0.23909711801E+03  0.24101920215E+03  0.00000000000E+00 0. -1.
         22    1    3    3    0    0 -0.14259119333E+03 -0.79438520817E+02  0.95423525895E+03  0.96809485921E+03  0.00000000000E+00 0.  1.
         22    1    3    3    0    0  0.15980913506E+02  0.10966071080E+02  0.29143578307E+03  0.29207954390E+03  0.00000000000E+00 0.  1.
</event>
<event>
 7    1  0.5889087E-006  0.1751689E+03  0.7818608E-02  0.1250795E+00
          2   -1    0    0  502    0  0.00000000000E+00  0.00000000000E+00  0.22107513503E+04  0.22107513503E+04  0.00000000000E+00 0. -1.
          1   -1    0    0  501    0 -0.00000000000E+00 -0.00000000000E+00 -0.12691507112E+04  0.12691507112E+04  0.00000000000E+00 0. -1.
         25    2    1    2    0    0  0.18869555970E+03 -0.63116270851E+02  0.15940762660E+03  0.28394629264E+03  0.12500011117E+03 0.  0.
          2    1    1    2  501    0 -0.56537373677E+02 -0.50927360716E+02 -0.12018459637E+04  0.12042523785E+04  0.00000000000E+00 0. -1.
          1    1    1    2  502    0 -0.13215818602E+03  0.11404363157E+03  0.19840389762E+04  0.19917033903E+04  0.00000000000E+00 0. -1.
         22    1    3    3    0    0  0.79138459186E+02  0.71443444577E+01  0.12701885851E+03  0.14982565801E+03  0.00000000000E+00 0.  1.
         22    1    3    3    0    0  0.10955710051E+03 -0.70260615309E+02  0.32388768085E+02  0.13412063463E+03  0.00000000000E+00 0.  1.
</event>
<event>
 7    1  0.5889087E-006  0.3722558E+02  0.7818608E-02  0.1552259E+00
          2   -1    0    0  502    0  0.00000000000E+00  0.00000000000E+00  0.41444747442E+03  0.41444747442E+03  0.00000000000E+00 0. -1.
          1   -1    0    0  501    0 -0.00000000000E+00 -0.00000000000E+00 -0.54162176032E+02  0.54162176032E+02  0.00000000000E+00 0. -1.
         25    2    1    2    0    0 -0.16333022965E+02  0.10649155781E+02  0.10536789906E+03  0.16464344901E+03  0.12499959597E+03 0.  0.
          2    1    1    2  501    0  0.16135929280E+02  0.27800023090E+02 -0.11987441476E+02  0.34306096407E+02  0.00000000000E+00 0. -1.
          1    1    1    2  502    0  0.19709368452E+00 -0.38449178871E+02  0.26690484080E+03  0.26966010503E+03  0.00000000000E+00 0. -1.
         22    1    3    3    0    0 -0.45344381156E+02  0.24287044849E+02  0.11912710993E+03  0.12975839768E+03  0.00000000000E+00 0. -1.
         22    1    3    3    0    0  0.29011358191E+02 -0.13637889067E+02 -0.13759210869E+02  0.34885051326E+02  0.00000000000E+00 0. -1.
</event>
<event>
 7    1  0.5889087E-006  0.5054001E+02  0.7818608E-02  0.1507643E+00
          2   -1    0    0  502    0  0.00000000000E+00  0.00000000000E+00  0.13596025108E+04  0.13596025108E+04  0.00000000000E+00 0. -1.
          1   -1    0    0  501    0 -0.00000000000E+00 -0.00000000000E+00 -0.30401739599E+03  0.30401739599E+03  0.00000000000E+00 0. -1.
         25    2    1    2    0    0  0.23951920918E+01  0.19388662104E+02  0.11342380357E+03  0.16990756129E+03  0.12498785143E+03 0.  0.
          2    1    1    2  501    0  0.93243536457E+01  0.30381897435E+02 -0.27432106649E+03  0.27615584510E+03  0.00000000000E+00 0. -1.
          1    1    1    2  502    0 -0.11719545737E+02 -0.49770559538E+02  0.12164823777E+04  0.12175565004E+04  0.00000000000E+00 0. -1.
         22    1    3    3    0    0  0.45510288630E-01  0.12249911920E+02 -0.26808138221E+02  0.29474373413E+02  0.00000000000E+00 0. -1.
         22    1    3    3    0    0  0.23496818031E+01  0.71387501842E+01  0.14023194179E+03  0.14043318788E+03  0.00000000000E+00 0. -1.
</event>
<event>
 7    1  0.5889087E-006  0.9219470E+02  0.7818608E-02  0.1397342E+00
          2   -1    0    0  502    0  0.00000000000E+00  0.00000000000E+00  0.13177047413E+04  0.13177047413E+04  0.00000000000E+00 0. -1.
          1   -1    0    0  501    0 -0.00000000000E+00 -0.00000000000E+00 -0.29118661566E+04  0.29118661566E+04  0.00000000000E+00 0. -1.
         25    2    1    2    0    0  0.63450028001E+02  0.20283004938E+02 -0.11121923779E+03  0.18008831144E+03  0.12499909888E+03 0.  0.
          2    1    1    2  501    0 -0.72127491731E+02 -0.58510623265E+02 -0.27651331797E+04  0.27666924964E+04  0.00000000000E+00 0. -1.
          1    1    1    2  502    0  0.86774637308E+01  0.38227618327E+02  0.12821910021E+04  0.12827900900E+04  0.00000000000E+00 0. -1.
         22    1    3    3    0    0 -0.86303189672E+01 -0.44111322615E+02 -0.37254322350E+02  0.58379583092E+02  0.00000000000E+00 0.  1.
         22    1    3    3    0    0  0.72080346968E+02  0.64394327553E+02 -0.73964915443E+02  0.12170872835E+03  0.00000000000E+00 0.  1.
</event>
<event>
 7    1  0.5889087E-006  0.1462909E+03  0.7818608E-02  0.1293379E+00
          2   -1    0    0  502    0  0.00000000000E+00  0.00000000000E+00  0.18218413395E+04  0.18218413395E+04  0.00000000000E+00 0. -1.
          1   -1    0    0  501    0 -0.00000000000E+00 -0.00000000000E+00 -0.31192709385E+03  0.31192709385E+03  0.00000000000E+00 0. -1.
         25    2    1    2    0    0 -0.84587126142E+02  0.15429958643E+03  0.77573175729E+03  0.80520069287E+03  0.12500020895E+03 0.  0.
          2    1    1    2  501    0 -0.15633732410E+02 -0.58379912426E+02 -0.28939186385E+03  0.29563538121E+03  0.00000000000E+00 0. -1.
          1    1    1    2  502    0  0.10022085855E+03 -0.95919674000E+02  0.10235743522E+04  0.10329323592E+04  0.00000000000E+00 0. -1.
         22    1    3    3    0    0  0.11905169077E+02  0.78853210931E+02  0.45382118124E+03  0.46077459399E+03  0.00000000000E+00 0.  1.
         22    1    3    3    0    0 -0.96492295219E+02  0.75446375495E+02  0.32191057606E+03  0.34442609888E+03  0.00000000000E+00 0.  1.
</event>
<event>
 7    1  0.5889087E-006  0.1076058E+03  0.7818608E-02  0.1409428E+00
          2   -1    0    0  502    0  0.00000000000E+00  0.00000000000E+00  0.58002186521E+03  0.58002186521E+03  0.00000000000E+00 0. -1.
          1   -1    0    0  501    0 -0.00000000000E+00 -0.00000000000E+00 -0.52343121702E+03  0.52343121702E+03  0.00000000000E+00 0. -1.
         25    2    1    2    0    0  0.33720092770E+02  0.70341413375E+02  0.26724159860E+03  0.30516988064E+03  0.12500249973E+03 0.  0.
          2    1    1    2  501    0 -0.41947547847E+02 -0.99747387352E+02 -0.49784565901E+03  0.50946976186E+03  0.00000000000E+00 0. -1.
          1    1    1    2  502    0  0.82274550763E+01  0.29405973977E+02  0.28719470860E+03  0.28881343973E+03  0.00000000000E+00 0. -1.
         22    1    3    3    0    0 -0.12800207060E+02  0.92026509726E+02  0.14063894397E+03  0.16855870299E+03  0.00000000000E+00 0.  1.
         22    1    3    3    0    0  0.46520299831E+02 -0.21685096351E+02  0.12660265463E+03  0.13661117765E+03  0.00000000000E+00 0.  1.
</event>
<event>
 7    1  0.5889087E-006  0.1152058E+03  0.7818608E-02  0.1341782E+00
          2   -1    0    0  502    0  0.00000000000E+00  0.00000000000E+00  0.15270710339E+04  0.15270710339E+04  0.00000000000E+00 0. -1.
          1   -1    0    0  501    0 -0.00000000000E+00 -0.00000000000E+00 -0.37185729036E+02  0.37185729036E+02  0.00000000000E+00 0. -1.
         25    2    1    2    0    0 -0.50579512261E+02  0.12384603019E+03  0.57504731148E+03  0.60349035341E+03  0.12500027983E+03 0.  0.
          2    1    1    2  501    0  0.48364658594E+02 -0.11502236915E+02  0.12236283301E+02  0.51197346455E+02  0.00000000000E+00 0. -1.
          1    1    1    2  502    0  0.22148536665E+01 -0.11234379327E+03  0.90260171006E+03  0.90956906305E+03  0.00000000000E+00 0. -1.
         22    1    3    3    0    0 -0.69394751602E+02  0.92931503418E+02  0.24065638917E+03  0.26714676402E+03  0.00000000000E+00 0.  1.
         22    1    3    3    0    0  0.18815239341E+02  0.30914526772E+02  0.33439092232E+03  0.33634358939E+03  0.00000000000E+00 0.  1.
</event>
<event>
 7    1  0.5889087E-006  0.9100219E+02  0.7818608E-02  0.1390448E+00
          2   -1    0    0  502    0  0.00000000000E+00  0.00000000000E+00  0.57580641614E+03  0.57580641614E+03  0.00000000000E+00 0. -1.
          1   -1    0    0  501    0 -0.00000000000E+00 -0.00000000000E+00 -0.22762920244E+03  0.22762920244E+03  0.00000000000E+00 0. -1.
         25    2    1    2    0    0 -0.12613177070E+03  0.12100280600E+02  0.23140009244E+03  0.29193611629E+03  0.12500021138E+03 0.  0.
          2    1    1    2  501    0  0.86162413868E+02 -0.24879050916E+02 -0.18564911183E+03  0.20617594782E+03  0.00000000000E+00 0. -1.
          1    1    1    2  502    0  0.39969356829E+02  0.12778770316E+02  0.30242623309E+03  0.30532355447E+03  0.00000000000E+00 0. -1.
         22    1    3    3    0    0 -0.56909569545E+02 -0.53698139080E+02  0.73220506973E+02  0.10716077588E+03  0.00000000000E+00 0. -1.
         22    1    3    3    0    0 -0.69222201152E+02  0.65798419680E+02  0.15817958547E+03  0.18477534041E+03  0.00000000000E+00 0. -1.
</event>
<event>
 7    1  0.5889087E-006  0.7983298E+02  0.7818608E-02  0.1386643E+00
          2   -1    0    0  502    0  0.00000000000E+00  0.00000000000E+00  0.46802741097E+02  0.46802741097E+02  0.00000000000E+00 0. -1.
          1   -1    0    0  501    0 -0.00000000000E+00 -0.00000000000E+00 -0.50942152378E+03  0.50942152378E+03  0.00000000000E+00 0. -1.
         25    2    1    2    0    0 -0.20486622020E+02 -0.39685335459E+02 -0.16405825789E+03  0.21103219636E+03  0.12499939355E+03 0.  0.
          2    1    1    2  501    0  0.19894765972E+02  0.89003264386E+02 -0.27651754576E+03  0.29116891300E+03  0.00000000000E+00 0. -1.
          1    1    1    2  502    0  0.59185604758E+00 -0.49317928927E+02 -0.22042979034E+02  0.54023155516E+02  0.00000000000E+00 0. -1.
         22    1    3    3    0    0  0.25202816292E+02  0.15094759746E+02 -0.12756960276E+03  0.13090850725E+03  0.00000000000E+00 0. -1.
         22    1    3    3    0    0 -0.45689438312E+02 -0.54780095205E+02 -0.36488655126E+02  0.80123689112E+02  0.00000000000E+00 0. -1.
</event>
<event>
 7    1  0.5889087E-006  0.9503407E+02  0.7818608E-02  0.1457008E+00
          2   -1    0    0  502    0  0.00000000000E+00  0.00000000000E+00  0.35709648087E+03  0.35709648087E+03  0.00000000000E+00 0. -1.
          1   -1    0    0  501    0 -0.00000000000E+00 -0.00000000000E+00 -0.61750241772E+02  0.61750241772E+02  0.00000000000E+00 0. -1.
         25    2    1    2    0    0  0.15721823654E+02 -0.83008868052E+02  0.19679915942E+03  0.24797676261E+03  0.12499967093E+03 0.  0.
          2    1    1    2  501    0  0.35789705751E+01 -0.23876454431E+02  0.41933076417E+02  0.48386744097E+02  0.00000000000E+00 0. -1.
          1    1    1    2  502    0 -0.19300794229E+02  0.10688532248E+03  0.56614003268E+02  0.12248321594E+03  0.00000000000E+00 0. -1.
         22    1    3    3    0    0 -0.54556399061E+02 -0.38893446106E+02  0.10144965278E+03  0.12157768249E+03  0.00000000000E+00 0.  1.
         22    1    3    3    0    0  0.70278222716E+02 -0.44115421946E+02  0.95349506632E+02  0.12639908013E+03  0.00000000000E+00 0.  1.
</event>
<event>
 7    1  0.5889087E-006  0.1190842E+03  0.7818608E-02  0.1257502E+00
          2   -1    0    0  502    0  0.00000000000E+00  0.00000000000E+00  0.45699971092E+03  0.45699971092E+03  0.00000000000E+00 0. -1.
          1   -1    0    0  501    0 -0.00000000000E+00 -0.00000000000E+00 -0.65600286587E+03  0.65600286587E+03  0.00000000000E+00 0. -1.
         25    2    1    2    0    0 -0.11262751519E+03  0.78863837660E+02  0.19957935507E+03  0.27269139972E+03  0.12499687373E+03 0.  0.
          2    1    1    2  501    0  0.94911299054E+02  0.44258584974E+02 -0.59700597562E+03  0.60612136735E+03  0.00000000000E+00 0. -1.
          1    1    1    2  502    0  0.17716216137E+02 -0.12312242263E+03  0.19842346560E+03  0.23418980971E+03  0.00000000000E+00 0. -1.
         22    1    3    3    0    0 -0.11137657971E+03  0.77823059654E+02  0.89723416104E+02  0.16282340900E+03  0.00000000000E+00 0. -1.
         22    1    3    3    0    0 -0.12509354837E+01  0.10407780063E+01  0.10985593897E+03  0.10986799072E+03  0.00000000000E+00 0. -1.
</event>
<event>
 7    1  0.5889087E-006  0.1507359E+03  0.7818608E-02  0.1386576E+00
          2   -1    0    0  502    0  0.00000000000E+00  0.00000000000E+00  0.19525852130E+03  0.19525852130E+03  0.00000000000E+00 0. -1.
          1   -1    0    0  501    0 -0.00000000000E+00 -0.00000000000E+00 -0.63683713220E+03  0.63683713220E+03  0.00000000000E+00 0. -1.
         25    2    1    2    0    0 -0.16238580851E+03  0.56709461072E+02 -0.35243688935E+02  0.21552576579E+03  0.12499649726E+03 0.  0.
          2    1    1    2  501    0  0.13629717555E+03 -0.58280249810E+02 -0.49886332299E+03  0.52042110123E+03  0.00000000000E+00 0. -1.
          1    1    1    2  502    0  0.26088632962E+02  0.15707887382E+01  0.92528401021E+02  0.96148786485E+02  0.00000000000E+00 0. -1.
         22    1    3    3    0    0 -0.11780386720E+03  0.34233949064E+02 -0.81647915447E+02  0.14736382355E+03  0.00000000000E+00 0. -1.
         22    1    3    3    0    0 -0.44581941314E+02  0.22475512007E+02  0.46404226512E+02  0.68161942236E+02  0.00000000000E+00 0. -1.
</event>
<event>
 7    1  0.5889087E-006  0.7275008E+02  0.7818608E-02  0.1371555E+00
          2   -1    0    0  502    0  0.00000000000E+00  0.00000000000E+00  0.82021477840E+02  0.82021477840E+02  0.00000000000E+00 0. -1.
          1   -1    0    0  501    0 -0.00000000000E+00 -0.00000000000E+00 -0.48955236114E+03  0.48955236114E+03  0.00000000000E+00 0. -1.
         25    2    1    2    0    0 -0.14609699965E+02  0.45421860557E+02 -0.22369265951E+03  0.26066378132E+03  0.12502244688E+03 0.  0.
          2    1    1    2  501    0 -0.34757658117E+02 -0.81626639058E+02 -0.22179298997E+03  0.23887890949E+03  0.00000000000E+00 0. -1.
          1    1    1    2  502    0  0.49367358081E+02  0.36204778500E+02  0.37954766180E+02  0.72031148165E+02  0.00000000000E+00 0. -1.
         22    1    3    3    0    0 -0.12079978985E+02 -0.37519399719E+02 -0.12836037739E+03  0.13427590153E+03  0.00000000000E+00 0.  1.
         22    1    3    3    0    0 -0.25297209797E+01  0.82941260276E+02 -0.95332282120E+02  0.12638787979E+03  0.00000000000E+00 0.  1.
</event>
<event>
 7    1  0.5889087E-006  0.8444018E+02  0.7818608E-02  0.1341051E+00
          2   -1    0    0  502    0  0.00000000000E+00  0.00000000000E+00  0.66018686302E+03  0.66018686302E+03  0.00000000000E+00 0. -1.
          1   -1    0    0  501    0 -0.00000000000E+00 -0.00000000000E+00 -0.16567694423E+03  0.16567694423E+03  0.00000000000E+00 0. -1.
         25    2    1    2    0    0  0.73976653783E+02  0.14664910867E+02 -0.28486734152E+01  0.14601453230E+03  0.12499809514E+03 0.  0.
          2    1    1    2  501    0 -0.50956824746E+02 -0.78922426659E+02 -0.64439362258E+02  0.11392005454E+03  0.00000000000E+00 0. -1.
          1    1    1    2  502    0 -0.23019829038E+02  0.64257515792E+02  0.56179795446E+03  0.56592922040E+03  0.00000000000E+00 0. -1.
         22    1    3    3    0    0  0.28788747542E+02 -0.45947158782E+02  0.31791191559E+02  0.62853903983E+02  0.00000000000E+00 0.  1.
         22    1    3    3    0    0  0.45187906241E+02  0.60612069648E+02 -0.34639864974E+02  0.83160628322E+02  0.00000000000E+00 0.  1.
</event>
<event>
 7    1  0.5889087E-006  0.2956662E+02  0.7818608E-02  0.1618032E+00
          2   -1    0    0  502    0  0.00000000000E+00  0.00000000000E+00  0.11595101902E+04  0.11595101902E+04  0.00000000000E+00 0. -1.
          1   -1    0    0  501    0 -0.00000000000E+00 -0.00000000000E+00 -0.35974319820E+03  0.35974319820E+03  0.00000000000E+00 0. -1.
         25    2    1    2    0    0 -0.45245171582E+01  0.11646368467E+02  0.10388071638E+03  0.16301842030E+03  0.12501077140E+03 0.  0.
          2    1    1    2  501    0 -0.20749294730E+02 -0.21234007947E+02 -0.32932845051E+03  0.33066394518E+03  0.00000000000E+00 0. -1.
          1    1    1    2  502    0  0.25273811889E+02  0.95876394800E+01  0.10252147262E+04  0.10255710230E+04  0.00000000000E+00 0. -1.
         22    1    3    3    0    0  0.16673476527E+02 -0.15027272920E+02  0.12226192944E+03  0.12430528203E+03  0.00000000000E+00 0. -1.
         22    1    3    3    0    0 -0.21197993686E+02  0.26673641387E+02 -0.18381213054E+02  0.38713138267E+02  0.00000000000E+00 0. -1.
</event>
<event>
 7    1  0.5889087E-006  0.1051965E+03  0.7818608E-02  0.1358387E+00
          2   -1    0    0  502    0  0.00000000000E+00  0.00000000000E+00  0.75545173147E+03  0.75545173147E+03  0.00000000000E+00 0. -1.
          1   -1    0    0  501    0 -0.00000000000E+00 -0.00000000000E+00 -0.22940907174E+03  0.22940907174E+03  0.00000000000E+00 0. -1.
         25    2    1    2    0    0  0.28270466326E+02 -0.54614887982E+02  0.38382825781E+03  0.40832696069E+03  0.12499908030E+03 0.  0.
          2    1    1    2  501    0 -0.32211578434E+02  0.10170293824E+03 -0.20234701505E+03  0.22874743262E+03  0.00000000000E+00 0. -1.
          1    1    1    2  502    0  0.39411121079E+01 -0.47088050259E+02  0.34456141697E+03  0.34778640990E+03  0.00000000000E+00 0. -1.
         22    1    3    3    0    0  0.20699390433E+02 -0.64574867145E+02  0.82735931410E+02  0.10697482217E+03  0.00000000000E+00 0. -1.
         22    1    3    3    0    0  0.75710758932E+01  0.99599791632E+01  0.30109232640E+03  0.30135213852E+03  0.00000000000E+00 0. -1.
</event>
<event>
 7    1  0.5889087E-006  0.5102513E+02  0.7818608E-02  0.1555650E+00
          2   -1    0    0  502    0  0.00000000000E+00  0.00000000000E+00  0.16082068216E+04  0.16082068216E+04  0.00000000000E+00 0. -1.
          1   -1    0    0  501    0 -0.00000000000E+00 -0.00000000000E+00 -0.94128596608E+01  0.94128596608E+01  0.00000000000E+00 0. -1.
         25    2    1    2    0    0 -0.27097838876E+02  0.16412393951E+02  0.70834099065E+03  0.71998273105E+03  0.12499805773E+03 0.  0.
          2    1    1    2  501    0 -0.22404044943E+02  0.49665583850E+01  0.45444454773E+02  0.50909786894E+02  0.00000000000E+00 0. -1.
          1    1    1    2  502    0  0.49501883819E+02 -0.21378952336E+02  0.84500851647E+03  0.84672716327E+03  0.00000000000E+00 0. -1.
         22    1    3    3    0    0 -0.33769688921E+02 -0.30369985451E+02  0.10024742803E+03  0.11005578009E+03  0.00000000000E+00 0. -1.
         22    1    3    3    0    0  0.66718500445E+01  0.46782379401E+02  0.60809356262E+03  0.60992695096E+03  0.00000000000E+00 0. -1.
</event>
<event>
 7    1  0.5889087E-006  0.9078496E+02  0.7818608E-02  0.1458081E+00
          2   -1    0    0  502    0  0.00000000000E+00  0.00000000000E+00  0.10078296966E+04  0.10078296966E+04  0.00000000000E+00 0. -1.
          1   -1    0    0  501    0 -0.00000000000E+00 -0.00000000000E+00 -0.86788693150E+02  0.86788693150E+02  0.00000000000E+00 0. -1.
         25    2    1    2    0    0  0.67539281071E+02  0.15167504978E+00  0.11942984617E+03  0.18560787026E+03  0.12500086342E+03 0.  0.
          2    1    1    2  501    0  0.24983356120E+02  0.21570755743E+01 -0.48115760429E+02  0.54258155697E+02  0.00000000000E+00 0. -1.
          1    1    1    2  502    0 -0.92522637191E+02 -0.23087506241E+01  0.84972691776E+03  0.85475236384E+03  0.00000000000E+00 0. -1.
         22    1    3    3    0    0  0.56865340408E+02 -0.35773290573E+02  0.13028833347E+03  0.14658937579E+03  0.00000000000E+00 0. -1.
         22    1    3    3    0    0  0.10673940663E+02  0.35924965622E+02 -0.10858487298E+02  0.39018494469E+02  0.00000000000E+00 0. -1.
</event>
<event>
 7    1  0.5889087E-006  0.1459463E+03  0.7818608E-02  0.1287528E+00
          2   -1    0    0  502    0  0.00000000000E+00  0.00000000000E+00  0.51030242191E+03  0.51030242191E+03  0.00000000000E+00 0. -1.
          1   -1    0    0  501    0 -0.00000000000E+00 -0.00000000000E+00 -0.11757578910E+04  0.11757578910E+04  0.00000000000E+00 0. -1.
         25    2    1    2    0    0  0.94909371020E+02  0.44570473814E+02 -0.10248099936E+03  0.19266551118E+03  0.12499331232E+03 0.  0.
          2    1    1    2  501    0  0.90587226049E+01  0.63344466700E+02 -0.10150838865E+04  0.10170987555E+04  0.00000000000E+00 0. -1.
          1    1    1    2  502    0 -0.10396809363E+03 -0.10791494051E+03  0.45210941677E+03  0.47629604618E+03  0.00000000000E+00 0. -1.
         22    1    3    3    0    0  0.10524016732E+02  0.12954693855E+02  0.28886148621E+02  0.33361483828E+02  0.00000000000E+00 0.  1.
         22    1    3    3    0    0  0.84385354289E+02  0.31615779959E+02 -0.13136714798E+03  0.15930402735E+03  0.00000000000E+00 0.  1.
</event>
<event>
 7    1  0.5889087E-006  0.8138690E+02  0.7818608E-02  0.1357871E+00
          2   -1    0    0  502    0  0.00000000000E+00  0.00000000000E+00  0.29007101228E+04  0.29007101228E+04  0.00000000000E+00 0. -1.
          1   -1    0    0  501    0 -0.00000000000E+00 -0.00000000000E+00 -0.43784606645E+03  0.43784606645E+03  0.00000000000E+00 0. -1.
         25    2    1    2    0    0  0.83775315316E+02  0.11132953216E+03  0.11403383764E+04  0.11555994032E+04  0.12500319908E+03 0.  0.
          2    1    1    2  501    0 -0.36092152174E+02 -0.72739110076E+02 -0.42584128183E+03  0.43351403541E+03  0.00000000000E+00 0. -1.
          1    1    1    2  502    0 -0.47683163142E+02 -0.38590422082E+02  0.17483669618E+04  0.17494427506E+04  0.00000000000E+00 0. -1.
         22    1    3    3    0    0  0.10804094348E+03  0.91006089858E+02  0.69921089759E+03  0.71333781140E+03  0.00000000000E+00 0.  1.
         22    1    3    3    0    0 -0.24265628160E+02  0.20323442300E+02  0.44112747879E+03  0.44226159178E+03  0.00000000000E+00 0.  1.
</event>
<event>
 7    1  0.5889087E-006  0.7521255E+02  0.7818608E-02  0.1382590E+00
          2   -1    0    0  502    0  0.00000000000E+00  0.00000000000E+00  0.92785836468E+02  0.92785836468E+02  0.00000000000E+00 0. -1.
          1   -1    0    0  501    0 -0.00000000000E+00 -0.00000000000E+00 -0.14623920383E+04  0.14623920383E+04  0.00000000000E+00 0. -1.
         25    2    1    2    0    0 -0.86147531033E+02 -0.79277212621E+02 -0.61816559238E+02  0.18208009104E+03  0.12500239603E+03 0.  0.
          2    1    1    2  501    0  0.33201513753E+02  0.42711977686E+02 -0.13076338681E+04  0.13087524543E+04  0.00000000000E+00 0. -1.
          1    1    1    2  502    0  0.52946017280E+02  0.36565234936E+02 -0.15577445070E+00  0.64345329414E+02  0.00000000000E+00 0. -1.
         22    1    3    3    0    0  0.32232953850E+02 -0.17538304550E+02 -0.52115072668E+01  0.37063664800E+02  0.00000000000E+00 0. -1.
         22    1    3    3    0    0 -0.11838048488E+03 -0.61738908071E+02 -0.56605051971E+02  0.14501642624E+03  0.00000000000E+00 0. -1.
</event>
<event>
 7    1  0.5889087E-006  0.8507530E+02  0.7818608E-02  0.1317669E+00
          2   -1    0    0  502    0  0.00000000000E+00  0.00000000000E+00  0.28894600963E+04  0.28894600963E+04  0.00000000000E+00 0. -1.
          1   -1    0    0  501    0 -0.00000000000E+00 -0.00000000000E+00 -0.66351948043E+03  0.66351948043E+03  0.00000000000E+00 0. -1.
         25    2    1    2    0    0 -0.67951061230E+02 -0.33562256843E+02  0.10050319723E+03  0.17739599174E+03  0.12499869369E+03 0.  0.
          2    1    1    2  501    0  0.70360889591E+02 -0.49638574266E+02 -0.62147418050E+03  0.62741118883E+03  0.00000000000E+00 0. -1.
          1    1    1    2  502    0 -0.24098283604E+01  0.83200831109E+02  0.27469115992E+04  0.27481723962E+04  0.00000000000E+00 0. -1.
         22    1    3    3    0    0 -0.43575128538E+02 -0.20775384854E+01  0.12380141043E+03  0.13126270307E+03  0.00000000000E+00 0. -1.
         22    1    3    3    0    0 -0.24375932693E+02 -0.31484718358E+02 -0.23298213202E+02  0.46133288665E+02  0.00000000000E+00 0. -1.
</event>
<event>
 7    1  0.5889087E-006  0.3741297E+02  0.7818608E-02  0.1573290E+00
          2   -1    0    0  502    0  0.00000000000E+00  0.00000000000E+00  0.94837004749E+03  0.94837004749E+03  0.00000000000E+00 0. -1.
          1   -1    0    0  501    0 -0.00000000000E+00 -0.00000000000E+00 -0.19120979042E+04  0.19120979042E+04  0.00000000000E+00 0. -1.
         25    2    1    2    0    0 -0.38328971531E+02 -0.52813971021E+02  0.13283821747E+03  0.19372326064E+03  0.12499713637E+03 0.  0.
          2    1    1    2  501    0  0.23570268689E+02  0.29014006600E+02 -0.18812199067E+04  0.18815912700E+04  0.00000000000E+00 0. -1.
          1    1    1    2  502    0  0.14758702842E+02  0.23799964420E+02  0.78465383253E+03  0.78515342100E+03  0.00000000000E+00 0. -1.
         22    1    3    3    0    0 -0.12520289777E+02 -0.39655029800E+02  0.15292029395E+03  0.15847364244E+03  0.00000000000E+00 0. -1.
         22    1    3    3    0    0 -0.25808681754E+02 -0.13158941221E+02 -0.20082076482E+02  0.35249618207E+02  0.00000000000E+00 0. -1.
</event>
<event>
 7    1  0.5889087E-006  0.7045591E+02  0.7818608E-02  0.1446630E+00
          2   -1    0    0  502    0  0.00000000000E+00  0.00000000000E+00  0.13082210820E+04  0.13082210820E+04  0.00000000000E+00 0. -1.
          1   -1    0    0  501    0 -0.00000000000E+00 -0.00000000000E+00 -0.13493804994E+03  0.13493804994E+03  0.00000000000E+00 0. -1.
         25    2    1    2    0    0  0.73181124832E+02  0.24709930669E+02  0.34496981359E+03  0.37496037223E+03  0.12500020302E+03 0.  0.
          2    1    1    2  501    0 -0.49244804448E+02 -0.50445165273E+02 -0.10922636698E+03  0.13000063349E+03  0.00000000000E+00 0. -1.
          1    1    1    2  502    0 -0.23936320385E+02  0.25735234603E+02  0.93753958541E+03  0.93819812617E+03  0.00000000000E+00 0. -1.
         22    1    3    3    0    0  0.97084323147E+02  0.28478448161E+01  0.15997529064E+03  0.18715119459E+03  0.00000000000E+00 0. -1.
         22    1    3    3    0    0 -0.23903198315E+02  0.21862085853E+02  0.18499452294E+03  0.18780917764E+03  0.00000000000E+00 0. -1.
</event>
<event>
 7    1  0.5889087E-006  0.9346311E+02  0.7818608E-02  0.1437555E+00
          2   -1    0    0  502    0  0.00000000000E+00  0.00000000000E+00  0.25173657067E+03  0.25173657067E+03  0.00000000000E+00 0. -1.
          1   -1    0    0  501    0 -0.00000000000E+00 -0.00000000000E+00 -0.21561753318E+03  0.21561753318E+03  0.00000000000E+00 0. -1.
         25    2    1    2    0    0 -0.14104467201E+02 -0.10727865496E+03  0.39832188910E+02  0.17006171893E+03  0.12500695648E+03 0.  0.
          2    1    1    2  501    0 -0.17562987666E+02  0.22251655604E+02 -0.13486630461E+03  0.13781333328E+03  0.00000000000E+00 0. -1.
          1    1    1    2  502    0  0.31667454867E+02  0.85026999353E+02  0.13115315319E+03  0.15947905163E+03  0.00000000000E+00 0. -1.
         22    1    3    3    0    0 -0.27505352689E+01 -0.10574415867E+03 -0.21267843819E+02  0.10789677344E+03  0.00000000000E+00 0.  1.
         22    1    3    3    0    0 -0.11353931932E+02 -0.15344962858E+01  0.61100032729E+02  0.62164945497E+02  0.00000000000E+00 0.  1.
</event>
<event>
 7    1  0.5889087E-006  0.2950207E+03  0.7818608E-02  0.1190797E+00
          2   -1    0    0  502    0  0.00000000000E+00  0.00000000000E+00  0.19174787558E+04  0.19174787558E+04  0.00000000000E+00 0. -1.
          1   -1    0    0  501    0 -0.00000000000E+00 -0.00000000000E+00 -0.18803855465E+04  0.18803855465E+04  0.00000000000E+00 0. -1.
         25    2    1    2    0    0 -0.10294372654E+03  0.32437085045E+03  0.88130743374E+02  0.37310247981E+03  0.12499829222E+03 0.  0.
          2    1    1    2  501    0  0.24590064202E+02 -0.29198629025E+03 -0.17244676729E+04  0.17491853589E+04  0.00000000000E+00 0. -1.
          1    1    1    2  502    0  0.78353662341E+02 -0.32384560199E+02  0.16734301388E+04  0.16755764636E+04  0.00000000000E+00 0. -1.
         22    1    3    3    0    0 -0.23377287250E+02  0.16298992543E+03 -0.15630903517E+02  0.16539812119E+03  0.00000000000E+00 0.  1.
         22    1    3    3    0    0 -0.79566439293E+02  0.16138092502E+03  0.10376164689E+03  0.20770435861E+03  0.00000000000E+00 0.  1.
</event>
<event>
 7    1  0.5889087E-006  0.9904223E+02  0.7818608E-02  0.1431890E+00
          2   -1    0    0  502    0  0.00000000000E+00  0.00000000000E+00  0.97444614934E+03  0.97444614934E+03  0.00000000000E+00 0. -1.
          1   -1    0    0  501    0 -0.00000000000E+00 -0.00000000000E+00 -0.63106863859E+03  0.63106863859E+03  0.00000000000E+00 0. -1.
         25    2    1    2    0    0  0.59512565597E+01 -0.98186856136E+02  0.66323824664E+03  0.68204700458E+03  0.12500827367E+03 0.  0.
          2    1    1    2  501    0  0.21921034588E+02  0.96613481728E+02 -0.61705902517E+03  0.62496122852E+03  0.00000000000E+00 0. -1.
          1    1    1    2  502    0 -0.27872291148E+02  0.15733744087E+01  0.29719828929E+03  0.29850655483E+03  0.00000000000E+00 0. -1.
         22    1    3    3    0    0  0.22515028087E+02 -0.32671962584E+02  0.54034346776E+03  0.54179834513E+03  0.00000000000E+00 0.  1.
         22    1    3    3    0    0 -0.16563771527E+02 -0.65514893553E+02  0.12289477887E+03  0.14024865945E+03  0.00000000000E+00 0.  1.
</event>
<event>
 7    1  0.5889087E-006  0.9071217E+02  0.7818608E-02  0.1327313E+00
          2   -1    0    0  502    0  0.00000000000E+00  0.00000000000E+00  0.92546939255E+03  0.92546939255E+03  0.00000000000E+00 0. -1.
          1   -1    0    0  501    0 -0.00000000000E+00 -0.00000000000E+00 -0.54509044498E+03  0.54509044498E+03  0.00000000000E+00 0. -1.
         25    2    1    2    0    0 -0.16142768929E+03 -0.48534245568E+01 -0.28938913752E+03  0.35418998328E+03  0.12498806641E+03 0.  0.
          2    1    1    2  501    0  0.71255188009E+02  0.74445005882E+01 -0.21520189727E+03  0.22681397442E+03  0.00000000000E+00 0. -1.
          1    1    1    2  502    0  0.90172501279E+02 -0.25910760314E+01  0.88496998236E+03  0.88955587983E+03  0.00000000000E+00 0. -1.
         22    1    3    3    0    0 -0.33123086710E+02 -0.38945527657E+02 -0.16322971246E+03  0.17104920937E+03  0.00000000000E+00 0. -1.
         22    1    3    3    0    0 -0.12830460258E+03  0.34092103100E+02 -0.12615942506E+03  0.18314077391E+03  0.00000000000E+00 0. -1.
</event>
<event>
 7    1  0.6922561E-006  0.4536969E+02  0.7818608E-02  0.1501030E+00
          2   -1    0    0  502    0  0.00000000000E+00  0.00000000000E+00  0.19069131917E+04  0.19069131917E+04  0.00000000000E+00 0. -1.
          1   -1    0    0  501    0 -0.00000000000E+00 -0.00000000000E+00 -0.52669697552E+03  0.52669697552E+03  0.00000000000E+00 0. -1.
         25    2    1    2    0    0 -0.71176826810E+02  0.37996781495E+02 -0.73559939641E+02  0.16598395399E+03  0.12501884732E+03 0.  0.
          2    1    1    2  501    0  0.35710048106E+02 -0.98290859973E+01 -0.40580592667E+03  0.40749266078E+03  0.00000000000E+00 0. -1.
          1    1    1    2  502    0  0.35466778704E+02 -0.28167695498E+02  0.18595820824E+04  0.18601335524E+04  0.00000000000E+00 0. -1.
         22    1    3    3    0    0 -0.81366724953E+02  0.53360872437E+02 -0.96171120180E+02  0.13680939658E+03  0.00000000000E+00 0. -1.
         22    1    3    3    0    0  0.10189898143E+02 -0.15364090942E+02  0.22611180539E+02  0.29174557409E+02  0.00000000000E+00 0. -1.
</event>
<event>
 7    1  0.5889087E-006  0.8867954E+02  0.7818608E-02  0.1341392E+00
          2   -1    0    0  502    0  0.00000000000E+00  0.00000000000E+00  0.13273925549E+04  0.13273925549E+04  0.00000000000E+00 0. -1.
          1   -1    0    0  501    0 -0.00000000000E+00 -0.00000000000E+00 -0.53289985198E+02  0.53289985198E+02  0.00000000000E+00 0. -1.
         25    2    1    2    0    0 -0.13133788120E+03 -0.65898519292E+02  0.30241457124E+03  0.35870765452E+03  0.12499741850E+03 0.  0.
          2    1    1    2  501    0  0.50189157247E+02  0.40991856359E+02  0.21901776829E+02  0.68403008860E+02  0.00000000000E+00 0. -1.
          1    1    1    2  502    0  0.81148723955E+02  0.24906662933E+02  0.94978622159E+03  0.95357187668E+03  0.00000000000E+00 0. -1.
         22    1    3    3    0    0 -0.75653934511E+02 -0.10004406929E+03  0.17231241514E+03  0.21312883901E+03  0.00000000000E+00 0.  1.
         22    1    3    3    0    0 -0.55683946691E+02  0.34145549996E+02  0.13010215610E+03  0.14557881551E+03  0.00000000000E+00 0.  1.
</event>
<event>
 7    1  0.6633470E-006  0.8577938E+02  0.7818608E-02  0.1479960E+00
          2   -1    0    0  502    0  0.00000000000E+00  0.00000000000E+00  0.14964872693E+04  0.14964872693E+04  0.00000000000E+00 0. -1.
          1   -1    0    0  501    0 -0.00000000000E+00 -0.00000000000E+00 -0.64711603096E+03  0.64711603096E+03  0.00000000000E+00 0. -1.
         25    2    1    2    0    0 -0.10077977474E+03 -0.10017643142E+02 -0.20341132443E+03  0.25934262595E+03  0.12500205822E+03 0.  0.
          2    1    1    2  501    0  0.15337656741E+02  0.16714128981E+02 -0.41417796425E+03  0.41479873661E+03  0.00000000000E+00 0. -1.
          1    1    1    2  502    0  0.85442118003E+02 -0.66964858390E+01  0.14669605270E+04  0.14694619377E+04  0.00000000000E+00 0. -1.
         22    1    3    3    0    0  0.21251741156E+02  0.33916350380E+01 -0.88875643907E+02  0.91444080018E+02  0.00000000000E+00 0. -1.
         22    1    3    3    0    0 -0.12203151590E+03 -0.13409278180E+02 -0.11453568053E+03  0.16789854594E+03  0.00000000000E+00 0. -1.
</event>
<event>
 7    1  0.5889087E-006  0.3100217E+03  0.7818608E-02  0.1175806E+00
          2   -1    0    0  502    0  0.00000000000E+00  0.00000000000E+00  0.18799821546E+04  0.18799821546E+04  0.00000000000E+00 0. -1.
          1   -1    0    0  501    0 -0.00000000000E+00 -0.00000000000E+00 -0.44235058038E+03  0.44235058038E+03  0.00000000000E+00 0. -1.
         25    2    1    2    0    0  0.26379611601E+02  0.32796903938E+03  0.18266396911E+03  0.39654879099E+03  0.12500097331E+03 0.  0.
          2    1    1    2  501    0  0.65162462468E+02 -0.30113081517E+03 -0.26283940806E+03  0.40498205983E+03  0.00000000000E+00 0. -1.
          1    1    1    2  502    0 -0.91542074068E+02 -0.26838224215E+02  0.15178070131E+04  0.15208018841E+04  0.00000000000E+00 0. -1.
         22    1    3    3    0    0  0.56129705736E+02  0.15848329944E+03  0.39507141700E+02  0.17270875575E+03  0.00000000000E+00 0.  1.
         22    1    3    3    0    0 -0.29750094136E+02  0.16948573994E+03  0.14315682741E+03  0.22384003524E+03  0.00000000000E+00 0.  1.
</event>
<event>
 7    1  0.5889087E-006  0.1081772E+03  0.7818608E-02  0.1367323E+00
          2   -1    0    0  502    0  0.00000000000E+00  0.00000000000E+00  0.66995585834E+03  0.66995585834E+03  0.00000000000E+00 0. -1.
          1   -1    0    0  501    0 -0.00000000000E+00 -0.00000000000E+00 -0.43561574040E+03  0.43561574040E+03  0.00000000000E+00 0. -1.
         25    2    1    2    0    0 -0.78196951450E+02  0.84477803623E+02 -0.44247022252E+02  0.17559762605E+03  0.12500185908E+03 0.  0.
          2    1    1    2  501    0  0.38880279119E+02 -0.10098254295E+03 -0.31592082806E+03  0.33393879632E+03  0.00000000000E+00 0. -1.
          1    1    1    2  502    0  0.39316672331E+02  0.16504739327E+02  0.59450796826E+03  0.59603517637E+03  0.00000000000E+00 0. -1.
         22    1    3    3    0    0 -0.78656935792E+02  0.77503890565E+01  0.12691372644E+02  0.80050315541E+02  0.00000000000E+00 0.  1.
         22    1    3    3    0    0  0.45998434139E+00  0.76727414567E+02 -0.56938394896E+02  0.95547310507E+02  0.00000000000E+00 0.  1.
</event>
<event>
 7    1  0.5889087E-006  0.1257328E+03  0.7818608E-02  0.1313216E+00
          2   -1    0    0  502    0  0.00000000000E+00  0.00000000000E+00  0.76330014536E+03  0.76330014536E+03  0.00000000000E+00 0. -1.
          1   -1    0    0  501    0 -0.00000000000E+00 -0.00000000000E+00 -0.20992144666E+03  0.20992144666E+03  0.00000000000E+00 0. -1.
         25    2    1    2    0    0  0.10082133612E+03  0.74980208635E+02  0.69759159151E+02  0.19046973068E+03  0.12500161805E+03 0.  0.
          2    1    1    2  501    0 -0.57515897598E+02 -0.11449263715E+03 -0.12044395359E+03  0.17585047169E+03  0.00000000000E+00 0. -1.
          1    1    1    2  502    0 -0.43305438517E+02  0.39512428514E+02  0.60406349315E+03  0.60690138965E+03  0.00000000000E+00 0. -1.
         22    1    3    3    0    0  0.12497920348E+03  0.33831418034E+02  0.52805629955E+02  0.13983132948E+03  0.00000000000E+00 0. -1.
         22    1    3    3    0    0 -0.24157867367E+02  0.41148790601E+02  0.16953529197E+02  0.50638401197E+02  0.00000000000E+00 0. -1.
</event>
<event>
 7    1  0.5889087E-006  0.1241856E+03  0.7818608E-02  0.1342649E+00
          2   -1    0    0  502    0  0.00000000000E+00  0.00000000000E+00  0.22994763138E+03  0.22994763138E+03  0.00000000000E+00 0. -1.
          1   -1    0    0  501    0 -0.00000000000E+00 -0.00000000000E+00 -0.37385850636E+04  0.37385850636E+04  0.00000000000E+00 0. -1.
         25    2    1    2    0    0  0.13309521257E+03 -0.10108501517E+03 -0.13605574546E+04  0.13764715313E+04  0.12499909254E+03 0.  0.
          2    1    1    2  501    0 -0.27666962588E+02  0.36467385220E+02 -0.23526108221E+04  0.23530561003E+04  0.00000000000E+00 0. -1.
          1    1    1    2  502    0 -0.10542824998E+03  0.64617629946E+02  0.20453084448E+03  0.23900506342E+03  0.00000000000E+00 0. -1.
         22    1    3    3    0    0  0.92649885216E+02 -0.93139757619E+02 -0.12722870384E+04  0.12790517283E+04  0.00000000000E+00 0. -1.
         22    1    3    3    0    0  0.40445327353E+02 -0.79452575468E+01 -0.88270416280E+02  0.97419802979E+02  0.00000000000E+00 0. -1.
</event>
<event>
 7    1  0.5889087E-006  0.1404334E+03  0.7818608E-02  0.1214190E+00
          2   -1    0    0  502    0  0.00000000000E+00  0.00000000000E+00  0.23178957953E+04  0.23178957953E+04  0.00000000000E+00 0. -1.
          1   -1    0    0  501    0 -0.00000000000E+00 -0.00000000000E+00 -0.20497014577E+04  0.20497014577E+04  0.00000000000E+00 0. -1.
         25    2    1    2    0    0  0.31183234945E+02 -0.16466199319E+03  0.15479706113E+03  0.26014230892E+03  0.12500369840E+03 0.  0.
          2    1    1    2  501    0  0.93687992299E+02  0.10521603294E+03 -0.19922729291E+04  0.19972479259E+04  0.00000000000E+00 0. -1.
          1    1    1    2  502    0 -0.12487122724E+03  0.59445960247E+02  0.21056702055E+04  0.21102070183E+04  0.00000000000E+00 0. -1.
         22    1    3    3    0    0  0.17214346982E+02 -0.87845815912E+02  0.31447019340E+01  0.89571816245E+02  0.00000000000E+00 0. -1.
         22    1    3    3    0    0  0.13968887964E+02 -0.76816177278E+02  0.15165235919E+03  0.17057049268E+03  0.00000000000E+00 0. -1.
</event>
<event>
 7    1  0.5889087E-006  0.4034317E+02  0.7818608E-02  0.1547227E+00
          2   -1    0    0  502    0  0.00000000000E+00  0.00000000000E+00  0.18894638293E+03  0.18894638293E+03  0.00000000000E+00 0. -1.
          1   -1    0    0  501    0 -0.00000000000E+00 -0.00000000000E+00 -0.35598294080E+03  0.35598294080E+03  0.00000000000E+00 0. -1.
         25    2    1    2    0    0 -0.25543514224E+00  0.15218022175E+02 -0.19121044091E+03  0.22896214147E+03  0.12502230228E+03 0.  0.
          2    1    1    2  501    0  0.12134775826E+02 -0.43455299403E+02 -0.14096583602E+03  0.14801007653E+03  0.00000000000E+00 0. -1.
          1    1    1    2  502    0 -0.11879340684E+02  0.28237277229E+02  0.16513971904E+03  0.16795710573E+03  0.00000000000E+00 0. -1.
         22    1    3    3    0    0 -0.10893170558E+02  0.11920847034E+02 -0.20810306841E+03  0.20872866320E+03  0.00000000000E+00 0. -1.
         22    1    3    3    0    0  0.10637735416E+02  0.32971751411E+01  0.16892627506E+02  0.20233478266E+02  0.00000000000E+00 0. -1.
</event>
<event>
 7    1  0.5889087E-006  0.6347262E+02  0.7818608E-02  0.1425154E+00
          2   -1    0    0  502    0  0.00000000000E+00  0.00000000000E+00  0.85248919807E+02  0.85248919807E+02  0.00000000000E+00 0. -1.
          1   -1    0    0  501    0 -0.00000000000E+00 -0.00000000000E+00 -0.46762767428E+03  0.46762767428E+03  0.00000000000E+00 0. -1.
         25    2    1    2    0    0 -0.28140414252E+02  0.69701688932E+02 -0.18923767458E+03  0.23892603493E+03  0.12499817732E+03 0.  0.
          2    1    1    2  501    0  0.54837577392E+02 -0.32428649700E+02 -0.24004833594E+03  0.24835857304E+03  0.00000000000E+00 0. -1.
          1    1    1    2  502    0 -0.26697163140E+02 -0.37273039232E+02  0.46907256044E+02  0.65591986118E+02  0.00000000000E+00 0. -1.
         22    1    3    3    0    0  0.45475882557E+01 -0.18337426101E+02  0.79654074023E+01  0.20503401426E+02  0.00000000000E+00 0.  1.
         22    1    3    3    0    0 -0.32688002507E+02  0.88039115033E+02 -0.19720308198E+03  0.21842263350E+03  0.00000000000E+00 0.  1.
</event>
<event>
 7    1  0.5889087E-006  0.4817518E+02  0.7818608E-02  0.1475566E+00
          2   -1    0    0  502    0  0.00000000000E+00  0.00000000000E+00  0.91506409429E+02  0.91506409429E+02  0.00000000000E+00 0. -1.
          1   -1    0    0  501    0 -0.00000000000E+00 -0.00000000000E+00 -0.96449848007E+03  0.96449848007E+03  0.00000000000E+00 0. -1.
         25    2    1    2    0    0  0.32573454164E+02  0.56081354081E+01 -0.30307494879E+03  0.32950849885E+03  0.12501577951E+03 0.  0.
          2    1    1    2  501    0  0.46946023329E+00 -0.41666864811E+02 -0.63982380976E+03  0.64117926943E+03  0.00000000000E+00 0. -1.
          1    1    1    2  502    0 -0.33042914398E+02  0.36058729403E+02  0.69906687912E+02  0.85317121218E+02  0.00000000000E+00 0. -1.
         22    1    3    3    0    0  0.36244518669E+02 -0.78045221308E+01 -0.31120140464E+03  0.31340212180E+03  0.00000000000E+00 0.  1.
         22    1    3    3    0    0 -0.36710645051E+01  0.13412657539E+02  0.81264558480E+01  0.16106377045E+02  0.00000000000E+00 0.  1.
</event>
<event>
 7    1  0.5889087E-006  0.1120099E+03  0.7818608E-02  0.1351713E+00
          2   -1    0    0  502    0  0.00000000000E+00  0.00000000000E+00  0.17191406609E+04  0.17191406609E+04  0.00000000000E+00 0. -1.
          1   -1    0    0  501    0 -0.00000000000E+00 -0.00000000000E+00 -0.91582269129E+03  0.91582269129E+03  0.00000000000E+00 0. -1.
         25    2    1    2    0    0 -0.88934465132E+02  0.70124385062E+02  0.12241199128E+03  0.20841409567E+03  0.12499988479E+03 0.  0.
          2    1    1    2  501    0  0.36643818594E+02  0.29365325538E+02 -0.87015512300E+03  0.87142127004E+03  0.00000000000E+00 0. -1.
          1    1    1    2  502    0  0.52290646538E+02 -0.99489710600E+02  0.15510611013E+04  0.15551279865E+04  0.00000000000E+00 0. -1.
         22    1    3    3    0    0 -0.70051403301E+02 -0.75355662795E+01  0.10527304512E+03  0.12667437741E+03  0.00000000000E+00 0.  1.
         22    1    3    3    0    0 -0.18883061831E+02  0.77659951341E+02  0.17138946160E+02  0.81739718264E+02  0.00000000000E+00 0.  1.
</event>
<event>
 7    1  0.5889087E-006  0.3024867E+03  0.7818608E-02  0.1116510E+00
          2   -1    0    0  502    0  0.00000000000E+00  0.00000000000E+00  0.48279630359E+03  0.48279630359E+03  0.00000000000E+00 0. -1.
          1   -1    0    0  501    0 -0.00000000000E+00 -0.00000000000E+00 -0.20387086326E+04  0.20387086326E+04  0.00000000000E+00 0. -1.
         25    2    1    2    0    0  0.18116866253E+03 -0.36035037933E+03 -0.72881358654E+03  0.84230059364E+03  0.12500626369E+03 0.  0.
          2    1    1    2  501    0 -0.22768885885E+03  0.16745200066E+03 -0.12128839104E+04  0.12453793676E+04  0.00000000000E+00 0. -1.
          1    1    1    2  502    0  0.46520196322E+02  0.19289837867E+03  0.38578516793E+03  0.43382497502E+03  0.00000000000E+00 0. -1.
         22    1    3    3    0    0  0.19243311818E+03 -0.28309351062E+03 -0.56046885230E+03  0.65673265118E+03  0.00000000000E+00 0. -1.
         22    1    3    3    0    0 -0.11264455652E+02 -0.77256868714E+02 -0.16834473423E+03  0.18556794246E+03  0.00000000000E+00 0. -1.
</event>
<event>
 7    1  0.5889087E-006  0.7224530E+02  0.7818608E-02  0.1490471E+00
          2   -1    0    0  502    0  0.00000000000E+00  0.00000000000E+00  0.20971297603E+03  0.20971297603E+03  0.00000000000E+00 0. -1.
          1   -1    0    0  501    0 -0.00000000000E+00 -0.00000000000E+00 -0.13474757388E+04  0.13474757388E+04  0.00000000000E+00 0. -1.
         25    2    1    2    0    0  0.74316020566E+02 -0.19034352873E+02 -0.25422088277E+03  0.29349241892E+03  0.12499746087E+03 0.  0.
          2    1    1    2  501    0 -0.23198757363E+01  0.24912927197E+02 -0.10666040670E+04  0.10668974981E+04  0.00000000000E+00 0. -1.
          1    1    1    2  502    0 -0.71996144830E+02 -0.58785743237E+01  0.18306218699E+03  0.19679879779E+03  0.00000000000E+00 0. -1.
         22    1    3    3    0    0  0.36426724194E+02 -0.59036052310E+02 -0.60359510421E+02  0.91953424113E+02  0.00000000000E+00 0. -1.
         22    1    3    3    0    0  0.37889296372E+02  0.40001699437E+02 -0.19386137235E+03  0.20153899480E+03  0.00000000000E+00 0. -1.
</event>
<event>
 7    1  0.5889087E-006  0.6486998E+02  0.7818608E-02  0.1386818E+00
          2   -1    0    0  502    0  0.00000000000E+00  0.00000000000E+00  0.19815829973E+04  0.19815829973E+04  0.00000000000E+00 0. -1.
          1   -1    0    0  501    0 -0.00000000000E+00 -0.00000000000E+00 -0.59976628100E+03  0.59976628100E+03  0.00000000000E+00 0. -1.
         25    2    1    2    0    0  0.19981096815E+02 -0.34341577633E+01  0.24608049658E+03  0.27675092703E+03  0.12499770855E+03 0.  0.
          2    1    1    2  501    0  0.20729061511E+02  0.56957895362E+02 -0.58219990468E+03  0.58534658524E+03  0.00000000000E+00 0. -1.
          1    1    1    2  502    0 -0.40710158326E+02 -0.53523737599E+02  0.17179361244E+04  0.17192517660E+04  0.00000000000E+00 0. -1.
         22    1    3    3    0    0 -0.15122267531E+02  0.52055825871E+02  0.68074834194E+02  0.87021118316E+02  0.00000000000E+00 0. -1.
         22    1    3    3    0    0  0.35103364346E+02 -0.55489983635E+02  0.17800566239E+03  0.18972980871E+03  0.00000000000E+00 0. -1.
</event>
<event>
 7    1  0.5889087E-006  0.8969946E+02  0.7818608E-02  0.1375312E+00
          2   -1    0    0  502    0  0.00000000000E+00  0.00000000000E+00  0.49011061844E+03  0.49011061844E+03  0.00000000000E+00 0. -1.
          1   -1    0    0  501    0 -0.00000000000E+00 -0.00000000000E+00 -0.13620722523E+04  0.13620722523E+04  0.00000000000E+00 0. -1.
         25    2    1    2    0    0 -0.51516005645E+02 -0.18766852906E+02 -0.75700184732E+03  0.76921080691E+03  0.12500949972E+03 0.  0.
          2    1    1    2  501    0 -0.37713563516E+02  0.29918468366E+02 -0.59380669279E+03  0.59575482879E+03  0.00000000000E+00 0. -1.
          1    1    1    2  502    0  0.89229569162E+02 -0.11151615461E+02  0.47884690622E+03  0.48721723506E+03  0.00000000000E+00 0. -1.
         22    1    3    3    0    0 -0.33442463017E+02 -0.72459232357E+02 -0.43268397119E+03  0.43998199692E+03  0.00000000000E+00 0.  1.
         22    1    3    3    0    0 -0.18073542628E+02  0.53692379451E+02 -0.32431787613E+03  0.32922880999E+03  0.00000000000E+00 0.  1.
</event>
<event>
 7    1  0.5889087E-006  0.9788033E+02  0.7818608E-02  0.1370122E+00
          2   -1    0    0  502    0  0.00000000000E+00  0.00000000000E+00  0.36432356659E+02  0.36432356659E+02  0.00000000000E+00 0. -1.
          1   -1    0    0  501    0 -0.00000000000E+00 -0.00000000000E+00 -0.10907364099E+04  0.10907364099E+04  0.00000000000E+00 0. -1.
         25    2    1    2    0    0  0.56029482953E+02  0.29631960125E+02 -0.17176972293E+03  0.22169044376E+03  0.12499783645E+03 0.  0.
          2    1    1    2  501    0 -0.72439090654E+02 -0.72653604409E+02 -0.82699344553E+03  0.83333314289E+03  0.00000000000E+00 0. -1.
          1    1    1    2  502    0  0.16409607701E+02  0.43021644284E+02 -0.55540884766E+02  0.72145179897E+02  0.00000000000E+00 0. -1.
         22    1    3    3    0    0 -0.26285922102E+02  0.36080100116E+02 -0.10957576801E+03  0.11831978812E+03  0.00000000000E+00 0.  1.
         22    1    3    3    0    0  0.82315405055E+02 -0.64481399917E+01 -0.62193954920E+02  0.10337065564E+03  0.00000000000E+00 0.  1.
</event>
<event>
 7    1  0.5889087E-006  0.1078295E+03  0.7818608E-02  0.1293970E+00
          2   -1    0    0  502    0  0.00000000000E+00  0.00000000000E+00  0.11439989856E+04  0.11439989856E+04  0.00000000000E+00 0. -1.
          1   -1    0    0  501    0 -0.00000000000E+00 -0.00000000000E+00 -0.56690255476E+03  0.56690255476E+03  0.00000000000E+00 0. -1.
         25    2    1    2    0    0 -0.98145686987E+01 -0.14286639804E+03  0.89248634344E+02  0.20999495408E+03  0.12500171423E+03 0.  0.
          2    1    1    2  501    0 -0.56636348900E+02  0.58666694704E+02 -0.50032638443E+03  0.50692795153E+03  0.00000000000E+00 0. -1.
          1    1    1    2  502    0  0.66450917599E+02  0.84199703337E+02  0.98817418093E+03  0.99397863475E+03  0.00000000000E+00 0. -1.
         22    1    3    3    0    0 -0.60564796731E+02 -0.36689552616E+02  0.20569968415E+02  0.73738331110E+02  0.00000000000E+00 0.  1.
         22    1    3    3    0    0  0.50750228033E+02 -0.10617684543E+03  0.68678665929E+02  0.13625662297E+03  0.00000000000E+00 0.  1.
</event>
<event>
 7    1  0.5889087E-006  0.6594732E+02  0.7818608E-02  0.1384177E+00
          2   -1    0    0  502    0  0.00000000000E+00  0.00000000000E+00  0.11734695782E+03  0.11734695782E+03  0.00000000000E+00 0. -1.
          1   -1    0    0  501    0 -0.00000000000E+00 -0.00000000000E+00 -0.12301218458E+04  0.12301218458E+04  0.00000000000E+00 0. -1.
         25    2    1    2    0    0 -0.22703466162E+01 -0.21094412546E+02 -0.10812286686E+01  0.12679112166E+03  0.12499876304E+03 0.  0.
          2    1    1    2  501    0  0.41951470944E+02 -0.50883426833E+02 -0.11336800412E+04  0.11355965326E+04  0.00000000000E+00 0. -1.
          1    1    1    2  502    0 -0.39681124328E+02  0.71977839379E+02  0.21986381882E+02  0.85081149369E+02  0.00000000000E+00 0. -1.
         22    1    3    3    0    0  0.11961311155E+02 -0.32353070580E+02  0.56622339687E+02  0.66301459201E+02  0.00000000000E+00 0.  1.
         22    1    3    3    0    0 -0.14231657771E+02  0.11258658034E+02 -0.57703568356E+02  0.60489662461E+02  0.00000000000E+00 0.  1.
</event>
<event>
 7    1  0.5889087E-006  0.1185849E+03  0.7818608E-02  0.1287411E+00
          2   -1    0    0  502    0  0.00000000000E+00  0.00000000000E+00  0.56982095886E+03  0.56982095886E+03  0.00000000000E+00 0. -1.
          1   -1    0    0  501    0 -0.00000000000E+00 -0.00000000000E+00 -0.52251509587E+03  0.52251509587E+03  0.00000000000E+00 0. -1.
         25    2    1    2    0    0  0.15773779244E+03  0.67418496131E+02 -0.95619789638E+01  0.21247116050E+03  0.12500439120E+03 0.  0.
          2    1    1    2  501    0 -0.80381383733E+02 -0.82643954956E+02 -0.39998033080E+03  0.41626368467E+03  0.00000000000E+00 0. -1.
          1    1    1    2  502    0 -0.77356408704E+02  0.15225458825E+02  0.45684817276E+03  0.46360120957E+03  0.00000000000E+00 0. -1.
         22    1    3    3    0    0  0.11512744238E+03  0.10471416165E+03 -0.64961508445E+01  0.15576130333E+03  0.00000000000E+00 0. -1.
         22    1    3    3    0    0  0.42610350058E+02 -0.37295665517E+02 -0.30658281193E+01  0.56709857172E+02  0.00000000000E+00 0. -1.
</event>
<event>
 7    1  0.5889087E-006  0.2011741E+03  0.7818608E-02  0.1270816E+00
          2   -1    0    0  502    0  0.00000000000E+00  0.00000000000E+00  0.12749361728E+04  0.12749361728E+04  0.00000000000E+00 0. -1.
          1   -1    0    0  501    0 -0.00000000000E+00 -0.00000000000E+00 -0.10400728682E+03  0.10400728682E+03  0.00000000000E+00 0. -1.
         25    2    1    2    0    0  0.16127910406E+03 -0.16909668791E+03  0.51279728723E+03  0.57722658228E+03  0.12499932090E+03 0.  0.
          2    1    1    2  501    0 -0.15619306817E+03  0.11489924773E+03  0.62678912164E+02  0.20378115149E+03  0.00000000000E+00 0. -1.
          1    1    1    2  502    0 -0.50860358866E+01  0.54197440186E+02  0.59545268660E+03  0.59793572586E+03  0.00000000000E+00 0. -1.
         22    1    3    3    0    0  0.26452040111E+01  0.55097891692E+01  0.11192252306E+03  0.11208927714E+03  0.00000000000E+00 0.  1.
         22    1    3    3    0    0  0.15863390005E+03 -0.17460647708E+03  0.40087476417E+03  0.46513730514E+03  0.00000000000E+00 0.  1.
</event>
<event>
 7    1  0.5889087E-006  0.6720227E+02  0.7818608E-02  0.1400626E+00
          2   -1    0    0  502    0  0.00000000000E+00  0.00000000000E+00  0.47726419168E+03  0.47726419168E+03  0.00000000000E+00 0. -1.
          1   -1    0    0  501    0 -0.00000000000E+00 -0.00000000000E+00 -0.40681701849E+03  0.40681701849E+03  0.00000000000E+00 0. -1.
         25    2    1    2    0    0 -0.46022451044E+02 -0.30672635364E+02 -0.13783545754E+03  0.19411840488E+03  0.12499786077E+03 0.  0.
          2    1    1    2  501    0  0.37608919316E+02 -0.36481565478E+02 -0.23539351072E+03  0.24115439105E+03  0.00000000000E+00 0. -1.
          1    1    1    2  502    0  0.84135317282E+01  0.67154200842E+02  0.44367614144E+03  0.44880841424E+03  0.00000000000E+00 0. -1.
         22    1    3    3    0    0 -0.46832554709E+01  0.33816895373E+02 -0.10565125477E+03  0.11103018927E+03  0.00000000000E+00 0. -1.
         22    1    3    3    0    0 -0.41339195574E+02 -0.64489530737E+02 -0.32184202767E+02  0.83088215609E+02  0.00000000000E+00 0. -1.
</event>
<event>
 7    1  0.5889087E-006  0.1041003E+03  0.7818608E-02  0.1297954E+00
          2   -1    0    0  502    0  0.00000000000E+00  0.00000000000E+00  0.17847410935E+04  0.17847410935E+04  0.00000000000E+00 0. -1.
          1   -1    0    0  501    0 -0.00000000000E+00 -0.00000000000E+00 -0.12179305085E+04  0.12179305085E+04  0.00000000000E+00 0. -1.
         25    2    1    2    0    0 -0.32905632713E+02  0.71985379147E+02  0.14134072396E+03  0.20461503208E+03  0.12500174249E+03 0.  0.
          2    1    1    2  501    0 -0.69771662470E+02 -0.41928499000E+02 -0.11831179424E+04  0.11859148998E+04  0.00000000000E+00 0. -1.
          1    1    1    2  502    0  0.10267729518E+03 -0.30056880147E+02  0.16085878035E+04  0.16121416701E+04  0.00000000000E+00 0. -1.
         22    1    3    3    0    0 -0.39562002844E+02  0.90287997394E+02  0.48699247267E+02  0.10994858447E+03  0.00000000000E+00 0.  1.
         22    1    3    3    0    0  0.66563701311E+01 -0.18302618247E+02  0.92641476696E+02  0.94666447607E+02  0.00000000000E+00 0.  1.
</event>
<event>
 7    1  0.5889087E-006  0.1110881E+03  0.7818608E-02  0.1317147E+00
          2   -1    0    0  502    0  0.00000000000E+00  0.00000000000E+00  0.13681523245E+04  0.13681523245E+04  0.00000000000E+00 0. -1.
          1   -1    0    0  501    0 -0.00000000000E+00 -0.00000000000E+00 -0.14368479919E+03  0.14368479919E+03  0.00000000000E+00 0. -1.
         25    2    1    2    0    0 -0.43630848689E+02 -0.52909394401E+02  0.27657338811E+03  0.31116274468E+03  0.12500543865E+03 0.  0.
          2    1    1    2  501    0  0.11020503832E+02 -0.63089119253E+02 -0.11464712201E+03  0.13132269818E+03  0.00000000000E+00 0. -1.
          1    1    1    2  502    0  0.32610344856E+02  0.11599851365E+03  0.10625412592E+04  0.10693516808E+04  0.00000000000E+00 0. -1.
         22    1    3    3    0    0  0.44132907539E+02 -0.17341776648E+02  0.80719542449E+02  0.93616746784E+02  0.00000000000E+00 0.  1.
         22    1    3    3    0    0 -0.87763756228E+02 -0.35567617752E+02  0.19585384566E+03  0.21754599790E+03  0.00000000000E+00 0.  1.
</event>
<event>
 7    1  0.5889087E-006  0.1075630E+03  0.7818608E-02  0.1299917E+00
          2   -1    0    0  502    0  0.00000000000E+00  0.00000000000E+00  0.48049722539E+03  0.48049722539E+03  0.00000000000E+00 0. -1.
          1   -1    0    0  501    0 -0.00000000000E+00 -0.00000000000E+00 -0.88738504312E+03  0.88738504312E+03  0.00000000000E+00 0. -1.
         25    2    1    2    0    0  0.57976592581E+02 -0.15090837213E+03 -0.17433196874E+03  0.26861579033E+03  0.12501274104E+03 0.  0.
          2    1    1    2  501    0 -0.72029000772E+02  0.74830293707E+02 -0.65835420159E+03  0.66649681512E+03  0.00000000000E+00 0. -1.
          1    1    1    2  502    0  0.14052408191E+02  0.76078078420E+02  0.42579835260E+03  0.43276966307E+03  0.00000000000E+00 0. -1.
         22    1    3    3    0    0  0.46340092276E+02 -0.16880725843E+03 -0.12571219770E+03  0.21551531570E+03  0.00000000000E+00 0.  1.
         22    1    3    3    0    0  0.11636500305E+02  0.17898886298E+02 -0.48619771040E+02  0.53100474630E+02  0.00000000000E+00 0.  1.
</event>
<event>
 7    1  0.5889087E-006  0.5671022E+02  0.7818608E-02  0.1424788E+00
          2   -1    0    0  502    0  0.00000000000E+00  0.00000000000E+00  0.14220803680E+04  0.14220803680E+04  0.00000000000E+00 0. -1.
          1   -1    0    0  501    0 -0.00000000000E+00 -0.00000000000E+00 -0.25266891143E+02  0.25266891143E+02  0.00000000000E+00 0. -1.
         25    2    1    2    0    0 -0.11726783778E+02  0.63998912500E+01  0.31371759332E+03  0.33796948094E+03  0.12500466241E+03 0.  0.
          2    1    1    2  501    0  0.12804750109E+01 -0.62139680216E+02  0.65839260826E+02  0.90541635394E+02  0.00000000000E+00 0. -1.
          1    1    1    2  502    0  0.10446308767E+02  0.55739788966E+02  0.10172566227E+04  0.10188361428E+04  0.00000000000E+00 0. -1.
         22    1    3    3    0    0 -0.11144369473E+02 -0.27425332332E+02  0.30001107854E+03  0.30146806310E+03  0.00000000000E+00 0.  1.
         22    1    3    3    0    0 -0.58241430474E+00  0.33825223582E+02  0.13706514779E+02  0.36501417838E+02  0.00000000000E+00 0.  1.
</event>
<event>
 7    1  0.5889087E-006  0.3006042E+02  0.7818608E-02  0.1638074E+00
          2   -1    0    0  502    0  0.00000000000E+00  0.00000000000E+00  0.14808434898E+04  0.14808434898E+04  0.00000000000E+00 0. -1.
          1   -1    0    0  501    0 -0.00000000000E+00 -0.00000000000E+00 -0.44790217581E+02  0.44790217581E+02  0.00000000000E+00 0. -1.
         25    2    1    2    0    0 -0.10430854953E+01 -0.76235096595E+01  0.66646726593E+03  0.67813252306E+03  0.12500358534E+03 0.  0.
          2    1    1    2  501    0  0.17266516370E+02  0.24855341147E+02 -0.32879003900E+02  0.44687240556E+02  0.00000000000E+00 0. -1.
          1    1    1    2  502    0 -0.16223430875E+02 -0.17231831487E+02  0.80246501021E+03  0.80281394378E+03  0.00000000000E+00 0. -1.
         22    1    3    3    0    0 -0.14189420374E+02 -0.51909820372E+02  0.14570398680E+03  0.15532424431E+03  0.00000000000E+00 0.  1.
         22    1    3    3    0    0  0.13146334879E+02  0.44286310712E+02  0.52076327914E+03  0.52280827875E+03  0.00000000000E+00 0.  1.
</event>
<event>
 7    1  0.5889087E-006  0.6008835E+02  0.7818608E-02  0.1453480E+00
          2   -1    0    0  502    0  0.00000000000E+00  0.00000000000E+00  0.40186287035E+02  0.40186287035E+02  0.00000000000E+00 0. -1.
          1   -1    0    0  501    0 -0.00000000000E+00 -0.00000000000E+00 -0.92670541822E+03  0.92670541822E+03  0.00000000000E+00 0. -1.
         25    2    1    2    0    0  0.57564165062E+01  0.72585649941E+02 -0.60566723249E+03  0.62270386097E+03  0.12500195619E+03 0.  0.
          2    1    1    2  501    0 -0.35229227891E+02 -0.46766910042E+02 -0.29633003474E+03  0.30205915292E+03  0.00000000000E+00 0. -1.
          1    1    1    2  502    0  0.29472811385E+02 -0.25818739898E+02  0.15478136043E+02  0.42128691366E+02  0.00000000000E+00 0. -1.
         22    1    3    3    0    0 -0.30990477930E+02  0.96136152136E+02 -0.41970085549E+03  0.43168434946E+03  0.00000000000E+00 0. -1.
         22    1    3    3    0    0  0.36746894436E+02 -0.23550502196E+02 -0.18596637700E+03  0.19101951152E+03  0.00000000000E+00 0. -1.
</event>
<event>
 7    1  0.5889087E-006  0.1199716E+03  0.7818608E-02  0.1269366E+00
          2   -1    0    0  502    0  0.00000000000E+00  0.00000000000E+00  0.23840104213E+03  0.23840104213E+03  0.00000000000E+00 0. -1.
          1   -1    0    0  501    0 -0.00000000000E+00 -0.00000000000E+00 -0.22787454437E+03  0.22787454437E+03  0.00000000000E+00 0. -1.
         25    2    1    2    0    0  0.61851003879E+02  0.64670795951E+02  0.36808234895E+02  0.15807390489E+03  0.12499861887E+03 0.  0.
          2    1    1    2  501    0 -0.29901150318E+01 -0.13611607697E+03 -0.11631565799E+03  0.17906942646E+03  0.00000000000E+00 0. -1.
          1    1    1    2  502    0 -0.58860888847E+02  0.71445281021E+02  0.90033920858E+02  0.12913225515E+03  0.00000000000E+00 0. -1.
         22    1    3    3    0    0 -0.10151839966E+02  0.32801122150E+02  0.65755786841E+02  0.74180839656E+02  0.00000000000E+00 0.  1.
         22    1    3    3    0    0  0.72002843845E+02  0.31869673801E+02 -0.28947551946E+02  0.83893065230E+02  0.00000000000E+00 0.  1.
</event>
<event>
 7    1  0.1052869E-005  0.6241063E+02  0.7818608E-02  0.1437256E+00
          2   -1    0    0  502    0  0.00000000000E+00  0.00000000000E+00  0.18011413810E+04  0.18011413810E+04  0.00000000000E+00 0. -1.
          1   -1    0    0  501    0 -0.00000000000E+00 -0.00000000000E+00 -0.42507085512E+03  0.42507085512E+03  0.00000000000E+00 0. -1.
         25    2    1    2    0    0 -0.60957542908E+02  0.25818501263E+02 -0.19796665197E+03  0.24330815434E+03  0.12500258250E+03 0.  0.
          2    1    1    2  501    0  0.80141773893E+00 -0.42539935708E+02 -0.20166502854E+03  0.20610451751E+03  0.00000000000E+00 0. -1.
          1    1    1    2  502    0  0.60156125169E+02  0.16721434445E+02  0.17757022064E+04  0.17767995643E+04  0.00000000000E+00 0. -1.
         22    1    3    3    0    0  0.25495324077E+02 -0.12443789192E+02 -0.11196086050E+03  0.11549932347E+03  0.00000000000E+00 0.  1.
         22    1    3    3    0    0 -0.86452866985E+02  0.38262290455E+02 -0.86005791478E+02  0.12780883087E+03  0.00000000000E+00 0.  1.
</event>
<event>
 7    1  0.5889087E-006  0.5057242E+02  0.7818608E-02  0.1454586E+00
          2   -1    0    0  502    0  0.00000000000E+00  0.00000000000E+00  0.69065616336E+03  0.69065616336E+03  0.00000000000E+00 0. -1.
          1   -1    0    0  501    0 -0.00000000000E+00 -0.00000000000E+00 -0.41720711273E+03  0.41720711273E+03  0.00000000000E+00 0. -1.
         25    2    1    2    0    0  0.18352882787E+02  0.86101234958E+02  0.11864997465E+02  0.15339465809E+03  0.12505555564E+03 0.  0.
          2    1    1    2  501    0  0.92007505808E+01 -0.49042970715E+02 -0.34376154496E+03  0.34736416997E+03  0.00000000000E+00 0. -1.
          1    1    1    2  502    0 -0.27553633368E+02 -0.37058264243E+02  0.60534559812E+03  0.60710444803E+03  0.00000000000E+00 0. -1.
         22    1    3    3    0    0  0.32241538911E+02  0.80140006114E+02 -0.42994870926E+02  0.96490913237E+02  0.00000000000E+00 0. -1.
         22    1    3    3    0    0 -0.13888656124E+02  0.59612288437E+01  0.54859868391E+02  0.56903744852E+02  0.00000000000E+00 0. -1.
</event>
<event>
 7    1  0.5889087E-006  0.1069526E+03  0.7818608E-02  0.1337498E+00
          2   -1    0    0  502    0  0.00000000000E+00  0.00000000000E+00  0.31336232899E+03  0.31336232899E+03  0.00000000000E+00 0. -1.
          1   -1    0    0  501    0 -0.00000000000E+00 -0.00000000000E+00 -0.21703823589E+04  0.21703823589E+04  0.00000000000E+00 0. -1.
         25    2    1    2    0    0 -0.12001818820E+03 -0.12447806265E+02  0.71251702544E+02  0.18777589645E+03  0.12499467506E+03 0.  0.
          2    1    1    2  501    0  0.99505220415E+02 -0.39203354557E+02 -0.21065324897E+04  0.21092456761E+04  0.00000000000E+00 0. -1.
          1    1    1    2  502    0  0.20512967780E+02  0.51651160822E+02  0.17826075721E+03  0.18672311540E+03  0.00000000000E+00 0. -1.
         22    1    3    3    0    0 -0.20191374579E+02  0.31087946838E+02  0.69600007328E+02  0.78856281082E+02  0.00000000000E+00 0.  1.
         22    1    3    3    0    0 -0.99826813616E+02 -0.43535753103E+02  0.16516952160E+01  0.10891961537E+03  0.00000000000E+00 0.  1.
</event>
<event>
 7    1  0.5889087E-006  0.8057268E+02  0.7818608E-02  0.1422729E+00
          2   -1    0    0  502    0  0.00000000000E+00  0.00000000000E+00  0.16733959091E+03  0.16733959091E+03  0.00000000000E+00 0. -1.
          1   -1    0    0  501    0 -0.00000000000E+00 -0.00000000000E+00 -0.14200398678E+03  0.14200398678E+03  0.00000000000E+00 0. -1.
         25    2    1    2    0    0 -0.40245441508E+02  0.31371157477E+02  0.46561172548E+02  0.14281657828E+03  0.12499914864E+03 0.  0.
          2    1    1    2  501    0  0.72977150227E+02 -0.48175910006E+02 -0.65283442062E+02  0.10912612230E+03  0.00000000000E+00 0. -1.
          1    1    1    2  502    0 -0.32731708719E+02  0.16804752529E+02  0.44057873636E+02  0.57400877107E+02  0.00000000000E+00 0. -1.
         22    1    3    3    0    0  0.11911511443E+02  0.25404131626E+02 -0.35592567820E+02  0.45322013332E+02  0.00000000000E+00 0.  1.
         22    1    3    3    0    0 -0.52156952951E+02  0.59670258511E+01  0.82153740368E+02  0.97494564951E+02  0.00000000000E+00 0.  1.
</event>
<event>
 7    1  0.5889087E-006  0.4029846E+02  0.7818608E-02  0.1560765E+00
          2   -1    0    0  502    0  0.00000000000E+00  0.00000000000E+00  0.55346063905E+03  0.55346063905E+03  0.00000000000E+00 0. -1.
          1   -1    0    0  501    0 -0.00000000000E+00 -0.00000000000E+00 -0.61618937730E+03  0.61618937730E+03  0.00000000000E+00 0. -1.
         25    2    1    2    0    0 -0.12129637675E+02 -0.31854258178E+02  0.22487332168E+03  0.25952809153E+03  0.12499999046E+03 0.  0.
          2    1    1    2  501    0  0.36335080270E+02  0.17528298126E+02 -0.59754504184E+03  0.59890529829E+03  0.00000000000E+00 0. -1.
          1    1    1    2  502    0 -0.24205442596E+02  0.14325960052E+02  0.30994298192E+03  0.31121662652E+03  0.00000000000E+00 0. -1.
         22    1    3    3    0    0 -0.55673242849E+02 -0.29917308175E+02  0.53832688591E+02  0.83021163920E+02  0.00000000000E+00 0. -1.
         22    1    3    3    0    0  0.43543605174E+02 -0.19369500032E+01  0.17104063308E+03  0.17650692760E+03  0.00000000000E+00 0. -1.
</event>
<event>
 7    1  0.5889087E-006  0.1229119E+03  0.7818608E-02  0.1287462E+00
          2   -1    0    0  502    0  0.00000000000E+00  0.00000000000E+00  0.84104704762E+03  0.84104704762E+03  0.00000000000E+00 0. -1.
          1   -1    0    0  501    0 -0.00000000000E+00 -0.00000000000E+00 -0.33942259253E+04  0.33942259253E+04  0.00000000000E+00 0. -1.
         25    2    1    2    0    0  0.10833970350E+03 -0.15051353582E+03 -0.23745394182E+02  0.22490128284E+03  0.12499970983E+03 0.  0.
          2    1    1    2  501    0 -0.41009754819E+02  0.11520076482E+03 -0.32668040809E+04  0.32690919105E+04  0.00000000000E+00 0. -1.
          1    1    1    2  502    0 -0.67329948684E+02  0.35312771002E+02  0.73737059738E+03  0.74127977961E+03  0.00000000000E+00 0. -1.
         22    1    3    3    0    0  0.12901622267E+03 -0.93995813099E+02 -0.35639495366E+02  0.16355602166E+03  0.00000000000E+00 0. -1.
         22    1    3    3    0    0 -0.20676519163E+02 -0.56517722726E+02  0.11894101184E+02  0.61345261184E+02  0.00000000000E+00 0. -1.
</event>
<event>
 7    1  0.5889087E-006  0.7098617E+02  0.7818608E-02  0.1372894E+00
          2   -1    0    0  502    0  0.00000000000E+00  0.00000000000E+00  0.33935562104E+03  0.33935562104E+03  0.00000000000E+00 0. -1.
          1   -1    0    0  501    0 -0.00000000000E+00 -0.00000000000E+00 -0.11244415248E+03  0.11244415248E+03  0.00000000000E+00 0. -1.
         25    2    1    2    0    0  0.65370973624E+02 -0.31222968635E+02  0.35918973528E+02  0.14887727854E+03  0.12500413370E+03 0.  0.
          2    1    1    2  501    0  0.12027120689E+01  0.62040947972E+02 -0.30826042550E+02  0.69287593701E+02  0.00000000000E+00 0. -1.
          1    1    1    2  502    0 -0.66573685693E+02 -0.30817979338E+02  0.22181853758E+03  0.23363490127E+03  0.00000000000E+00 0. -1.
         22    1    3    3    0    0  0.87972390605E+02 -0.13186811255E+01  0.57993235901E+02  0.10537597373E+03  0.00000000000E+00 0. -1.
         22    1    3    3    0    0 -0.22601416982E+02 -0.29904287509E+02 -0.22074262373E+02  0.43501304812E+02  0.00000000000E+00 0. -1.
</event>
<event>
 7    1  0.5889087E-006  0.9571511E+02  0.7818608E-02  0.1451034E+00
          2   -1    0    0  502    0  0.00000000000E+00  0.00000000000E+00  0.32469823133E+03  0.32469823133E+03  0.00000000000E+00 0. -1.
          1   -1    0    0  501    0 -0.00000000000E+00 -0.00000000000E+00 -0.85119739653E+03  0.85119739653E+03  0.00000000000E+00 0. -1.
         25    2    1    2    0    0  0.64339449174E+02 -0.32644953738E+02 -0.52114291059E+02  0.15344896965E+03  0.12500171690E+03 0.  0.
          2    1    1    2  501    0 -0.86346471660E+02  0.44598055076E+02 -0.74467957215E+03  0.75099425089E+03  0.00000000000E+00 0. -1.
          1    1    1    2  502    0  0.22007022485E+02 -0.11953101338E+02  0.27029469801E+03  0.27145240732E+03  0.00000000000E+00 0. -1.
         22    1    3    3    0    0  0.35660789593E+02  0.47056542943E+02 -0.28215294809E+02  0.65437856087E+02  0.00000000000E+00 0.  1.
         22    1    3    3    0    0  0.28678659582E+02 -0.79701496681E+02 -0.23898996250E+02  0.88011113562E+02  0.00000000000E+00 0.  1.
</event>
<event>
 7    1  0.5889087E-006  0.2301564E+03  0.7818608E-02  0.1131726E+00
          2   -1    0    0  502    0  0.00000000000E+00  0.00000000000E+00  0.14965455737E+04  0.14965455737E+04  0.00000000000E+00 0. -1.
          1   -1    0    0  501    0 -0.00000000000E+00 -0.00000000000E+00 -0.19159547392E+03  0.19159547392E+03  0.00000000000E+00 0. -1.
         25    2    1    2    0    0  0.17025539315E+03 -0.64184091510E+02  0.15902816640E+03  0.27206874307E+03  0.12499978700E+03 0.  0.
          2    1    1    2  501    0 -0.10706796732E+03 -0.18748846462E+03 -0.24444646690E+02  0.21728556037E+03  0.00000000000E+00 0. -1.
          1    1    1    2  502    0 -0.63187425826E+02  0.25167255613E+03  0.11703665801E+04  0.11987867442E+04  0.00000000000E+00 0. -1.
         22    1    3    3    0    0  0.14930336269E+03 -0.72182630228E+02  0.69563227971E+02  0.17983567194E+03  0.00000000000E+00 0.  1.
         22    1    3    3    0    0  0.20952030457E+02  0.79985387181E+01  0.89464938427E+02  0.92233071127E+02  0.00000000000E+00 0.  1.
</event>
<event>
 7    1  0.5889087E-006  0.2830518E+02  0.7818608E-02  0.1632507E+00
          2   -1    0    0  502    0  0.00000000000E+00  0.00000000000E+00  0.41254015575E+03  0.41254015575E+03  0.00000000000E+00 0. -1.
          1   -1    0    0  501    0 -0.00000000000E+00 -0.00000000000E+00 -0.69086324570E+03  0.69086324570E+03  0.00000000000E+00 0. -1.
         25    2    1    2    0    0 -0.23563917858E+02  0.10155442048E+02 -0.32691938393E+03  0.35093836610E+03  0.12499224768E+03 0.  0.
          2    1    1    2  501    0  0.18900945307E+02  0.17784606274E+02 -0.35095380488E+03  0.35191207867E+03  0.00000000000E+00 0. -1.
          1    1    1    2  502    0  0.46629725509E+01 -0.27940048322E+02  0.39955009886E+03  0.40055295669E+03  0.00000000000E+00 0. -1.
         22    1    3    3    0    0  0.46585497476E+02  0.26019900991E-01 -0.67528662844E+02  0.82038585785E+02  0.00000000000E+00 0. -1.
         22    1    3    3    0    0 -0.70149415334E+02  0.10129422147E+02 -0.25939072109E+03  0.26889978031E+03  0.00000000000E+00 0. -1.
</event>
<event>
 7    1  0.5889087E-006  0.1861778E+03  0.7818608E-02  0.1277082E+00
          2   -1    0    0  502    0  0.00000000000E+00  0.00000000000E+00  0.98840654615E+03  0.98840654615E+03  0.00000000000E+00 0. -1.
          1   -1    0    0  501    0 -0.00000000000E+00 -0.00000000000E+00 -0.48637616447E+03  0.48637616447E+03  0.00000000000E+00 0. -1.
         25    2    1    2    0    0  0.12561136086E+03  0.82142827360E+02 -0.78483230954E+02  0.21049915706E+03  0.12499847807E+03 0.  0.
          2    1    1    2  501    0  0.39841614935E+01  0.55239974736E+02 -0.32988485682E+03  0.33450163992E+03  0.00000000000E+00 0. -1.
          1    1    1    2  502    0 -0.12959552236E+03 -0.13738280210E+03  0.91039846946E+03  0.92978191364E+03  0.00000000000E+00 0. -1.
         22    1    3    3    0    0  0.35053526158E+02 -0.23780249983E+02  0.12387027348E+02  0.44132623216E+02  0.00000000000E+00 0.  1.
         22    1    3    3    0    0  0.90557834704E+02  0.10592307734E+03 -0.90870258303E+02  0.16636653385E+03  0.00000000000E+00 0.  1.
</event>
<event>
 7    1  0.5889087E-006  0.8924451E+02  0.7818608E-02  0.1347170E+00
          2   -1    0    0  502    0  0.00000000000E+00  0.00000000000E+00  0.61211351380E+02  0.61211351380E+02  0.00000000000E+00 0. -1.
          1   -1    0    0  501    0 -0.00000000000E+00 -0.00000000000E+00 -0.76635924722E+03  0.76635924722E+03  0.00000000000E+00 0. -1.
         25    2    1    2    0    0  0.84623009286E+02  0.40608597305E+02 -0.44696636538E+03  0.47351318591E+03  0.12500277424E+03 0.  0.
          2    1    1    2  501    0  0.36991777429E+01 -0.61156456485E+02 -0.25612720064E+03  0.26335325894E+03  0.00000000000E+00 0. -1.
          1    1    1    2  502    0 -0.88322187029E+02  0.20547859180E+02 -0.20543298235E+01  0.90704153761E+02  0.00000000000E+00 0. -1.
         22    1    3    3    0    0 -0.16695665150E+02 -0.27975300042E+02 -0.70474963261E+02  0.77640730895E+02  0.00000000000E+00 0. -1.
         22    1    3    3    0    0  0.10131867444E+03  0.68583897348E+02 -0.37649140212E+03  0.39587245501E+03  0.00000000000E+00 0. -1.
</event>
<event>
 7    1  0.5889087E-006  0.6286793E+02  0.7818608E-02  0.1429488E+00
          2   -1    0    0  502    0  0.00000000000E+00  0.00000000000E+00  0.32543700960E+03  0.32543700960E+03  0.00000000000E+00 0. -1.
          1   -1    0    0  501    0 -0.00000000000E+00 -0.00000000000E+00 -0.24938162665E+04  0.24938162665E+04  0.00000000000E+00 0. -1.
         25    2    1    2    0    0  0.73561912551E+01 -0.31797771639E+02  0.10768876715E+03  0.16817999716E+03  0.12498971575E+03 0.  0.
          2    1    1    2  501    0 -0.51985431039E+02  0.35555153853E+02 -0.24604874434E+04  0.24612933822E+04  0.00000000000E+00 0. -1.
          1    1    1    2  502    0  0.44629239784E+02 -0.37573822139E+01  0.18441941938E+03  0.18977989674E+03  0.00000000000E+00 0. -1.
         22    1    3    3    0    0 -0.15844636937E+02  0.10504605217E+02 -0.22431152844E+02  0.29403330906E+02  0.00000000000E+00 0. -1.
         22    1    3    3    0    0  0.23200828192E+02 -0.42302376856E+02  0.13011992000E+03  0.13877666625E+03  0.00000000000E+00 0. -1.
</event>
<event>
 7    1  0.5889087E-006  0.5086525E+02  0.7818608E-02  0.1504484E+00
          2   -1    0    0  502    0  0.00000000000E+00  0.00000000000E+00  0.13645512459E+04  0.13645512459E+04  0.00000000000E+00 0. -1.
          1   -1    0    0  501    0 -0.00000000000E+00 -0.00000000000E+00 -0.51398443046E+02  0.51398443046E+02  0.00000000000E+00 0. -1.
         25    2    1    2    0    0 -0.29611633689E+02  0.44844798044E+02  0.60569714597E+03  0.62079120400E+03  0.12499912625E+03 0.  0.
          2    1    1    2  501    0  0.31558736310E+02  0.67114681046E+01 -0.36900315675E+02  0.49016639405E+02  0.00000000000E+00 0. -1.
          1    1    1    2  502    0 -0.19471026210E+01 -0.51556266149E+02  0.74435597258E+03  0.74614184556E+03  0.00000000000E+00 0. -1.
         22    1    3    3    0    0 -0.54077046502E+02 -0.37679106914E+01  0.48936979548E+03  0.49236299703E+03  0.00000000000E+00 0. -1.
         22    1    3    3    0    0  0.24465412813E+02  0.48612708735E+02  0.11632735048E+03  0.12842820697E+03  0.00000000000E+00 0. -1.
</event>
<event>
 7    1  0.5889087E-006  0.1802262E+03  0.7818608E-02  0.1196168E+00
          2   -1    0    0  502    0  0.00000000000E+00  0.00000000000E+00  0.19441321100E+04  0.19441321100E+04  0.00000000000E+00 0. -1.
          1   -1    0    0  501    0 -0.00000000000E+00 -0.00000000000E+00 -0.45265987188E+04  0.45265987188E+04  0.00000000000E+00 0. -1.
         25    2    1    2    0    0  0.71211745864E+02 -0.26641394674E+02  0.15650985618E+02  0.14714147815E+03  0.12499913833E+03 0.  0.
          2    1    1    2  501    0  0.42792928760E+02 -0.12364027718E+03 -0.44551151712E+04  0.44570359368E+04  0.00000000000E+00 0. -1.
          1    1    1    2  502    0 -0.11400467462E+03  0.15028167185E+03  0.18569975768E+04  0.18665534139E+04  0.00000000000E+00 0. -1.
         22    1    3    3    0    0 -0.32262348156E+02  0.78777393430E+01 -0.10759560131E+02  0.34909683755E+02  0.00000000000E+00 0. -1.
         22    1    3    3    0    0  0.10347409402E+03 -0.34519134017E+02  0.26410545749E+02  0.11223179440E+03  0.00000000000E+00 0. -1.
</event>
<event>
 7    1  0.5889087E-006  0.4829677E+02  0.7818608E-02  0.1524640E+00
          2   -1    0    0  502    0  0.00000000000E+00  0.00000000000E+00  0.21557042194E+04  0.21557042194E+04  0.00000000000E+00 0. -1.
          1   -1    0    0  501    0 -0.00000000000E+00 -0.00000000000E+00 -0.21221912204E+03  0.21221912204E+03  0.00000000000E+00 0. -1.
         25    2    1    2    0    0 -0.15058451376E+02  0.60517226599E+02  0.38944421972E+03  0.41374376942E+03  0.12501205857E+03 0.  0.
          2    1    1    2  501    0  0.31962987870E+02 -0.36138581324E+02 -0.19703335116E+03  0.20285406361E+03  0.00000000000E+00 0. -1.
          1    1    1    2  502    0 -0.16904536494E+02 -0.24378645274E+02  0.17510742288E+04  0.17513255084E+04  0.00000000000E+00 0. -1.
         22    1    3    3    0    0 -0.60749007281E+02  0.56626254350E+02  0.16567703921E+03  0.18532634969E+03  0.00000000000E+00 0.  1.
         22    1    3    3    0    0  0.45690555904E+02  0.38909722490E+01  0.22376718050E+03  0.22841741972E+03  0.00000000000E+00 0.  1.
</event>
<event>
 7    1  0.5889087E-006  0.1415243E+03  0.7818608E-02  0.1329352E+00
          2   -1    0    0  502    0  0.00000000000E+00  0.00000000000E+00  0.55009536433E+03  0.55009536433E+03  0.00000000000E+00 0. -1.
          1   -1    0    0  501    0 -0.00000000000E+00 -0.00000000000E+00 -0.90275506756E+02  0.90275506756E+02  0.00000000000E+00 0. -1.
         25    2    1    2    0    0 -0.11471418806E+03 -0.39979277351E+02  0.17335725345E+03  0.24583716664E+03  0.12500195047E+03 0.  0.
          2    1    1    2  501    0  0.15283994926E+03  0.15882715833E+02  0.62189572745E+02  0.16577048504E+03  0.00000000000E+00 0. -1.
          1    1    1    2  502    0 -0.38125761208E+02  0.24096561518E+02  0.22427303138E+03  0.22876321940E+03  0.00000000000E+00 0. -1.
         22    1    3    3    0    0 -0.63352889904E+02  0.34539093259E+02  0.12209741133E+03  0.14182494659E+03  0.00000000000E+00 0. -1.
         22    1    3    3    0    0 -0.51361298152E+02 -0.74518370610E+02  0.51259842120E+02  0.10401222005E+03  0.00000000000E+00 0. -1.
</event>
<event>
 7    1  0.5889087E-006  0.9039054E+02  0.7818608E-02  0.1305364E+00
          2   -1    0    0  502    0  0.00000000000E+00  0.00000000000E+00  0.43956260621E+03  0.43956260621E+03  0.00000000000E+00 0. -1.
          1   -1    0    0  501    0 -0.00000000000E+00 -0.00000000000E+00 -0.11071393283E+03  0.11071393283E+03  0.00000000000E+00 0. -1.
         25    2    1    2    0    0  0.15402194636E+02 -0.55763805367E+02  0.67599258951E+02  0.15342693887E+03  0.12499334451E+03 0.  0.
          2    1    1    2  501    0  0.62806013220E+02  0.95166050557E+02 -0.74241592519E+01  0.11426412655E+03  0.00000000000E+00 0. -1.
          1    1    1    2  502    0 -0.78208207856E+02 -0.39402245190E+02  0.26867357369E+03  0.28258547362E+03  0.00000000000E+00 0. -1.
         22    1    3    3    0    0 -0.34647277677E+02 -0.23959656531E+02 -0.20800096385E+02  0.46980240539E+02  0.00000000000E+00 0.  1.
         22    1    3    3    0    0  0.50049472313E+02 -0.31804148837E+02  0.88399355336E+02  0.10644669833E+03  0.00000000000E+00 0.  1.
</event>
<event>
 7    1  0.5889087E-006  0.1175235E+03  0.7818608E-02  0.1255475E+00
          2   -1    0    0  502    0  0.00000000000E+00  0.00000000000E+00  0.29038688651E+03  0.29038688651E+03  0.00000000000E+00 0. -1.
          1   -1    0    0  501    0 -0.00000000000E+00 -0.00000000000E+00 -0.15660073011E+04  0.15660073011E+04  0.00000000000E+00 0. -1.
         25    2    1    2    0    0 -0.60536883492E+02 -0.49714948569E+02 -0.41107531788E+03  0.43674310670E+03  0.12500133562E+03 0.  0.
          2    1    1    2  501    0 -0.30450342410E+02  0.12409970180E+03 -0.11258793043E+04  0.11331073061E+04  0.00000000000E+00 0. -1.
          1    1    1    2  502    0  0.90987225902E+02 -0.74384753228E+02  0.26133420761E+03  0.28654377477E+03  0.00000000000E+00 0. -1.
         22    1    3    3    0    0 -0.23117251733E+02 -0.39762737281E+02 -0.32801363268E+02  0.56492583903E+02  0.00000000000E+00 0. -1.
         22    1    3    3    0    0 -0.37419631759E+02 -0.99522112875E+01 -0.37827395461E+03  0.38025052280E+03  0.00000000000E+00 0. -1.
</event>
<event>
 7    1  0.5889087E-006  0.4589347E+02  0.7818608E-02  0.1562695E+00
          2   -1    0    0  502    0  0.00000000000E+00  0.00000000000E+00  0.77927170800E+03  0.77927170800E+03  0.00000000000E+00 0. -1.
          1   -1    0    0  501    0 -0.00000000000E+00 -0.00000000000E+00 -0.11556954548E+04  0.11556954548E+04  0.00000000000E+00 0. -1.
         25    2    1    2    0    0 -0.32016915148E+02 -0.21747017236E+02 -0.28570034269E+02  0.13393869012E+03  0.12500124095E+03 0.  0.
          2    1    1    2  501    0  0.45982440184E+02  0.17407770436E+01 -0.10737433589E+04  0.10747289034E+04  0.00000000000E+00 0. -1.
          1    1    1    2  502    0 -0.13965525036E+02  0.20006240192E+02  0.72588964638E+03  0.72629956922E+03  0.00000000000E+00 0. -1.
         22    1    3    3    0    0 -0.50759390179E+01 -0.16920384838E+02  0.48784721053E+02  0.51884618031E+02  0.00000000000E+00 0. -1.
         22    1    3    3    0    0 -0.26940976130E+02 -0.48266323973E+01 -0.77354755322E+02  0.82054072087E+02  0.00000000000E+00 0. -1.
</event>
<event>
 7    1  0.5889087E-006  0.8551425E+02  0.7818608E-02  0.1343247E+00
          2   -1    0    0  502    0  0.00000000000E+00  0.00000000000E+00  0.23167128311E+03  0.23167128311E+03  0.00000000000E+00 0. -1.
          1   -1    0    0  501    0 -0.00000000000E+00 -0.00000000000E+00 -0.10575305253E+04  0.10575305253E+04  0.00000000000E+00 0. -1.
         25    2    1    2    0    0 -0.67530168632E+02 -0.11912983876E+02 -0.17186147961E+03  0.22327098304E+03  0.12494527135E+03 0.  0.
          2    1    1    2  501    0  0.21703766776E+02 -0.62470477207E+02 -0.84935591997E+03  0.85192669450E+03  0.00000000000E+00 0. -1.
          1    1    1    2  502    0  0.45826401856E+02  0.74383461083E+02  0.19535815737E+03  0.21400413090E+03  0.00000000000E+00 0. -1.
         22    1    3    3    0    0 -0.48535430417E+02 -0.60658177998E+02 -0.14491271588E+03  0.16442261946E+03  0.00000000000E+00 0. -1.
         22    1    3    3    0    0 -0.18994738214E+02  0.48745194122E+02 -0.26948763730E+02  0.58848363583E+02  0.00000000000E+00 0. -1.
</event>
<event>
 7    1  0.5889087E-006  0.1262754E+03  0.7818608E-02  0.1396154E+00
          2   -1    0    0  502    0  0.00000000000E+00  0.00000000000E+00  0.19602075982E+04  0.19602075982E+04  0.00000000000E+00 0. -1.
          1   -1    0    0  501    0 -0.00000000000E+00 -0.00000000000E+00 -0.81754080492E+02  0.81754080492E+02  0.00000000000E+00 0. -1.
         25    2    1    2    0    0 -0.36506807004E+00  0.14825699434E+03  0.28433172462E+03  0.34416511547E+03  0.12499930974E+03 0.  0.
          2    1    1    2  501    0  0.15260921514E+02 -0.24532668957E+02 -0.45254345550E+02  0.53690812648E+02  0.00000000000E+00 0. -1.
          1    1    1    2  502    0 -0.14895853444E+02 -0.12372432538E+03  0.16393761386E+04  0.16441057505E+04  0.00000000000E+00 0. -1.
         22    1    3    3    0    0 -0.42880485408E+02  0.14411925486E+03  0.20742654055E+03  0.25619302366E+03  0.00000000000E+00 0. -1.
         22    1    3    3    0    0  0.42515417338E+02  0.41377394814E+01  0.76905184079E+02  0.87972091811E+02  0.00000000000E+00 0. -1.
</event>
<event>
 7    1  0.5889087E-006  0.1482912E+03  0.7818608E-02  0.1278789E+00
          2   -1    0    0  502    0  0.00000000000E+00  0.00000000000E+00  0.30076069665E+03  0.30076069665E+03  0.00000000000E+00 0. -1.
          1   -1    0    0  501    0 -0.00000000000E+00 -0.00000000000E+00 -0.13749628730E+04  0.13749628730E+04  0.00000000000E+00 0. -1.
         25    2    1    2    0    0  0.10519930717E+02 -0.14475428514E+03 -0.28909725344E+03  0.34679658903E+03  0.12500472074E+03 0.  0.
          2    1    1    2  501    0  0.66365358615E+02  0.16598028884E+02 -0.10352659081E+04  0.10375236652E+04  0.00000000000E+00 0. -1.
          1    1    1    2  502    0 -0.76885289332E+02  0.12815625626E+03  0.25016098518E+03  0.29140331543E+03  0.00000000000E+00 0. -1.
         22    1    3    3    0    0 -0.37791173109E+02 -0.74714092983E+02 -0.61711135378E+02  0.10401265637E+03  0.00000000000E+00 0. -1.
         22    1    3    3    0    0  0.48311103826E+02 -0.70040192160E+02 -0.22738611807E+03  0.24278393266E+03  0.00000000000E+00 0. -1.
</event>
<event>
 7    1  0.5889087E-006  0.6805306E+02  0.7818608E-02  0.1456705E+00
          2   -1    0    0  502    0  0.00000000000E+00  0.00000000000E+00  0.24235653862E+04  0.24235653862E+04  0.00000000000E+00 0. -1.
          1   -1    0    0  501    0 -0.00000000000E+00 -0.00000000000E+00 -0.95506019891E+02  0.95506019891E+02  0.00000000000E+00 0. -1.
         25    2    1    2    0    0  0.38054132250E+02  0.34597733231E+01  0.33055567287E+03  0.35546042046E+03  0.12499988253E+03 0.  0.
          2    1    1    2  501    0 -0.68434352188E+02  0.11332085891E+02 -0.68407715027E+02  0.97423263162E+02  0.00000000000E+00 0. -1.
          1    1    1    2  502    0  0.30380219938E+02 -0.14791859214E+02  0.20659114084E+04  0.20661877224E+04  0.00000000000E+00 0. -1.
         22    1    3    3    0    0 -0.39171147119E+02 -0.27127425515E+02  0.12083895014E+03  0.12989352506E+03  0.00000000000E+00 0. -1.
         22    1    3    3    0    0  0.77225279369E+02  0.30587198839E+02  0.20971672273E+03  0.22556689540E+03  0.00000000000E+00 0. -1.
</event>
<event>
 7    1  0.6303382E-006  0.1041009E+03  0.7818608E-02  0.1334087E+00
          2   -1    0    0  502    0  0.00000000000E+00  0.00000000000E+00  0.12446372933E+04  0.12446372933E+04  0.00000000000E+00 0. -1.
          1   -1    0    0  501    0 -0.00000000000E+00 -0.00000000000E+00 -0.11171976263E+04  0.11171976263E+04  0.00000000000E+00 0. -1.
         25    2    1    2    0    0 -0.49211053562E+02 -0.13961047596E+03 -0.67021383100E+02  0.20501200873E+03  0.12500098057E+03 0.  0.
          2    1    1    2  501    0  0.46388007624E+02  0.36167404541E+02 -0.97801844579E+03  0.97978569529E+03  0.00000000000E+00 0. -1.
          1    1    1    2  502    0  0.28230459380E+01  0.10344307142E+03  0.11724794959E+04  0.11770372156E+04  0.00000000000E+00 0. -1.
         22    1    3    3    0    0  0.21987646383E+02 -0.10595017075E+03 -0.65004167451E+02  0.12623168010E+03  0.00000000000E+00 0.  1.
         22    1    3    3    0    0 -0.71198699945E+02 -0.33660305209E+02 -0.20172156488E+01  0.78780328634E+02  0.00000000000E+00 0.  1.
</event>
<event>
 7    1  0.5889087E-006  0.5737482E+02  0.7818608E-02  0.1477976E+00
          2   -1    0    0  502    0  0.00000000000E+00  0.00000000000E+00  0.53310627044E+02  0.53310627044E+02  0.00000000000E+00 0. -1.
          1   -1    0    0  501    0 -0.00000000000E+00 -0.00000000000E+00 -0.45758327097E+03  0.45758327097E+03  0.00000000000E+00 0. -1.
         25    2    1    2    0    0 -0.85715452433E+02 -0.33493708461E+00 -0.21205927681E+03  0.26064996280E+03  0.12498806047E+03 0.  0.
          2    1    1    2  501    0  0.52719132513E+02 -0.93732813463E+01 -0.20625576528E+03  0.21309295166E+03  0.00000000000E+00 0. -1.
          1    1    1    2  502    0  0.32996319920E+02  0.97082184309E+01  0.14042398157E+02  0.37150983559E+02  0.00000000000E+00 0. -1.
         22    1    3    3    0    0 -0.62551740267E+02  0.35167304855E+02 -0.20560857700E+03  0.21777131693E+03  0.00000000000E+00 0. -1.
         22    1    3    3    0    0 -0.23163712166E+02 -0.35502241940E+02 -0.64506998125E+01  0.42878645876E+02  0.00000000000E+00 0. -1.
</event>
<event>
 7    1  0.5889087E-006  0.8499032E+02  0.7818608E-02  0.1379109E+00
          2   -1    0    0  502    0  0.00000000000E+00  0.00000000000E+00  0.25867950309E+03  0.25867950309E+03  0.00000000000E+00 0. -1.
          1   -1    0    0  501    0 -0.00000000000E+00 -0.00000000000E+00 -0.48665113014E+03  0.48665113014E+03  0.00000000000E+00 0. -1.
         25    2    1    2    0    0  0.53118146167E+02 -0.82944835388E+02  0.65901931861E+02  0.17224718340E+03  0.12499857757E+03 0.  0.
          2    1    1    2  501    0 -0.75456281978E+02  0.39050379603E+02 -0.42479301645E+03  0.43320628973E+03  0.00000000000E+00 0. -1.
          1    1    1    2  502    0  0.22338135812E+02  0.43894455785E+02  0.13091945754E+03  0.13987716011E+03  0.00000000000E+00 0. -1.
         22    1    3    3    0    0  0.54824095631E+02  0.69422998385E+01  0.60855107427E+02  0.82202318025E+02  0.00000000000E+00 0.  1.
         22    1    3    3    0    0 -0.17059494641E+01 -0.89887135226E+02  0.50468244343E+01  0.90044865371E+02  0.00000000000E+00 0.  1.
</event>
<event>
 7    1  0.5889087E-006  0.8327797E+02  0.7818608E-02  0.1474720E+00
          2   -1    0    0  502    0  0.00000000000E+00  0.00000000000E+00  0.71882805056E+03  0.71882805056E+03  0.00000000000E+00 0. -1.
          1   -1    0    0  501    0 -0.00000000000E+00 -0.00000000000E+00 -0.19174656302E+04  0.19174656302E+04  0.00000000000E+00 0. -1.
         25    2    1    2    0    0  0.53779988975E+02  0.89913697669E+02 -0.63613417185E+03  0.65671706095E+03  0.12503540819E+03 0.  0.
          2    1    1    2  501    0 -0.39778350844E+02 -0.70113266163E+02 -0.12695537994E+04  0.12721104657E+04  0.00000000000E+00 0. -1.
          1    1    1    2  502    0 -0.14001638131E+02 -0.19800431506E+02  0.70705039162E+03  0.70746615413E+03  0.00000000000E+00 0. -1.
         22    1    3    3    0    0  0.57260266407E+02 -0.13922904710E+02 -0.21129291129E+03  0.21935651289E+03  0.00000000000E+00 0. -1.
         22    1    3    3    0    0 -0.34802774321E+01  0.10383660238E+03 -0.42484126056E+03  0.43736054806E+03  0.00000000000E+00 0. -1.
</event>
<event>
 7    1  0.5889087E-006  0.1046726E+03  0.7818608E-02  0.1415640E+00
          2   -1    0    0  502    0  0.00000000000E+00  0.00000000000E+00  0.35345357752E+04  0.35345357752E+04  0.00000000000E+00 0. -1.
          1   -1    0    0  501    0 -0.00000000000E+00 -0.00000000000E+00 -0.20554761905E+02  0.20554761905E+02  0.00000000000E+00 0. -1.
         25    2    1    2    0    0 -0.35877518850E+02 -0.72546272674E+02  0.57342684117E+03  0.59244484823E+03  0.12498959150E+03 0.  0.
          2    1    1    2  501    0 -0.25784829552E+02 -0.15159667253E+02  0.12158071585E+02  0.32287639289E+02  0.00000000000E+00 0. -1.
          1    1    1    2  502    0  0.61662348402E+02  0.87705939926E+02  0.29283961006E+04  0.29303580496E+04  0.00000000000E+00 0. -1.
         22    1    3    3    0    0 -0.66743398469E+01 -0.52547499241E+02  0.70036579664E+02  0.87811781555E+02  0.00000000000E+00 0. -1.
         22    1    3    3    0    0 -0.29203179003E+02 -0.19998773432E+02  0.50339026151E+03  0.50463306668E+03  0.00000000000E+00 0. -1.
</event>
<event>
 7    1  0.5889087E-006  0.2103941E+03  0.7818608E-02  0.1237058E+00
          2   -1    0    0  502    0  0.00000000000E+00  0.00000000000E+00  0.19910201972E+03  0.19910201972E+03  0.00000000000E+00 0. -1.
          1   -1    0    0  501    0 -0.00000000000E+00 -0.00000000000E+00 -0.13043984007E+04  0.13043984007E+04  0.00000000000E+00 0. -1.
         25    2    1    2    0    0  0.76359571870E+02  0.14480732962E+03 -0.23982670312E+03  0.31612736423E+03  0.12497886205E+03 0.  0.
          2    1    1    2  501    0 -0.15134106893E+02  0.71179669202E+02 -0.94605575711E+03  0.94885040025E+03  0.00000000000E+00 0. -1.
          1    1    1    2  502    0 -0.61225464977E+02 -0.21598699882E+03  0.80586079262E+02  0.23852265593E+03  0.00000000000E+00 0. -1.
         22    1    3    3    0    0  0.88835851920E+02  0.15741423778E+03 -0.18559388166E+03  0.25906782848E+03  0.00000000000E+00 0. -1.
         22    1    3    3    0    0 -0.12476280051E+02 -0.12606908159E+02 -0.54232821462E+02  0.57059535759E+02  0.00000000000E+00 0. -1.
</event>
<event>
 7    1  0.5889087E-006  0.7585233E+02  0.7818608E-02  0.1367977E+00
          2   -1    0    0  502    0  0.00000000000E+00  0.00000000000E+00  0.43361309736E+03  0.43361309736E+03  0.00000000000E+00 0. -1.
          1   -1    0    0  501    0 -0.00000000000E+00 -0.00000000000E+00 -0.24188594915E+03  0.24188594915E+03  0.00000000000E+00 0. -1.
         25    2    1    2    0    0 -0.60945252319E+02 -0.69147364787E+01  0.49828762962E+01  0.13932833407E+03  0.12500167302E+03 0.  0.
          2    1    1    2  501    0  0.17405495361E+02 -0.57924026250E+02 -0.16506474381E+03  0.17579679671E+03  0.00000000000E+00 0. -1.
          1    1    1    2  502    0  0.43539756958E+02  0.64838762729E+02  0.35180901573E+03  0.36037391572E+03  0.00000000000E+00 0. -1.
         22    1    3    3    0    0 -0.55855307579E+01 -0.22052821406E+02 -0.53042186289E+02  0.57714804099E+02  0.00000000000E+00 0.  1.
         22    1    3    3    0    0 -0.55359721561E+02  0.15138084927E+02  0.58025062585E+02  0.81613529973E+02  0.00000000000E+00 0.  1.
</event>
<event>
 7    1  0.5889087E-006  0.5906299E+02  0.7818608E-02  0.1502892E+00
          2   -1    0    0  502    0  0.00000000000E+00  0.00000000000E+00  0.36524485138E+03  0.36524485138E+03  0.00000000000E+00 0. -1.
          1   -1    0    0  501    0 -0.00000000000E+00 -0.00000000000E+00 -0.18495091125E+04  0.18495091125E+04  0.00000000000E+00 0. -1.
         25    2    1    2    0    0  0.22547619892E+02 -0.51150268745E+02 -0.13368705813E+03  0.19136707981E+03  0.12499753824E+03 0.  0.
          2    1    1    2  501    0  0.24018304747E+02  0.14566916339E+02 -0.16842579873E+04  0.16844922207E+04  0.00000000000E+00 0. -1.
          1    1    1    2  502    0 -0.46565924639E+02  0.36583352406E+02  0.33368078431E+03  0.33889466332E+03  0.00000000000E+00 0. -1.
         22    1    3    3    0    0  0.48938832429E+02 -0.82002888616E+02 -0.83835146565E+02  0.12707405266E+03  0.00000000000E+00 0. -1.
         22    1    3    3    0    0 -0.26391212537E+02  0.30852619871E+02 -0.49851911568E+02  0.64293027142E+02  0.00000000000E+00 0. -1.
</event>
<event>
 7    1  0.5889087E-006  0.3292443E+03  0.7818608E-02  0.1215087E+00
          2   -1    0    0  502    0  0.00000000000E+00  0.00000000000E+00  0.43969452607E+03  0.43969452607E+03  0.00000000000E+00 0. -1.
          1   -1    0    0  501    0 -0.00000000000E+00 -0.00000000000E+00 -0.77221052550E+03  0.77221052550E+03  0.00000000000E+00 0. -1.
         25    2    1    2    0    0 -0.32652475676E+03  0.94850259626E+02 -0.68300478164E+02  0.36866004164E+03  0.12502112803E+03 0.  0.
          2    1    1    2  501    0  0.33332934197E+02  0.47990567015E+02 -0.45944153364E+03  0.46314220479E+03  0.00000000000E+00 0. -1.
          1    1    1    2  502    0  0.29319182256E+03 -0.14284082664E+03  0.19522601238E+03  0.38010280515E+03  0.00000000000E+00 0. -1.
         22    1    3    3    0    0 -0.27518843479E+03  0.12473716805E+03 -0.65705519053E+02  0.30920098798E+03  0.00000000000E+00 0.  1.
         22    1    3    3    0    0 -0.51336321973E+02 -0.29886908426E+02 -0.25949591113E+01  0.59459053657E+02  0.00000000000E+00 0.  1.
</event>
<event>
 7    1  0.5889087E-006  0.7491485E+02  0.7818608E-02  0.1456005E+00
          2   -1    0    0  502    0  0.00000000000E+00  0.00000000000E+00  0.67555619813E+03  0.67555619813E+03  0.00000000000E+00 0. -1.
          1   -1    0    0  501    0 -0.00000000000E+00 -0.00000000000E+00 -0.70131725427E+03  0.70131725427E+03  0.00000000000E+00 0. -1.
         25    2    1    2    0    0 -0.60241235738E+02  0.13152529114E+02  0.83501462428E+02  0.16247437974E+03  0.12499373720E+03 0.  0.
          2    1    1    2  501    0  0.61028464304E+02 -0.43994599440E+02 -0.65925906671E+03  0.66353787780E+03  0.00000000000E+00 0. -1.
          1    1    1    2  502    0 -0.78722856573E+00  0.30842070327E+02  0.54999654814E+03  0.55086119486E+03  0.00000000000E+00 0. -1.
         22    1    3    3    0    0 -0.73932443015E+02  0.54856144949E+02  0.72611074491E+02  0.11725003585E+03  0.00000000000E+00 0.  1.
         22    1    3    3    0    0  0.13691207277E+02 -0.41703615835E+02  0.10890387937E+02  0.45224343885E+02  0.00000000000E+00 0.  1.
</event>
<event>
 7    1  0.5889087E-006  0.4677672E+02  0.7818608E-02  0.1477743E+00
          2   -1    0    0  502    0  0.00000000000E+00  0.00000000000E+00  0.33302210590E+03  0.33302210590E+03  0.00000000000E+00 0. -1.
          1   -1    0    0  501    0 -0.00000000000E+00 -0.00000000000E+00 -0.19685321233E+04  0.19685321233E+04  0.00000000000E+00 0. -1.
         25    2    1    2    0    0 -0.68155327338E+01  0.55133648047E+02 -0.16850007291E+03  0.21703283660E+03  0.12499922783E+03 0.  0.
          2    1    1    2  501    0  0.38343943288E+02 -0.26997209568E+02 -0.17740084797E+04  0.17746281845E+04  0.00000000000E+00 0. -1.
          1    1    1    2  502    0 -0.31528410554E+02 -0.28136438479E+02  0.30699853516E+03  0.30989320811E+03  0.00000000000E+00 0. -1.
         22    1    3    3    0    0 -0.51348528209E+02  0.13925493491E+02 -0.20389571957E+02  0.56976533439E+02  0.00000000000E+00 0.  1.
         22    1    3    3    0    0  0.44532995475E+02  0.41208154555E+02 -0.14811050095E+03  0.16005630316E+03  0.00000000000E+00 0.  1.
</event>
<event>
 7    1  0.5889087E-006  0.2396137E+03  0.7818608E-02  0.1282190E+00
          2   -1    0    0  502    0  0.00000000000E+00  0.00000000000E+00  0.37172021093E+04  0.37172021093E+04  0.00000000000E+00 0. -1.
          1   -1    0    0  501    0 -0.00000000000E+00 -0.00000000000E+00 -0.42297598791E+03  0.42297598791E+03  0.00000000000E+00 0. -1.
         25    2    1    2    0    0 -0.20454887984E+03  0.78723093483E+02  0.11165070129E+03  0.27591363646E+03  0.12499954398E+03 0.  0.
          2    1    1    2  501    0 -0.44774708960E+01  0.40744789395E+02 -0.33548282936E+03  0.33797768329E+03  0.00000000000E+00 0. -1.
          1    1    1    2  502    0  0.20902635073E+03 -0.11946788288E+03  0.35180582495E+04  0.35262867775E+04  0.00000000000E+00 0. -1.
         22    1    3    3    0    0 -0.15784434989E+03  0.10806041221E+03  0.60336500072E+02  0.20058012045E+03  0.00000000000E+00 0.  1.
         22    1    3    3    0    0 -0.46704529949E+02 -0.29337318724E+02  0.51314201218E+02  0.75333516009E+02  0.00000000000E+00 0.  1.
</event>
<event>
 7    1  0.5889087E-006  0.5863574E+02  0.7818608E-02  0.1434146E+00
          2   -1    0    0  502    0  0.00000000000E+00  0.00000000000E+00  0.14299761937E+04  0.14299761937E+04  0.00000000000E+00 0. -1.
          1   -1    0    0  501    0 -0.00000000000E+00 -0.00000000000E+00 -0.35354294124E+03  0.35354294124E+03  0.00000000000E+00 0. -1.
         25    2    1    2    0    0 -0.88416200717E+02  0.22232061927E+02  0.42508457585E+03  0.45236546127E+03  0.12500369912E+03 0.  0.
          2    1    1    2  501    0  0.32333972573E+02 -0.33220029354E+02 -0.33749299799E+03  0.34066197297E+03  0.00000000000E+00 0. -1.
          1    1    1    2  502    0  0.56082228144E+02  0.10987967427E+02  0.98884167463E+03  0.99049170074E+03  0.00000000000E+00 0. -1.
         22    1    3    3    0    0 -0.10363319107E+03  0.36036345087E+02  0.41541105367E+03  0.42965660704E+03  0.00000000000E+00 0.  1.
         22    1    3    3    0    0  0.15216990357E+02 -0.13804283160E+02  0.96735221812E+01  0.22708854231E+02  0.00000000000E+00 0.  1.
</event>
<event>
 7    1  0.5889087E-006  0.4367618E+02  0.7818608E-02  0.1499665E+00
          2   -1    0    0  502    0  0.00000000000E+00  0.00000000000E+00  0.20530738584E+04  0.20530738584E+04  0.00000000000E+00 0. -1.
          1   -1    0    0  501    0 -0.00000000000E+00 -0.00000000000E+00 -0.11392791377E+04  0.11392791377E+04  0.00000000000E+00 0. -1.
         25    2    1    2    0    0  0.11752849568E+01  0.15183089680E+02  0.52947825062E+03  0.54424607512E+03  0.12499865958E+03 0.  0.
          2    1    1    2  501    0  0.38151536474E+02  0.72623615605E+01 -0.11312238407E+04  0.11318903036E+04  0.00000000000E+00 0. -1.
          1    1    1    2  502    0 -0.39326821431E+02 -0.22445451240E+02  0.15155403108E+04  0.15162166174E+04  0.00000000000E+00 0. -1.
         22    1    3    3    0    0 -0.36123741507E+01 -0.43560188972E+02  0.39510602255E+03  0.39751642527E+03  0.00000000000E+00 0. -1.
         22    1    3    3    0    0  0.47876591075E+01  0.58743278652E+02  0.13437222808E+03  0.14672964985E+03  0.00000000000E+00 0. -1.
</event>
<event>
 7    1  0.5889087E-006  0.7507258E+02  0.7818608E-02  0.1363006E+00
          2   -1    0    0  502    0  0.00000000000E+00  0.00000000000E+00  0.18131852028E+04  0.18131852028E+04  0.00000000000E+00 0. -1.
          1   -1    0    0  501    0 -0.00000000000E+00 -0.00000000000E+00 -0.27747806636E+04  0.27747806636E+04  0.00000000000E+00 0. -1.
         25    2    1    2    0    0  0.92090740234E+01  0.91660547597E+01  0.47590390567E+03  0.49221774169E+03  0.12499981683E+03 0.  0.
          2    1    1    2  501    0 -0.24848035236E+02 -0.70911943948E+02 -0.27653500083E+04  0.27663706543E+04  0.00000000000E+00 0. -1.
          1    1    1    2  502    0  0.15638961212E+02  0.61745889189E+02  0.13278506418E+04  0.13293774704E+04  0.00000000000E+00 0. -1.
         22    1    3    3    0    0  0.60234824936E+02  0.20639312024E+01  0.14051576162E+03  0.15289595551E+03  0.00000000000E+00 0.  1.
         22    1    3    3    0    0 -0.51025750912E+02  0.71021235572E+01  0.33538814404E+03  0.33932178619E+03  0.00000000000E+00 0.  1.
</event>
<event>
 7    1  0.5889087E-006  0.4194101E+02  0.7818608E-02  0.1508533E+00
          2   -1    0    0  502    0  0.00000000000E+00  0.00000000000E+00  0.19124496165E+02  0.19124496165E+02  0.00000000000E+00 0. -1.
          1   -1    0    0  501    0 -0.00000000000E+00 -0.00000000000E+00 -0.19205059978E+04  0.19205059978E+04  0.00000000000E+00 0. -1.
         25    2    1    2    0    0 -0.22715262765E+02 -0.35693475659E+02 -0.49614010090E+03  0.51339010313E+03  0.12499756357E+03 0.  0.
          2    1    1    2  501    0 -0.20458457763E+02  0.32100340409E+02 -0.13696320744E+04  0.13701609393E+04  0.00000000000E+00 0. -1.
          1    1    1    2  502    0  0.43173720528E+02  0.35931352496E+01 -0.35609326380E+02  0.56079451588E+02  0.00000000000E+00 0. -1.
         22    1    3    3    0    0 -0.41992856645E+02 -0.16668800918E+02 -0.47945463216E+03  0.48157864699E+03  0.00000000000E+00 0.  1.
         22    1    3    3    0    0  0.19277593880E+02 -0.19024674741E+02 -0.16685468744E+02  0.31811456144E+02  0.00000000000E+00 0.  1.
</event>
<event>
 7    1  0.5889087E-006  0.6575485E+02  0.7818608E-02  0.1417837E+00
          2   -1    0    0  502    0  0.00000000000E+00  0.00000000000E+00  0.19104293575E+03  0.19104293575E+03  0.00000000000E+00 0. -1.
          1   -1    0    0  501    0 -0.00000000000E+00 -0.00000000000E+00 -0.13510193346E+04  0.13510193346E+04  0.00000000000E+00 0. -1.
         25    2    1    2    0    0 -0.11156282289E+03 -0.35188561957E+01 -0.32640946477E+03  0.36691543937E+03  0.12500062065E+03 0.  0.
          2    1    1    2  501    0  0.46628627494E+02  0.41463581835E+01 -0.99761556121E+03  0.99871328677E+03  0.00000000000E+00 0. -1.
          1    1    1    2  502    0  0.64934195393E+02 -0.62750198775E+00  0.16404862709E+03  0.17643354426E+03  0.00000000000E+00 0. -1.
         22    1    3    3    0    0  0.17119596021E+02  0.27009172708E+02 -0.38254758727E+02  0.49859828956E+02  0.00000000000E+00 0.  1.
         22    1    3    3    0    0 -0.12868241891E+03 -0.30528028904E+02 -0.28815470604E+03  0.31705561042E+03  0.00000000000E+00 0.  1.
</event>
<event>
 7    1  0.5889087E-006  0.1477341E+03  0.7818608E-02  0.1234247E+00
          2   -1    0    0  502    0  0.00000000000E+00  0.00000000000E+00  0.11044330754E+04  0.11044330754E+04  0.00000000000E+00 0. -1.
          1   -1    0    0  501    0 -0.00000000000E+00 -0.00000000000E+00 -0.50939004453E+03  0.50939004453E+03  0.00000000000E+00 0. -1.
         25    2    1    2    0    0  0.28994934982E+02 -0.12851409876E+03 -0.11363020815E+03  0.21422926446E+03  0.12500309481E+03 0.  0.
          2    1    1    2  501    0 -0.13110847968E+03  0.97710337014E+02 -0.32320765933E+03  0.36221531505E+03  0.00000000000E+00 0. -1.
          1    1    1    2  502    0  0.10211354470E+03  0.30803761746E+02  0.10318808983E+04  0.10373785404E+04  0.00000000000E+00 0. -1.
         22    1    3    3    0    0 -0.15443048328E+02  0.90645271407E+01  0.12926919112E+02  0.22085258243E+02  0.00000000000E+00 0. -1.
         22    1    3    3    0    0  0.44437983309E+02 -0.13757862590E+03 -0.12655712726E+03  0.19214400622E+03  0.00000000000E+00 0. -1.
</event>
<event>
 7    1  0.5889087E-006  0.5313286E+02  0.7818608E-02  0.1457767E+00
          2   -1    0    0  502    0  0.00000000000E+00  0.00000000000E+00  0.16108431937E+04  0.16108431937E+04  0.00000000000E+00 0. -1.
          1   -1    0    0  501    0 -0.00000000000E+00 -0.00000000000E+00 -0.14612368028E+03  0.14612368028E+03  0.00000000000E+00 0. -1.
         25    2    1    2    0    0  0.54857513592E+01 -0.44583800042E+02 -0.13343486143E+02  0.13349335619E+03  0.12499847531E+03 0.  0.
          2    1    1    2  501    0  0.39709455057E+02  0.16352429007E+02 -0.65863739389E+02  0.78627443820E+02  0.00000000000E+00 0. -1.
          1    1    1    2  502    0 -0.45195206416E+02  0.28231371035E+02  0.15439267390E+04  0.15448460740E+04  0.00000000000E+00 0. -1.
         22    1    3    3    0    0 -0.54852052220E+01 -0.17917971435E+02 -0.68628418938E+02  0.71140713116E+02  0.00000000000E+00 0. -1.
         22    1    3    3    0    0  0.10970956581E+02 -0.26665828608E+02  0.55284932795E+02  0.62352643070E+02  0.00000000000E+00 0. -1.
</event>
<event>
 7    1  0.5889087E-006  0.5581498E+03  0.7818608E-02  0.1069569E+00
          2   -1    0    0  502    0  0.00000000000E+00  0.00000000000E+00  0.21454344991E+04  0.21454344991E+04  0.00000000000E+00 0. -1.
          1   -1    0    0  501    0 -0.00000000000E+00 -0.00000000000E+00 -0.12821037055E+04  0.12821037055E+04  0.00000000000E+00 0. -1.
         25    2    1    2    0    0 -0.64078681942E+03 -0.18602049931E+03  0.25360039158E+03  0.72467194207E+03  0.12499956365E+03 0.  0.
          2    1    1    2  501    0  0.46623810503E+03  0.28231746070E+03 -0.96890617950E+03  0.11116925402E+04  0.00000000000E+00 0. -1.
          1    1    1    2  502    0  0.17454871439E+03 -0.96296961390E+02  0.15786365815E+04  0.15911737224E+04  0.00000000000E+00 0. -1.
         22    1    3    3    0    0 -0.62001026993E+03 -0.15496959332E+03  0.22469029534E+03  0.67743194381E+03  0.00000000000E+00 0. -1.
         22    1    3    3    0    0 -0.20776549484E+02 -0.31050905982E+02  0.28910096239E+02  0.47239998257E+02  0.00000000000E+00 0. -1.
</event>
<event>
 7    1  0.5889087E-006  0.4620568E+02  0.7818608E-02  0.1576391E+00
          2   -1    0    0  502    0  0.00000000000E+00  0.00000000000E+00  0.27978461838E+03  0.27978461838E+03  0.00000000000E+00 0. -1.
          1   -1    0    0  501    0 -0.00000000000E+00 -0.00000000000E+00 -0.47514389889E+03  0.47514389889E+03  0.00000000000E+00 0. -1.
         25    2    1    2    0    0 -0.19298242613E+01 -0.63404738113E+02  0.42158325048E+02  0.14636949503E+03  0.12499127836E+03 0.  0.
          2    1    1    2  501    0 -0.10311697366E+02  0.19707984975E+02 -0.41996462594E+03  0.42055323422E+03  0.00000000000E+00 0. -1.
          1    1    1    2  502    0  0.12241521627E+02  0.43696753138E+02  0.18244702037E+03  0.18800578802E+03  0.00000000000E+00 0. -1.
         22    1    3    3    0    0  0.37747355073E+02 -0.86316937774E+02  0.25286838244E+02  0.97544352733E+02  0.00000000000E+00 0. -1.
         22    1    3    3    0    0 -0.39677179334E+02  0.22912199661E+02  0.16871486804E+02  0.48825142296E+02  0.00000000000E+00 0. -1.
</event>
<event>
 7    1  0.5889087E-006  0.1927373E+03  0.7818608E-02  0.1212774E+00
          2   -1    0    0  502    0  0.00000000000E+00  0.00000000000E+00  0.66218651873E+03  0.66218651873E+03  0.00000000000E+00 0. -1.
          1   -1    0    0  501    0 -0.00000000000E+00 -0.00000000000E+00 -0.20129332080E+03  0.20129332080E+03  0.00000000000E+00 0. -1.
         25    2    1    2    0    0 -0.60103167799E+01 -0.12439148258E+03  0.60539681828E+01  0.17655367113E+03  0.12500073365E+03 0.  0.
          2    1    1    2  501    0 -0.74355034225E+02 -0.70253020108E+02 -0.68295681900E+02  0.12299779720E+03  0.00000000000E+00 0. -1.
          1    1    1    2  502    0  0.80365351005E+02  0.19464450269E+03  0.52313491165E+03  0.56392837121E+03  0.00000000000E+00 0. -1.
         22    1    3    3    0    0  0.55974058166E+02 -0.45637846416E+02 -0.15913378680E+02  0.73953660045E+02  0.00000000000E+00 0. -1.
         22    1    3    3    0    0 -0.61984374945E+02 -0.78753636164E+02  0.21967346863E+02  0.10260001109E+03  0.00000000000E+00 0. -1.
</event>
<event>
 7    1  0.5889087E-006  0.1196604E+03  0.7818608E-02  0.1367791E+00
          2   -1    0    0  502    0  0.00000000000E+00  0.00000000000E+00  0.71045162672E+03  0.71045162672E+03  0.00000000000E+00 0. -1.
          1   -1    0    0  501    0 -0.00000000000E+00 -0.00000000000E+00 -0.26559258102E+03  0.26559258102E+03  0.00000000000E+00 0. -1.
         25    2    1    2    0    0  0.57059200518E+02 -0.71944214931E+02 -0.27225876715E+02  0.15747197378E+03  0.12499780694E+03 0.  0.
          2    1    1    2  501    0 -0.78661890121E+02  0.10369004909E+03 -0.14812144945E+03  0.19717830263E+03  0.00000000000E+00 0. -1.
          1    1    1    2  502    0  0.21602689603E+02 -0.31745834161E+02  0.62020637187E+03  0.62139393132E+03  0.00000000000E+00 0. -1.
         22    1    3    3    0    0  0.29489138844E+02 -0.58755298865E+02 -0.75641570077E+02  0.10021697251E+03  0.00000000000E+00 0.  1.
         22    1    3    3    0    0  0.27570061673E+02 -0.13188916067E+02  0.48415693362E+02  0.57255001279E+02  0.00000000000E+00 0.  1.
</event>
<event>
 7    1  0.5889087E-006  0.4498289E+02  0.7818608E-02  0.1499583E+00
          2   -1    0    0  502    0  0.00000000000E+00  0.00000000000E+00  0.12588833162E+03  0.12588833162E+03  0.00000000000E+00 0. -1.
          1   -1    0    0  501    0 -0.00000000000E+00 -0.00000000000E+00 -0.13920595438E+04  0.13920595438E+04  0.00000000000E+00 0. -1.
         25    2    1    2    0    0 -0.15694574685E+02 -0.79748795633E+02 -0.23804370229E+03  0.28088472472E+03  0.12500093720E+03 0.  0.
          2    1    1    2  501    0  0.13752423482E+02  0.42068925797E+02 -0.11287407632E+04  0.11296081773E+04  0.00000000000E+00 0. -1.
          1    1    1    2  502    0  0.19421512033E+01  0.37679869836E+02  0.10061325338E+03  0.10745497335E+03  0.00000000000E+00 0. -1.
         22    1    3    3    0    0 -0.41242654753E+02  0.20210362294E+02 -0.72781112718E+02  0.86061057881E+02  0.00000000000E+00 0. -1.
         22    1    3    3    0    0  0.25548080068E+02 -0.99959157927E+02 -0.16526258958E+03  0.19482366684E+03  0.00000000000E+00 0. -1.
</event>
<event>
 7    1  0.5889087E-006  0.7891351E+02  0.7818608E-02  0.1361946E+00
          2   -1    0    0  502    0  0.00000000000E+00  0.00000000000E+00  0.26025627526E+04  0.26025627526E+04  0.00000000000E+00 0. -1.
          1   -1    0    0  501    0 -0.00000000000E+00 -0.00000000000E+00 -0.49222419758E+03  0.49222419758E+03  0.00000000000E+00 0. -1.
         25    2    1    2    0    0  0.25067238768E+02 -0.10153018059E+02  0.41624810119E+03  0.43545248522E+03  0.12499973959E+03 0.  0.
          2    1    1    2  501    0  0.57908550092E+02  0.19599937892E+02 -0.47988099645E+03  0.48375957716E+03  0.00000000000E+00 0. -1.
          1    1    1    2  502    0 -0.82975788861E+02 -0.94469198334E+01  0.21739714502E+04  0.21755748878E+04  0.00000000000E+00 0. -1.
         22    1    3    3    0    0  0.30086595121E+02 -0.65554483995E+02  0.24485460831E+03  0.25525746373E+03  0.00000000000E+00 0. -1.
         22    1    3    3    0    0 -0.50193563531E+01  0.55401465936E+02  0.17139349288E+03  0.18019502149E+03  0.00000000000E+00 0. -1.
</event>
<event>
 7    1  0.5889087E-006  0.8034565E+02  0.7818608E-02  0.1467332E+00
          2   -1    0    0  502    0  0.00000000000E+00  0.00000000000E+00  0.46914579913E+02  0.46914579913E+02  0.00000000000E+00 0. -1.
          1   -1    0    0  501    0 -0.00000000000E+00 -0.00000000000E+00 -0.10657671962E+04  0.10657671962E+04  0.00000000000E+00 0. -1.
         25    2    1    2    0    0 -0.58749895752E+02 -0.78724907903E+01 -0.12614914438E+03  0.18722175491E+03  0.12499941009E+03 0.  0.
          2    1    1    2  501    0  0.81500335870E+02 -0.57162306578E+01 -0.89512876621E+03  0.89884953587E+03  0.00000000000E+00 0. -1.
          1    1    1    2  502    0 -0.22750440118E+02  0.13588721448E+02  0.24252943147E+01  0.26610485314E+02  0.00000000000E+00 0. -1.
         22    1    3    3    0    0 -0.83581222181E+02 -0.60097678278E+01 -0.13656932768E+03  0.16022833481E+03  0.00000000000E+00 0. -1.
         22    1    3    3    0    0  0.24831326429E+02 -0.18627229625E+01  0.10420183305E+02  0.26993420109E+02  0.00000000000E+00 0. -1.
</event>
<event>
 7    1  0.5889087E-006  0.8285190E+02  0.7818608E-02  0.1387577E+00
          2   -1    0    0  502    0  0.00000000000E+00  0.00000000000E+00  0.17693085379E+04  0.17693085379E+04  0.00000000000E+00 0. -1.
          1   -1    0    0  501    0 -0.00000000000E+00 -0.00000000000E+00 -0.80288062760E+03  0.80288062760E+03  0.00000000000E+00 0. -1.
         25    2    1    2    0    0 -0.43798103098E+02 -0.90408437319E+02  0.25761828193E+03  0.30345350266E+03  0.12499955887E+03 0.  0.
          2    1    1    2  501    0  0.46495442922E+02  0.79352294892E+01 -0.77810490295E+03  0.77953321551E+03  0.00000000000E+00 0. -1.
          1    1    1    2  502    0 -0.26973398245E+01  0.82473207830E+02  0.14869145313E+04  0.14892024473E+04  0.00000000000E+00 0. -1.
         22    1    3    3    0    0 -0.37348074305E+02 -0.33617041101E+02  0.23765771805E+03  0.24291186685E+03  0.00000000000E+00 0. -1.
         22    1    3    3    0    0 -0.64500287926E+01 -0.56791396218E+02  0.19960563871E+02  0.60541635804E+02  0.00000000000E+00 0. -1.
</event>
<event>
 7    1  0.5889087E-006  0.2852038E+02  0.7818608E-02  0.1644780E+00
          2   -1    0    0  502    0  0.00000000000E+00  0.00000000000E+00  0.20929899467E+03  0.20929899467E+03  0.00000000000E+00 0. -1.
          1   -1    0    0  501    0 -0.00000000000E+00 -0.00000000000E+00 -0.27425855256E+03  0.27425855256E+03  0.00000000000E+00 0. -1.
         25    2    1    2    0    0  0.51322181206E+01  0.25326557851E+01  0.88311061680E+02  0.15315609368E+03  0.12500076563E+03 0.  0.
          2    1    1    2  501    0 -0.15214232131E+02 -0.24321569285E+02 -0.23933647470E+03  0.24104970382E+03  0.00000000000E+00 0. -1.
          1    1    1    2  502    0  0.10082014010E+02  0.21788913500E+02  0.86065855137E+02  0.89351749723E+02  0.00000000000E+00 0. -1.
         22    1    3    3    0    0  0.24498150668E+02  0.59151723972E+02  0.56485940559E+02  0.85380017076E+02  0.00000000000E+00 0.  1.
         22    1    3    3    0    0 -0.19365932547E+02 -0.56619068187E+02  0.31825121122E+02  0.67776076607E+02  0.00000000000E+00 0.  1.
</event>
<event>
 7    1  0.5889087E-006  0.5954159E+02  0.7818608E-02  0.1488958E+00
          2   -1    0    0  502    0  0.00000000000E+00  0.00000000000E+00  0.99493780087E+03  0.99493780087E+03  0.00000000000E+00 0. -1.
          1   -1    0    0  501    0 -0.00000000000E+00 -0.00000000000E+00 -0.12003809181E+04  0.12003809181E+04  0.00000000000E+00 0. -1.
         25    2    1    2    0    0 -0.69518120421E+02  0.35333339946E+02  0.39552819613E+02  0.15254715743E+03  0.12499998289E+03 0.  0.
          2    1    1    2  501    0  0.40058713917E+02 -0.43904665425E+02 -0.11428495432E+04  0.11443939001E+04  0.00000000000E+00 0. -1.
          1    1    1    2  502    0  0.29459406504E+02  0.85713254788E+01  0.89785360632E+03  0.89837766147E+03  0.00000000000E+00 0. -1.
         22    1    3    3    0    0  0.34833780831E+02  0.42372965119E+01  0.24100279199E+02  0.42569595091E+02  0.00000000000E+00 0. -1.
         22    1    3    3    0    0 -0.10435190125E+03  0.31096043434E+02  0.15452540415E+02  0.10997756234E+03  0.00000000000E+00 0. -1.
</event>
<event>
 7    1  0.5889087E-006  0.9532164E+02  0.7818608E-02  0.1355223E+00
          2   -1    0    0  502    0  0.00000000000E+00  0.00000000000E+00  0.66483382980E+02  0.66483382980E+02  0.00000000000E+00 0. -1.
          1   -1    0    0  501    0 -0.00000000000E+00 -0.00000000000E+00 -0.26596861219E+04  0.26596861219E+04  0.00000000000E+00 0. -1.
         25    2    1    2    0    0 -0.32789636527E+02  0.10951119457E+03 -0.12789306083E+04  0.12900993746E+04  0.12500013349E+03 0.  0.
          2    1    1    2  501    0 -0.33792393644E+02 -0.41553909130E+02 -0.13371477309E+04  0.13382199772E+04  0.00000000000E+00 0. -1.
          1    1    1    2  502    0  0.66582030172E+02 -0.67957285438E+02  0.22875600220E+02  0.97850153149E+02  0.00000000000E+00 0. -1.
         22    1    3    3    0    0 -0.23843168927E+02  0.88033682076E+02 -0.37724572851E+03  0.38811437175E+03  0.00000000000E+00 0.  1.
         22    1    3    3    0    0 -0.89464676002E+01  0.21477512492E+02 -0.90168487982E+03  0.90198500283E+03  0.00000000000E+00 0.  1.
</event>
<event>
 7    1  0.5889087E-006  0.2155699E+03  0.7818608E-02  0.1170910E+00
          2   -1    0    0  502    0  0.00000000000E+00  0.00000000000E+00  0.36393599623E+03  0.36393599623E+03  0.00000000000E+00 0. -1.
          1   -1    0    0  501    0 -0.00000000000E+00 -0.00000000000E+00 -0.64896688207E+03  0.64896688207E+03  0.00000000000E+00 0. -1.
         25    2    1    2    0    0 -0.26692118214E+03 -0.13763377210E+03 -0.11923368807E+03  0.34645412924E+03  0.12499527428E+03 0.  0.
          2    1    1    2  501    0  0.20094001947E+03  0.84642375612E+01 -0.36695285402E+03  0.41845302224E+03  0.00000000000E+00 0. -1.
          1    1    1    2  502    0  0.65981162672E+02  0.12916953454E+03  0.20115565626E+03  0.24799572683E+03  0.00000000000E+00 0. -1.
         22    1    3    3    0    0 -0.46893665002E+02  0.13348405345E+02  0.10293823126E+02  0.49831300777E+02  0.00000000000E+00 0.  1.
         22    1    3    3    0    0 -0.22002751714E+03 -0.15098217744E+03 -0.12952751120E+03  0.29662282846E+03  0.00000000000E+00 0.  1.
</event>
<event>
 7    1  0.5889087E-006  0.7579882E+02  0.7818608E-02  0.1393978E+00
          2   -1    0    0  502    0  0.00000000000E+00  0.00000000000E+00  0.82058315165E+02  0.82058315165E+02  0.00000000000E+00 0. -1.
          1   -1    0    0  501    0 -0.00000000000E+00 -0.00000000000E+00 -0.18077220854E+04  0.18077220854E+04  0.00000000000E+00 0. -1.
         25    2    1    2    0    0 -0.67171570287E+02 -0.68600116103E+02 -0.10731241189E+04  0.10846373860E+04  0.12499955493E+03 0.  0.
          2    1    1    2  501    0  0.18215604665E+02  0.69961287972E+02 -0.71897862332E+03  0.72260407614E+03  0.00000000000E+00 0. -1.
          1    1    1    2  502    0  0.48955965622E+02 -0.13611718687E+01  0.66438971987E+02  0.82538938433E+02  0.00000000000E+00 0. -1.
         22    1    3    3    0    0  0.18412321954E+02 -0.21571619481E+02 -0.64054882878E+03  0.64117638012E+03  0.00000000000E+00 0. -1.
         22    1    3    3    0    0 -0.85583892241E+02 -0.47028496622E+02 -0.43257529009E+03  0.44346100584E+03  0.00000000000E+00 0. -1.
</event>
<event>
 7    1  0.5889087E-006  0.1768793E+03  0.7818608E-02  0.1243709E+00
          2   -1    0    0  502    0  0.00000000000E+00  0.00000000000E+00  0.65851417242E+02  0.65851417242E+02  0.00000000000E+00 0. -1.
          1   -1    0    0  501    0 -0.00000000000E+00 -0.00000000000E+00 -0.11111056300E+04  0.11111056300E+04  0.00000000000E+00 0. -1.
         25    2    1    2    0    0 -0.88898532766E+01 -0.35055855890E+02 -0.38389519761E+03  0.40534351353E+03  0.12497959309E+03 0.  0.
          2    1    1    2  501    0  0.18202034056E+03 -0.11671292643E+01 -0.50033476791E+03  0.53241679777E+03  0.00000000000E+00 0. -1.
          1    1    1    2  502    0 -0.17313048729E+03  0.36222985154E+02 -0.16102424721E+03  0.23919673591E+03  0.00000000000E+00 0. -1.
         22    1    3    3    0    0  0.45729827839E+02  0.11043288965E+02 -0.76987972893E+02  0.90223718364E+02  0.00000000000E+00 0. -1.
         22    1    3    3    0    0 -0.54619681115E+02 -0.46099144854E+02 -0.30690722472E+03  0.31511979517E+03  0.00000000000E+00 0. -1.
</event>
<event>
 7    1  0.5889087E-006  0.1159064E+03  0.7818608E-02  0.1389248E+00
          2   -1    0    0  502    0  0.00000000000E+00  0.00000000000E+00  0.27789882858E+04  0.27789882858E+04  0.00000000000E+00 0. -1.
          1   -1    0    0  501    0 -0.00000000000E+00 -0.00000000000E+00 -0.36435038446E+02  0.36435038446E+02  0.00000000000E+00 0. -1.
         25    2    1    2    0    0 -0.23395687195E+01 -0.10623305974E+03  0.40444516969E+03  0.43645241742E+03  0.12499552321E+03 0.  0.
          2    1    1    2  501    0  0.34038659840E+02  0.11632064794E+03  0.16055716674E+03  0.20116591981E+03  0.00000000000E+00 0. -1.
          1    1    1    2  502    0 -0.31699091121E+02 -0.10087588196E+02  0.21775509109E+04  0.21778049870E+04  0.00000000000E+00 0. -1.
         22    1    3    3    0    0 -0.50654972868E+02 -0.41578132347E+01  0.11360570992E+03  0.12445670337E+03  0.00000000000E+00 0. -1.
         22    1    3    3    0    0  0.48315404149E+02 -0.10207524651E+03  0.29083945977E+03  0.31199571405E+03  0.00000000000E+00 0. -1.
</event>
<event>
 7    1  0.5889087E-006  0.4609799E+02  0.7818608E-02  0.1564313E+00
          2   -1    0    0  502    0  0.00000000000E+00  0.00000000000E+00  0.11689635698E+04  0.11689635698E+04  0.00000000000E+00 0. -1.
          1   -1    0    0  501    0 -0.00000000000E+00 -0.00000000000E+00 -0.24763902987E+03  0.24763902987E+03  0.00000000000E+00 0. -1.
         25    2    1    2    0    0 -0.20936457255E+02 -0.21340728986E+02  0.96113073079E+02  0.16048839619E+03  0.12500016215E+03 0.  0.
          2    1    1    2  501    0  0.44066400024E+02  0.14776048069E+02 -0.21280396288E+03  0.21782035218E+03  0.00000000000E+00 0. -1.
          1    1    1    2  502    0 -0.23129942769E+02  0.65646809168E+01  0.10380154298E+04  0.10382938513E+04  0.00000000000E+00 0. -1.
         22    1    3    3    0    0  0.27270736219E+02  0.23778643792E+02  0.86502606801E+02  0.93764694517E+02  0.00000000000E+00 0.  1.
         22    1    3    3    0    0 -0.48207193474E+02 -0.45119372777E+02  0.96104662779E+01  0.66723701670E+02  0.00000000000E+00 0.  1.
</event>
<event>
 7    1  0.5889087E-006  0.7760781E+02  0.7818608E-02  0.1350255E+00
          2   -1    0    0  502    0  0.00000000000E+00  0.00000000000E+00  0.19962085150E+04  0.19962085150E+04  0.00000000000E+00 0. -1.
          1   -1    0    0  501    0 -0.00000000000E+00 -0.00000000000E+00 -0.40920747737E+02  0.40920747737E+02  0.00000000000E+00 0. -1.
         25    2    1    2    0    0 -0.70210942270E+01  0.55420768011E+02  0.36062511485E+03  0.38574017338E+03  0.12499700240E+03 0.  0.
          2    1    1    2  501    0  0.74225633100E+02 -0.41550129881E+02  0.37917272710E+02  0.93132043208E+02  0.00000000000E+00 0. -1.
          1    1    1    2  502    0 -0.67204538873E+02 -0.13870638129E+02  0.15567453797E+04  0.15582570461E+04  0.00000000000E+00 0. -1.
         22    1    3    3    0    0  0.33742609538E+02  0.32011658929E+02  0.32073195803E+03  0.32408686939E+03  0.00000000000E+00 0. -1.
         22    1    3    3    0    0 -0.40763703765E+02  0.23409109082E+02  0.39893156824E+02  0.61653303999E+02  0.00000000000E+00 0. -1.
</event>
<event>
 7    1  0.5889087E-006  0.9022182E+02  0.7818608E-02  0.1382517E+00
          2   -1    0    0  502    0  0.00000000000E+00  0.00000000000E+00  0.76542580682E+02  0.76542580682E+02  0.00000000000E+00 0. -1.
          1   -1    0    0  501    0 -0.00000000000E+00 -0.00000000000E+00 -0.41990210148E+03  0.41990210148E+03  0.00000000000E+00 0. -1.
         25    2    1    2    0    0 -0.18797530971E+01  0.70774227825E+02 -0.18720632551E+03  0.23597415051E+03  0.12500026641E+03 0.  0.
          2    1    1    2  501    0 -0.42870913499E+02  0.14085641080E+02 -0.15820213518E+03  0.16451211531E+03  0.00000000000E+00 0. -1.
          1    1    1    2  502    0  0.44750666596E+02 -0.84859868906E+02  0.20489398899E+01  0.95958416338E+02  0.00000000000E+00 0. -1.
         22    1    3    3    0    0  0.17688869023E+02  0.68537653459E+02 -0.28914171982E+02  0.76461332517E+02  0.00000000000E+00 0. -1.
         22    1    3    3    0    0 -0.19568622120E+02  0.22365743667E+01 -0.15829215353E+03  0.15951281799E+03  0.00000000000E+00 0. -1.
</event>
<event>
 7    1  0.5889087E-006  0.1175684E+03  0.7818608E-02  0.1278049E+00
          2   -1    0    0  502    0  0.00000000000E+00  0.00000000000E+00  0.32894409872E+02  0.32894409872E+02  0.00000000000E+00 0. -1.
          1   -1    0    0  501    0 -0.00000000000E+00 -0.00000000000E+00 -0.21669481212E+04  0.21669481212E+04  0.00000000000E+00 0. -1.
         25    2    1    2    0    0 -0.35369911760E+02  0.38890541910E+02 -0.23276759221E+03  0.26939393564E+03  0.12501534173E+03 0.  0.
          2    1    1    2  501    0 -0.64366506274E+02  0.98383288887E+02 -0.13109324574E+04  0.13161938408E+04  0.00000000000E+00 0. -1.
          1    1    1    2  502    0  0.99736418034E+02 -0.13727383080E+03 -0.59035366172E+03  0.61425475465E+03  0.00000000000E+00 0. -1.
         22    1    3    3    0    0 -0.80134424615E+02  0.42385649430E+02 -0.15173255209E+03  0.17675077553E+03  0.00000000000E+00 0.  1.
         22    1    3    3    0    0  0.44764512856E+02 -0.34951075199E+01 -0.81035040123E+02  0.92643160112E+02  0.00000000000E+00 0.  1.
</event>
<event>
 7    1  0.5889087E-006  0.1410450E+03  0.7818608E-02  0.1276944E+00
          2   -1    0    0  502    0  0.00000000000E+00  0.00000000000E+00  0.28553064827E+03  0.28553064827E+03  0.00000000000E+00 0. -1.
          1   -1    0    0  501    0 -0.00000000000E+00 -0.00000000000E+00 -0.11624529563E+04  0.11624529563E+04  0.00000000000E+00 0. -1.
         25    2    1    2    0    0  0.95922611634E+02  0.46373213297E+02 -0.30187320498E+03  0.34366191974E+03  0.12499784343E+03 0.  0.
          2    1    1    2  501    0 -0.15565686448E+03 -0.40606495107E+01 -0.82721669247E+03  0.84174402560E+03  0.00000000000E+00 0. -1.
          1    1    1    2  502    0  0.59734252849E+02 -0.42312563786E+02  0.25216758938E+03  0.26257765928E+03  0.00000000000E+00 0. -1.
         22    1    3    3    0    0  0.12061442929E+03  0.55885381044E+02 -0.21432875624E+03  0.25220593197E+03  0.00000000000E+00 0.  1.
         22    1    3    3    0    0 -0.24691817659E+02 -0.95121677469E+01 -0.87544448738E+02  0.91455987772E+02  0.00000000000E+00 0.  1.
</event>
<event>
 7    1  0.5889087E-006  0.3602816E+02  0.7818608E-02  0.1633109E+00
          2   -1    0    0  502    0  0.00000000000E+00  0.00000000000E+00  0.21944755511E+04  0.21944755511E+04  0.00000000000E+00 0. -1.
          1   -1    0    0  501    0 -0.00000000000E+00 -0.00000000000E+00 -0.33635258343E+02  0.33635258343E+02  0.00000000000E+00 0. -1.
         25    2    1    2    0    0  0.25136780682E+02 -0.30260053083E+02  0.15172597714E+03  0.20048166691E+03  0.12499839228E+03 0.  0.
          2    1    1    2  501    0 -0.19600387555E+02 -0.53551534310E+01  0.22520096558E+01  0.20443199555E+02  0.00000000000E+00 0. -1.
          1    1    1    2  502    0 -0.55363931276E+01  0.35615206514E+02  0.20068623060E+04  0.20071859430E+04  0.00000000000E+00 0. -1.
         22    1    3    3    0    0  0.72215863678E+02 -0.33914662430E+02  0.70212919524E+02  0.10627882838E+03  0.00000000000E+00 0. -1.
         22    1    3    3    0    0 -0.47079082996E+02  0.36546093468E+01  0.81513057615E+02  0.94202838529E+02  0.00000000000E+00 0. -1.
</event>
<event>
 7    1  0.5889087E-006  0.7266680E+02  0.7818608E-02  0.1422771E+00
          2   -1    0    0  502    0  0.00000000000E+00  0.00000000000E+00  0.28885119380E+03  0.28885119380E+03  0.00000000000E+00 0. -1.
          1   -1    0    0  501    0 -0.00000000000E+00 -0.00000000000E+00 -0.12476989520E+03  0.12476989520E+03  0.00000000000E+00 0. -1.
         25    2    1    2    0    0  0.45430402614E+01 -0.83836594125E+02  0.63290927097E+02  0.16333861288E+03  0.12499818909E+03 0.  0.
          2    1    1    2  501    0 -0.36186745245E+02  0.18809432818E+02 -0.60820811438E+02  0.73228726592E+02  0.00000000000E+00 0. -1.
          1    1    1    2  502    0  0.31643704983E+02  0.65027161306E+02  0.16161118294E+03  0.17705374953E+03  0.00000000000E+00 0. -1.
         22    1    3    3    0    0  0.28196440877E+02 -0.50185664410E+01 -0.28263284918E+02  0.40237278258E+02  0.00000000000E+00 0. -1.
         22    1    3    3    0    0 -0.23653400616E+02 -0.78818027684E+02  0.91554212015E+02  0.12310133462E+03  0.00000000000E+00 0. -1.
</event>
<event>
 7    1  0.5889087E-006  0.6426125E+02  0.7818608E-02  0.1470385E+00
          2   -1    0    0  502    0  0.00000000000E+00  0.00000000000E+00  0.30987813987E+03  0.30987813987E+03  0.00000000000E+00 0. -1.
          1   -1    0    0  501    0 -0.00000000000E+00 -0.00000000000E+00 -0.53252278429E+03  0.53252278429E+03  0.00000000000E+00 0. -1.
         25    2    1    2    0    0 -0.74211004862E+02 -0.60614031060E+02 -0.30115081623E+03  0.33985114596E+03  0.12500261312E+03 0.  0.
          2    1    1    2  501    0  0.21878876408E+02  0.23917251018E+02 -0.20723116681E+03  0.20975098719E+03  0.00000000000E+00 0. -1.
          1    1    1    2  502    0  0.52332128453E+02  0.36696780042E+02  0.28573733863E+03  0.29279879101E+03  0.00000000000E+00 0. -1.
         22    1    3    3    0    0 -0.19692159198E+02 -0.54623388204E+02 -0.34335247044E+02  0.67456688788E+02  0.00000000000E+00 0. -1.
         22    1    3    3    0    0 -0.54518845664E+02 -0.59906428563E+01 -0.26681556919E+03  0.27239445717E+03  0.00000000000E+00 0. -1.
</event>
<event>
 7    1  0.5889087E-006  0.7935891E+02  0.7818608E-02  0.1382556E+00
          2   -1    0    0  502    0  0.00000000000E+00  0.00000000000E+00  0.95551986219E+03  0.95551986219E+03  0.00000000000E+00 0. -1.
          1   -1    0    0  501    0 -0.00000000000E+00 -0.00000000000E+00 -0.92266780597E+02  0.92266780597E+02  0.00000000000E+00 0. -1.
         25    2    1    2    0    0 -0.40400250742E+02 -0.84200951947E+02  0.18562897926E+03  0.24249790893E+03  0.12500054930E+03 0.  0.
          2    1    1    2  501    0 -0.10579107005E+02  0.78599475944E+02 -0.37921101584E+02  0.87907935189E+02  0.00000000000E+00 0. -1.
          1    1    1    2  502    0  0.50979357747E+02  0.56014760027E+01  0.71554520391E+03  0.71738079867E+03  0.00000000000E+00 0. -1.
         22    1    3    3    0    0 -0.58356842192E+02 -0.60754968195E+02  0.19425225391E+03  0.21173243809E+03  0.00000000000E+00 0. -1.
         22    1    3    3    0    0  0.17956591450E+02 -0.23445983752E+02 -0.86232746440E+01  0.30765470843E+02  0.00000000000E+00 0. -1.
</event>
<event>
 7    1  0.5889087E-006  0.5200959E+02  0.7818608E-02  0.1525621E+00
          2   -1    0    0  502    0  0.00000000000E+00  0.00000000000E+00  0.49323294075E+03  0.49323294075E+03  0.00000000000E+00 0. -1.
          1   -1    0    0  501    0 -0.00000000000E+00 -0.00000000000E+00 -0.36040151994E+02  0.36040151994E+02  0.00000000000E+00 0. -1.
         25    2    1    2    0    0  0.40190544985E+02  0.47738569613E+01  0.25861936398E+03  0.29007926908E+03  0.12499574917E+03 0.  0.
          2    1    1    2  501    0 -0.50159558006E+02  0.20715570753E+02  0.18927459746E+02  0.57474906380E+02  0.00000000000E+00 0. -1.
          1    1    1    2  502    0  0.99690130206E+01 -0.25489427714E+02  0.17964596503E+03  0.18171891728E+03  0.00000000000E+00 0. -1.
         22    1    3    3    0    0  0.24380148870E+02 -0.55437788798E+02  0.76232310849E+02  0.97360696911E+02  0.00000000000E+00 0.  1.
         22    1    3    3    0    0  0.15810396115E+02  0.60211645759E+02  0.18238705313E+03  0.19271857217E+03  0.00000000000E+00 0.  1.
</event>
<event>
 7    1  0.5889087E-006  0.2841576E+03  0.7818608E-02  0.1287651E+00
          2   -1    0    0  502    0  0.00000000000E+00  0.00000000000E+00  0.21854587538E+04  0.21854587538E+04  0.00000000000E+00 0. -1.
          1   -1    0    0  501    0 -0.00000000000E+00 -0.00000000000E+00 -0.10348504463E+04  0.10348504463E+04  0.00000000000E+00 0. -1.
         25    2    1    2    0    0  0.13411064544E+03  0.27431180953E+03 -0.40069513188E+03  0.51905239956E+03  0.12500468272E+03 0.  0.
          2    1    1    2  501    0 -0.12167834993E+03 -0.24392950980E+03 -0.54253198819E+03  0.60716405099E+03  0.00000000000E+00 0. -1.
          1    1    1    2  502    0 -0.12432295503E+02 -0.30382299725E+02  0.20938354276E+04  0.20940927496E+04  0.00000000000E+00 0. -1.
         22    1    3    3    0    0  0.36488546208E+02 -0.21747831332E+01 -0.39348797863E+02  0.53707276782E+02  0.00000000000E+00 0.  1.
         22    1    3    3    0    0  0.97622099230E+02  0.27648659266E+03 -0.36134633402E+03  0.46534512277E+03  0.00000000000E+00 0.  1.
</event>
<event>
 7    1  0.5889087E-006  0.1482250E+03  0.7818608E-02  0.1288845E+00
          2   -1    0    0  502    0  0.00000000000E+00  0.00000000000E+00  0.56080598233E+03  0.56080598233E+03  0.00000000000E+00 0. -1.
          1   -1    0    0  501    0 -0.00000000000E+00 -0.00000000000E+00 -0.89561593123E+03  0.89561593123E+03  0.00000000000E+00 0. -1.
         25    2    1    2    0    0 -0.20159908343E+03  0.51926302476E+01  0.10374644353E+03  0.25895462227E+03  0.12500007199E+03 0.  0.
          2    1    1    2  501    0  0.14368758783E+03 -0.27973524494E+02 -0.80884554086E+03  0.82198524922E+03  0.00000000000E+00 0. -1.
          1    1    1    2  502    0  0.57911495598E+02  0.22780894247E+02  0.37028914844E+03  0.37548204207E+03  0.00000000000E+00 0. -1.
         22    1    3    3    0    0 -0.12888456382E+03  0.22495419512E+02  0.12530887966E+03  0.18116177856E+03  0.00000000000E+00 0. -1.
         22    1    3    3    0    0 -0.72714519615E+02 -0.17302789265E+02 -0.21562436137E+02  0.77792843703E+02  0.00000000000E+00 0. -1.
</event>
<event>
 7    1  0.5889087E-006  0.1389408E+03  0.7818608E-02  0.1319134E+00
          2   -1    0    0  502    0  0.00000000000E+00  0.00000000000E+00  0.17771459542E+04  0.17771459542E+04  0.00000000000E+00 0. -1.
          1   -1    0    0  501    0 -0.00000000000E+00 -0.00000000000E+00 -0.24841919586E+04  0.24841919586E+04  0.00000000000E+00 0. -1.
         25    2    1    2    0    0 -0.51515119726E+02  0.86977748451E+02 -0.89738059473E+02  0.18412155400E+03  0.12501556321E+03 0.  0.
          2    1    1    2  501    0  0.15082107447E+02  0.47987965941E+02 -0.23441676668E+04  0.23447073090E+04  0.00000000000E+00 0. -1.
          1    1    1    2  502    0  0.36433012279E+02 -0.13496571439E+03  0.17268597219E+04  0.17325090498E+04  0.00000000000E+00 0. -1.
         22    1    3    3    0    0 -0.35992181533E+02  0.39851444634E+02 -0.11611381883E+03  0.12792964353E+03  0.00000000000E+00 0.  1.
         22    1    3    3    0    0 -0.15522938193E+02  0.47126303817E+02  0.26375759352E+02  0.56191910476E+02  0.00000000000E+00 0.  1.
</event>
<event>
 7    1  0.5889087E-006  0.2354963E+03  0.7818608E-02  0.1208294E+00
          2   -1    0    0  502    0  0.00000000000E+00  0.00000000000E+00  0.49774028164E+03  0.49774028164E+03  0.00000000000E+00 0. -1.
          1   -1    0    0  501    0 -0.00000000000E+00 -0.00000000000E+00 -0.53185201933E+03  0.53185201933E+03  0.00000000000E+00 0. -1.
         25    2    1    2    0    0  0.13792044399E+03  0.95254325410E+02  0.41416801862E+02  0.21315826979E+03  0.12500264446E+03 0.  0.
          2    1    1    2  501    0 -0.21401171450E+03 -0.13909803514E+03 -0.40319936429E+03  0.47719912478E+03  0.00000000000E+00 0. -1.
          1    1    1    2  502    0  0.76091270509E+02  0.43843709729E+02  0.32767082474E+03  0.33923490639E+03  0.00000000000E+00 0. -1.
         22    1    3    3    0    0  0.15354680665E+03  0.10131513119E+03  0.54535972902E+02  0.19187378659E+03  0.00000000000E+00 0.  1.
         22    1    3    3    0    0 -0.15626362651E+02 -0.60608057788E+01 -0.13119171040E+02  0.21284483202E+02  0.00000000000E+00 0.  1.
</event>
<event>
 7    1  0.5889087E-006  0.2965361E+02  0.7818608E-02  0.1665767E+00
          2   -1    0    0  502    0  0.00000000000E+00  0.00000000000E+00  0.14549357037E+04  0.14549357037E+04  0.00000000000E+00 0. -1.
          1   -1    0    0  501    0 -0.00000000000E+00 -0.00000000000E+00 -0.18983416957E+02  0.18983416957E+02  0.00000000000E+00 0. -1.
         25    2    1    2    0    0  0.39425364826E+02 -0.10235359486E+02  0.70117925306E+03  0.71339848487E+03  0.12500372519E+03 0.  0.
          2    1    1    2  501    0 -0.10954492236E+02  0.17358720640E+02 -0.42112705074E+01  0.20953779652E+02  0.00000000000E+00 0. -1.
          1    1    1    2  502    0 -0.28470872590E+02 -0.71233611540E+01  0.73898430421E+03  0.73956685616E+03  0.00000000000E+00 0. -1.
         22    1    3    3    0    0  0.37180016468E+01 -0.52614977105E+02  0.14199978444E+03  0.15147969545E+03  0.00000000000E+00 0. -1.
         22    1    3    3    0    0  0.35707363179E+02  0.42379617619E+02  0.55917946862E+03  0.56191878942E+03  0.00000000000E+00 0. -1.
</event>
<event>
 7    1  0.5889087E-006  0.1885245E+03  0.7818608E-02  0.1292302E+00
          2   -1    0    0  502    0  0.00000000000E+00  0.00000000000E+00  0.82252141094E+03  0.82252141094E+03  0.00000000000E+00 0. -1.
          1   -1    0    0  501    0 -0.00000000000E+00 -0.00000000000E+00 -0.44011636757E+03  0.44011636757E+03  0.00000000000E+00 0. -1.
         25    2    1    2    0    0 -0.20036106391E+03 -0.95116951580E+02  0.12555760739E+03  0.28386804253E+03  0.12499824954E+03 0.  0.
          2    1    1    2  501    0  0.15363368869E+03  0.10289903534E+03 -0.33627380235E+03  0.38375981020E+03  0.00000000000E+00 0. -1.
          1    1    1    2  502    0  0.46727375219E+02 -0.77820837555E+01  0.59312123833E+03  0.59500992578E+03  0.00000000000E+00 0. -1.
         22    1    3    3    0    0 -0.20937395454E+03 -0.60354300698E+02  0.11527704022E+03  0.24651346911E+03  0.00000000000E+00 0. -1.
         22    1    3    3    0    0  0.90128906325E+01 -0.34762650882E+02  0.10280567170E+02  0.37354573418E+02  0.00000000000E+00 0. -1.
</event>
<event>
 7    1  0.5889087E-006  0.1388125E+03  0.7818608E-02  0.1242564E+00
          2   -1    0    0  502    0  0.00000000000E+00  0.00000000000E+00  0.91751433427E+03  0.91751433427E+03  0.00000000000E+00 0. -1.
          1   -1    0    0  501    0 -0.00000000000E+00 -0.00000000000E+00 -0.42982801852E+03  0.42982801852E+03  0.00000000000E+00 0. -1.
         25    2    1    2    0    0  0.83068547836E+02  0.21798609785E+03  0.82014660047E+02  0.27707175022E+03  0.12499611118E+03 0.  0.
          2    1    1    2  501    0 -0.63973466088E+02 -0.11545127905E+03 -0.31529040356E+03  0.34180351194E+03  0.00000000000E+00 0. -1.
          1    1    1    2  502    0 -0.19095081747E+02 -0.10253481880E+03  0.72096205927E+03  0.72846709062E+03  0.00000000000E+00 0. -1.
         22    1    3    3    0    0  0.24261977734E+02  0.77016781976E+02  0.93926528343E+02  0.12386452679E+03  0.00000000000E+00 0. -1.
         22    1    3    3    0    0  0.58806570102E+02  0.14096931588E+03 -0.11911868295E+02  0.15320722343E+03  0.00000000000E+00 0. -1.
</event>
<event>
 7    1  0.5889087E-006  0.6148655E+02  0.7818608E-02  0.1460680E+00
          2   -1    0    0  502    0  0.00000000000E+00  0.00000000000E+00  0.17176415149E+04  0.17176415149E+04  0.00000000000E+00 0. -1.
          1   -1    0    0  501    0 -0.00000000000E+00 -0.00000000000E+00 -0.51999652778E+03  0.51999652778E+03  0.00000000000E+00 0. -1.
         25    2    1    2    0    0  0.26094775109E+02 -0.30877499313E+02 -0.30086321098E+02  0.13477492984E+03  0.12499895098E+03 0.  0.
          2    1    1    2  501    0 -0.60043568632E+02  0.17935377763E+02 -0.43512284182E+03  0.43961209649E+03  0.00000000000E+00 0. -1.
          1    1    1    2  502    0  0.33948793523E+02  0.12942121550E+02  0.16628541500E+04  0.16632510164E+04  0.00000000000E+00 0. -1.
         22    1    3    3    0    0 -0.67293439406E+01 -0.27133065275E+02 -0.74413212002E+02  0.79490964402E+02  0.00000000000E+00 0.  1.
         22    1    3    3    0    0  0.32824119050E+02 -0.37444340385E+01  0.44326890904E+02  0.55283965442E+02  0.00000000000E+00 0.  1.
</event>
<event>
 7    1  0.5889087E-006  0.3682215E+02  0.7818608E-02  0.1549028E+00
          2   -1    0    0  502    0  0.00000000000E+00  0.00000000000E+00  0.29284930720E+03  0.29284930720E+03  0.00000000000E+00 0. -1.
          1   -1    0    0  501    0 -0.00000000000E+00 -0.00000000000E+00 -0.23085678383E+03  0.23085678383E+03  0.00000000000E+00 0. -1.
         25    2    1    2    0    0 -0.29107175831E+02 -0.20210816518E+02 -0.11926193202E+03  0.17636592132E+03  0.12500329990E+03 0.  0.
          2    1    1    2  501    0 -0.56895540581E+01  0.32685136759E+02 -0.78366982464E+02  0.85100370921E+02  0.00000000000E+00 0. -1.
          1    1    1    2  502    0  0.34796729889E+02 -0.12474320241E+02  0.25962143785E+03  0.26223979878E+03  0.00000000000E+00 0. -1.
         22    1    3    3    0    0  0.33482985227E+02 -0.34109387562E+02 -0.87343177226E+01  0.48588567849E+02  0.00000000000E+00 0.  1.
         22    1    3    3    0    0 -0.62590161058E+02  0.13898571044E+02 -0.11052761429E+03  0.12777735347E+03  0.00000000000E+00 0.  1.
</event>
<event>
 7    1  0.5889087E-006  0.3028182E+02  0.7818608E-02  0.1611903E+00
          2   -1    0    0  502    0  0.00000000000E+00  0.00000000000E+00  0.27267484576E+03  0.27267484576E+03  0.00000000000E+00 0. -1.
          1   -1    0    0  501    0 -0.00000000000E+00 -0.00000000000E+00 -0.14574249685E+04  0.14574249685E+04  0.00000000000E+00 0. -1.
         25    2    1    2    0    0 -0.21783990865E+02 -0.50974234154E+02 -0.66269538036E+03  0.67665642030E+03  0.12500331666E+03 0.  0.
          2    1    1    2  501    0  0.30892895580E+01  0.27190104033E+02 -0.78664926449E+03  0.78712509221E+03  0.00000000000E+00 0. -1.
          1    1    1    2  502    0  0.18694701307E+02  0.23784130122E+02  0.26459452212E+03  0.26631830174E+03  0.00000000000E+00 0. -1.
         22    1    3    3    0    0  0.48448147780E+02 -0.46491243454E+01 -0.32574564034E+03  0.32936159397E+03  0.00000000000E+00 0.  1.
         22    1    3    3    0    0 -0.70232138645E+02 -0.46325109809E+02 -0.33694974002E+03  0.34729482633E+03  0.00000000000E+00 0.  1.
</event>
<event>
 7    1  0.5889087E-006  0.5230317E+02  0.7818608E-02  0.1498571E+00
          2   -1    0    0  502    0  0.00000000000E+00  0.00000000000E+00  0.23700340312E+04  0.23700340312E+04  0.00000000000E+00 0. -1.
          1   -1    0    0  501    0 -0.00000000000E+00 -0.00000000000E+00 -0.25091267604E+02  0.25091267604E+02  0.00000000000E+00 0. -1.
         25    2    1    2    0    0  0.64950907249E+02  0.40813958488E+02  0.25629398523E+03  0.29528959250E+03  0.12499974804E+03 0.  0.
          2    1    1    2  501    0 -0.35543082581E+02 -0.26569843941E+02  0.84703167584E+02  0.95623710057E+02  0.00000000000E+00 0. -1.
          1    1    1    2  502    0 -0.29407824667E+02 -0.14244114546E+02  0.20039456108E+04  0.20042119963E+04  0.00000000000E+00 0. -1.
         22    1    3    3    0    0  0.93766399794E+02 -0.14520551148E-01  0.13766616245E+03  0.16656563339E+03  0.00000000000E+00 0. -1.
         22    1    3    3    0    0 -0.28815492546E+02  0.40828479039E+02  0.11862782278E+03  0.12872395911E+03  0.00000000000E+00 0. -1.
</event>
<event>
 7    1  0.5889087E-006  0.7568359E+02  0.7818608E-02  0.1414714E+00
          2   -1    0    0  502    0  0.00000000000E+00  0.00000000000E+00  0.27924329221E+03  0.27924329221E+03  0.00000000000E+00 0. -1.
          1   -1    0    0  501    0 -0.00000000000E+00 -0.00000000000E+00 -0.80918127420E+03  0.80918127420E+03  0.00000000000E+00 0. -1.
         25    2    1    2    0    0  0.56754257013E+02 -0.33082114920E+01 -0.77751592229E+02  0.15780473010E+03  0.12500013118E+03 0.  0.
          2    1    1    2  501    0 -0.67759760488E+02 -0.36877663264E+02 -0.68741469634E+03  0.69172994148E+03  0.00000000000E+00 0. -1.
          1    1    1    2  502    0  0.11005503475E+02  0.40185874756E+02  0.23522830658E+03  0.23888989483E+03  0.00000000000E+00 0. -1.
         22    1    3    3    0    0  0.42295842555E+02  0.56828445245E+02 -0.61607044233E+02  0.93882045065E+02  0.00000000000E+00 0. -1.
         22    1    3    3    0    0  0.14458414458E+02 -0.60136656737E+02 -0.16144547995E+02  0.63922685036E+02  0.00000000000E+00 0. -1.
</event>
<event>
 7    1  0.5889087E-006  0.1470216E+03  0.7818608E-02  0.1273122E+00
          2   -1    0    0  502    0  0.00000000000E+00  0.00000000000E+00  0.38510434011E+04  0.38510434011E+04  0.00000000000E+00 0. -1.
          1   -1    0    0  501    0 -0.00000000000E+00 -0.00000000000E+00 -0.10248253253E+04  0.10248253253E+04  0.00000000000E+00 0. -1.
         25    2    1    2    0    0 -0.34446511819E+02 -0.11809568133E+03  0.10934841835E+04  0.11074591512E+04  0.12499983954E+03 0.  0.
          2    1    1    2  501    0 -0.72826654046E+02  0.18057899517E+01 -0.10142552841E+04  0.10168681152E+04  0.00000000000E+00 0. -1.
          1    1    1    2  502    0  0.10727316587E+03  0.11628989138E+03  0.27469891764E+04  0.27515414600E+04  0.00000000000E+00 0. -1.
         22    1    3    3    0    0 -0.61482636248E+02 -0.10133198532E+03  0.10263302058E+04  0.10331514783E+04  0.00000000000E+00 0.  1.
         22    1    3    3    0    0  0.27036124428E+02 -0.16763696019E+02  0.67153977678E+02  0.74307672863E+02  0.00000000000E+00 0.  1.
</event>
<event>
 7    1  0.5889087E-006  0.8805451E+02  0.7818608E-02  0.1384644E+00
          2   -1    0    0  502    0  0.00000000000E+00  0.00000000000E+00  0.23980395152E+03  0.23980395152E+03  0.00000000000E+00 0. -1.
          1   -1    0    0  501    0 -0.00000000000E+00 -0.00000000000E+00 -0.64414415360E+03  0.64414415360E+03  0.00000000000E+00 0. -1.
         25    2    1    2    0    0 -0.61642386901E+02 -0.15942935126E+02 -0.41067389614E+03  0.43397200303E+03  0.12499875756E+03 0.  0.
          2    1    1    2  501    0 -0.24168799614E+02  0.38485776878E+02 -0.21068031983E+03  0.21552606121E+03  0.00000000000E+00 0. -1.
          1    1    1    2  502    0  0.85811186514E+02 -0.22542841753E+02  0.21701401389E+03  0.23445004089E+03  0.00000000000E+00 0. -1.
         22    1    3    3    0    0  0.78659566332E+01  0.28331134941E+02 -0.26480951494E+03  0.26643686998E+03  0.00000000000E+00 0.  1.
         22    1    3    3    0    0 -0.69508343534E+02 -0.44274070067E+02 -0.14586438120E+03  0.16753513304E+03  0.00000000000E+00 0.  1.
</event>
<event>
 7    1  0.5889087E-006  0.6312937E+02  0.7818608E-02  0.1402293E+00
          2   -1    0    0  502    0  0.00000000000E+00  0.00000000000E+00  0.16314344840E+03  0.16314344840E+03  0.00000000000E+00 0. -1.
          1   -1    0    0  501    0 -0.00000000000E+00 -0.00000000000E+00 -0.21671175196E+03  0.21671175196E+03  0.00000000000E+00 0. -1.
         25    2    1    2    0    0 -0.27894959332E+02  0.30390702254E+02 -0.68602021496E+02  0.14843628771E+03  0.12500148245E+03 0.  0.
          2    1    1    2  501    0  0.42913442033E+02  0.34476099478E+02 -0.90917463135E+02  0.10628334792E+03  0.00000000000E+00 0. -1.
          1    1    1    2  502    0 -0.15018482701E+02 -0.64866801733E+02  0.10595118107E+03  0.12513556473E+03  0.00000000000E+00 0. -1.
         22    1    3    3    0    0 -0.21279080206E+02  0.61294380430E+02  0.81874961353E+01  0.65397518452E+02  0.00000000000E+00 0.  1.
         22    1    3    3    0    0 -0.66158791263E+01 -0.30903678175E+02 -0.76789517632E+02  0.83038769256E+02  0.00000000000E+00 0.  1.
</event>
<event>
 7    1  0.5889087E-006  0.6462651E+02  0.7818608E-02  0.1413333E+00
          2   -1    0    0  502    0  0.00000000000E+00  0.00000000000E+00  0.71987195950E+03  0.71987195950E+03  0.00000000000E+00 0. -1.
          1   -1    0    0  501    0 -0.00000000000E+00 -0.00000000000E+00 -0.16899908786E+03  0.16899908786E+03  0.00000000000E+00 0. -1.
         25    2    1    2    0    0 -0.49974715808E+02 -0.98535654047E+02  0.21691323173E+03  0.27364724043E+03  0.12499885902E+03 0.  0.
          2    1    1    2  501    0  0.25437074389E+02  0.42253908312E+02 -0.13424114790E+03  0.14301441645E+03  0.00000000000E+00 0. -1.
          1    1    1    2  502    0  0.24537641419E+02  0.56281745735E+02  0.46820078782E+03  0.47220939049E+03  0.00000000000E+00 0. -1.
         22    1    3    3    0    0  0.27250211196E+02 -0.83639047297E+02  0.12140423467E+03  0.14992348862E+03  0.00000000000E+00 0.  1.
         22    1    3    3    0    0 -0.77224927004E+02 -0.14896606750E+02  0.95508997054E+02  0.12372375181E+03  0.00000000000E+00 0.  1.
</event>
<event>
 7    1  0.5889087E-006  0.7951608E+02  0.7818608E-02  0.1343705E+00
          2   -1    0    0  502    0  0.00000000000E+00  0.00000000000E+00  0.26668071928E+04  0.26668071928E+04  0.00000000000E+00 0. -1.
          1   -1    0    0  501    0 -0.00000000000E+00 -0.00000000000E+00 -0.91965566928E+02  0.91965566928E+02  0.00000000000E+00 0. -1.
         25    2    1    2    0    0  0.13751100069E+03  0.49054353354E+02  0.88138540800E+03  0.90209822088E+03  0.12500143113E+03 0.  0.
          2    1    1    2  501    0 -0.77270431714E+02 -0.11777100305E+02 -0.62013987744E+02  0.99775519967E+02  0.00000000000E+00 0. -1.
          1    1    1    2  502    0 -0.60240568977E+02 -0.37277253048E+02  0.17554702057E+04  0.17568990189E+04  0.00000000000E+00 0. -1.
         22    1    3    3    0    0 -0.14628440551E+01  0.52325591216E+02  0.28048912834E+03  0.28533183931E+03  0.00000000000E+00 0. -1.
         22    1    3    3    0    0  0.13897384475E+03 -0.32712378618E+01  0.60089627966E+03  0.61676638157E+03  0.00000000000E+00 0. -1.
</event>
<event>
 7    1  0.5889087E-006  0.1552052E+03  0.7818608E-02  0.1231666E+00
          2   -1    0    0  502    0  0.00000000000E+00  0.00000000000E+00  0.37519460728E+03  0.37519460728E+03  0.00000000000E+00 0. -1.
          1   -1    0    0  501    0 -0.00000000000E+00 -0.00000000000E+00 -0.73665318020E+03  0.73665318020E+03  0.00000000000E+00 0. -1.
         25    2    1    2    0    0  0.95701301197E+02 -0.22581591493E+03 -0.24583416233E+03  0.36906705367E+03  0.12499795299E+03 0.  0.
          2    1    1    2  501    0 -0.69142600247E+02  0.78025772093E+02 -0.40422573165E+03  0.41745318588E+03  0.00000000000E+00 0. -1.
          1    1    1    2  502    0 -0.26558700951E+02  0.14779014283E+03  0.28860132106E+03  0.32532754792E+03  0.00000000000E+00 0. -1.
         22    1    3    3    0    0 -0.20066432320E+02 -0.10499270998E+03 -0.11172754448E+03  0.15462591972E+03  0.00000000000E+00 0.  1.
         22    1    3    3    0    0  0.11576773352E+03 -0.12082320495E+03 -0.13410661785E+03  0.21444113395E+03  0.00000000000E+00 0.  1.
</event>
<event>
 7    1  0.5889087E-006  0.1278951E+03  0.7818608E-02  0.1331154E+00
          2   -1    0    0  502    0  0.00000000000E+00  0.00000000000E+00  0.28972292006E+03  0.28972292006E+03  0.00000000000E+00 0. -1.
          1   -1    0    0  501    0 -0.00000000000E+00 -0.00000000000E+00 -0.12265322482E+04  0.12265322482E+04  0.00000000000E+00 0. -1.
         25    2    1    2    0    0 -0.70118320590E+02  0.38585923102E+02 -0.59161507572E+03  0.60995015191E+03  0.12500135059E+03 0.  0.
          2    1    1    2  501    0 -0.41266399063E+02  0.26650714310E+02 -0.60986188088E+03  0.61183714338E+03  0.00000000000E+00 0. -1.
          1    1    1    2  502    0  0.11138471965E+03 -0.65236637412E+02  0.26466762849E+03  0.29446787296E+03  0.00000000000E+00 0. -1.
         22    1    3    3    0    0 -0.73011462179E+02 -0.10630430431E+02 -0.16815099228E+03  0.18362580392E+03  0.00000000000E+00 0.  1.
         22    1    3    3    0    0  0.28931415890E+01  0.49216353533E+02 -0.42346408345E+03  0.42632434799E+03  0.00000000000E+00 0.  1.
</event>
<event>
 7    1  0.5889087E-006  0.1559503E+03  0.7818608E-02  0.1301495E+00
          2   -1    0    0  502    0  0.00000000000E+00  0.00000000000E+00  0.15156137948E+04  0.15156137948E+04  0.00000000000E+00 0. -1.
          1   -1    0    0  501    0 -0.00000000000E+00 -0.00000000000E+00 -0.70788607615E+03  0.70788607615E+03  0.00000000000E+00 0. -1.
         25    2    1    2    0    0 -0.12359480351E+03 -0.14352762947E+02  0.24305899641E+03  0.30030729580E+03  0.12500047567E+03 0.  0.
          2    1    1    2  501    0 -0.37260254056E+02  0.37114320132E+02 -0.67292734477E+03  0.67497926681E+03  0.00000000000E+00 0. -1.
          1    1    1    2  502    0  0.16085505757E+03 -0.22761557185E+02  0.12375960670E+04  0.12482133083E+04  0.00000000000E+00 0. -1.
         22    1    3    3    0    0 -0.64835276488E+01 -0.22140789113E+02 -0.69700298199E+01  0.24100456199E+02  0.00000000000E+00 0.  1.
         22    1    3    3    0    0 -0.11711127587E+03  0.77880261660E+01  0.25002902623E+03  0.27620683960E+03  0.00000000000E+00 0.  1.
</event>
<event>
 7    1  0.5889087E-006  0.1086524E+03  0.7818608E-02  0.1309680E+00
          2   -1    0    0  502    0  0.00000000000E+00  0.00000000000E+00  0.86825128884E+03  0.86825128884E+03  0.00000000000E+00 0. -1.
          1   -1    0    0  501    0 -0.00000000000E+00 -0.00000000000E+00 -0.19664053181E+03  0.19664053181E+03  0.00000000000E+00 0. -1.
         25    2    1    2    0    0 -0.29109542834E+02  0.32164110180E+02  0.23319869166E+03  0.26812105617E+03  0.12500150201E+03 0.  0.
          2    1    1    2  501    0  0.72943689920E+02 -0.86798484307E+02 -0.15899036776E+03  0.19527594788E+03  0.00000000000E+00 0. -1.
          1    1    1    2  502    0 -0.43834147086E+02  0.54634374127E+02  0.59740243313E+03  0.60149481660E+03  0.00000000000E+00 0. -1.
         22    1    3    3    0    0 -0.12000760721E+01 -0.20606319200E+02 -0.60720496950E+01  0.21515816532E+02  0.00000000000E+00 0. -1.
         22    1    3    3    0    0 -0.27909466762E+02  0.52770429380E+02  0.23927074135E+03  0.24660523964E+03  0.00000000000E+00 0. -1.
</event>
<event>
 7    1  0.5889087E-006  0.4808885E+02  0.7818608E-02  0.1506164E+00
          2   -1    0    0  502    0  0.00000000000E+00  0.00000000000E+00  0.19959878904E+04  0.19959878904E+04  0.00000000000E+00 0. -1.
          1   -1    0    0  501    0 -0.00000000000E+00 -0.00000000000E+00 -0.85810212637E+02  0.85810212637E+02  0.00000000000E+00 0. -1.
         25    2    1    2    0    0 -0.58502314492E+02  0.33779372096E+02  0.39734050792E+02  0.14753709899E+03  0.12499933602E+03 0.  0.
          2    1    1    2  501    0  0.25055419427E+02 -0.38205502969E+02 -0.15325338658E+02  0.48190253213E+02  0.00000000000E+00 0. -1.
          1    1    1    2  502    0  0.33446895065E+02  0.44261308733E+01  0.18857689656E+04  0.18860707508E+04  0.00000000000E+00 0. -1.
         22    1    3    3    0    0  0.27384993808E+01  0.23398321752E+02  0.73258502067E+02  0.76953160850E+02  0.00000000000E+00 0.  1.
         22    1    3    3    0    0 -0.61240813873E+02  0.10381050344E+02 -0.33524451275E+02  0.70583938140E+02  0.00000000000E+00 0.  1.
</event>
<event>
 7    1  0.5889087E-006  0.1166233E+03  0.7818608E-02  0.1327853E+00
          2   -1    0    0  502    0  0.00000000000E+00  0.00000000000E+00  0.20580515884E+04  0.20580515884E+04  0.00000000000E+00 0. -1.
          1   -1    0    0  501    0 -0.00000000000E+00 -0.00000000000E+00 -0.29283743021E+03  0.29283743021E+03  0.00000000000E+00 0. -1.
         25    2    1    2    0    0 -0.91731854889E+02 -0.20632149478E+02 -0.18649838377E+03  0.24340721352E+03  0.12500002261E+03 0.  0.
          2    1    1    2  501    0 -0.21057757582E+02  0.51307400846E+02 -0.66100967417E+02  0.86285667578E+02  0.00000000000E+00 0. -1.
          1    1    1    2  502    0  0.11278961247E+03 -0.30675251368E+02  0.20178135093E+04  0.20211961375E+04  0.00000000000E+00 0. -1.
         22    1    3    3    0    0  0.16780880899E+02 -0.30340836834E+02 -0.10163090503E+02  0.36131049696E+02  0.00000000000E+00 0. -1.
         22    1    3    3    0    0 -0.10851273579E+03  0.97086873567E+01 -0.17633529326E+03  0.20727616382E+03  0.00000000000E+00 0. -1.
</event>
<event>
 7    1  0.5889087E-006  0.7638795E+02  0.7818608E-02  0.1363772E+00
          2   -1    0    0  502    0  0.00000000000E+00  0.00000000000E+00  0.19288743167E+04  0.19288743167E+04  0.00000000000E+00 0. -1.
          1   -1    0    0  501    0 -0.00000000000E+00 -0.00000000000E+00 -0.69718263398E+02  0.69718263398E+02  0.00000000000E+00 0. -1.
         25    2    1    2    0    0  0.10774423247E+03 -0.40311771930E+02  0.23844524060E+03  0.29276932767E+03  0.12499555142E+03 0.  0.
          2    1    1    2  501    0 -0.59550414290E+02 -0.17957769820E+02 -0.18482202419E+02  0.64887018310E+02  0.00000000000E+00 0. -1.
          1    1    1    2  502    0 -0.48193818179E+02  0.58269541749E+02  0.16391930151E+04  0.16409362341E+04  0.00000000000E+00 0. -1.
         22    1    3    3    0    0  0.93304495854E+02  0.28395528775E+02  0.11530731868E+03  0.15102255707E+03  0.00000000000E+00 0. -1.
         22    1    3    3    0    0  0.14439736614E+02 -0.68707300705E+02  0.12313792191E+03  0.14174677060E+03  0.00000000000E+00 0. -1.
</event>
<event>
 7    1  0.5889087E-006  0.2256842E+03  0.7818608E-02  0.1202515E+00
          2   -1    0    0  502    0  0.00000000000E+00  0.00000000000E+00  0.22900435869E+04  0.22900435869E+04  0.00000000000E+00 0. -1.
          1   -1    0    0  501    0 -0.00000000000E+00 -0.00000000000E+00 -0.25019922776E+04  0.25019922776E+04  0.00000000000E+00 0. -1.
         25    2    1    2    0    0  0.20296092946E+03  0.96838211949E+02 -0.22405337960E+03  0.34116643747E+03  0.12499537179E+03 0.  0.
          2    1    1    2  501    0  0.23148077112E+02 -0.94729139075E+02 -0.22125774436E+04  0.22147253526E+04  0.00000000000E+00 0. -1.
          1    1    1    2  502    0 -0.22610900657E+03 -0.21090728747E+01  0.22246821325E+04  0.22361440745E+04  0.00000000000E+00 0. -1.
         22    1    3    3    0    0  0.29207489711E+02 -0.17097430601E+02  0.22834413186E+01  0.33920697113E+02  0.00000000000E+00 0.  1.
         22    1    3    3    0    0  0.17375343974E+03  0.11393564255E+03 -0.22633682091E+03  0.30724574036E+03  0.00000000000E+00 0.  1.
</event>
<event>
 7    1  0.5889087E-006  0.8806248E+02  0.7818608E-02  0.1330558E+00
          2   -1    0    0  502    0  0.00000000000E+00  0.00000000000E+00  0.84715161492E+03  0.84715161492E+03  0.00000000000E+00 0. -1.
          1   -1    0    0  501    0 -0.00000000000E+00 -0.00000000000E+00 -0.80522594202E+03  0.80522594202E+03  0.00000000000E+00 0. -1.
         25    2    1    2    0    0 -0.36121095118E+02 -0.27545376778E+02  0.84506113212E+02  0.15756902515E+03  0.12499293269E+03 0.  0.
          2    1    1    2  501    0  0.86113729986E+02 -0.23877376254E+02 -0.76431400996E+03  0.76952037621E+03  0.00000000000E+00 0. -1.
          1    1    1    2  502    0 -0.49992634868E+02  0.51422753032E+02  0.72173356964E+03  0.72528815558E+03  0.00000000000E+00 0. -1.
         22    1    3    3    0    0 -0.38726671819E+02 -0.66693570347E+02  0.16212695625E+02  0.78807607090E+02  0.00000000000E+00 0. -1.
         22    1    3    3    0    0  0.26055767006E+01  0.39148193569E+02  0.68293417586E+02  0.78761418063E+02  0.00000000000E+00 0. -1.
</event>
<event>
 7    1  0.5889087E-006  0.2739686E+03  0.7818608E-02  0.1203770E+00
          2   -1    0    0  502    0  0.00000000000E+00  0.00000000000E+00  0.25790626859E+04  0.25790626859E+04  0.00000000000E+00 0. -1.
          1   -1    0    0  501    0 -0.00000000000E+00 -0.00000000000E+00 -0.13909318227E+04  0.13909318227E+04  0.00000000000E+00 0. -1.
         25    2    1    2    0    0 -0.91590855114E+02 -0.25205819751E+03  0.82986627600E+03  0.88103595658E+03  0.12499640426E+03 0.  0.
          2    1    1    2  501    0  0.15386961106E+02  0.27381035771E+03 -0.13506484498E+04  0.13782090210E+04  0.00000000000E+00 0. -1.
          1    1    1    2  502    0  0.76203894008E+02 -0.21752160200E+02  0.17089130370E+04  0.17107495311E+04  0.00000000000E+00 0. -1.
         22    1    3    3    0    0 -0.63361989967E+02 -0.43519695616E+02  0.32698394404E+03  0.33589761139E+03  0.00000000000E+00 0.  1.
         22    1    3    3    0    0 -0.28228865147E+02 -0.20853850189E+03  0.50288233196E+03  0.54513834519E+03  0.00000000000E+00 0.  1.
</event>
<event>
 7    1  0.5889087E-006  0.2068679E+03  0.7818608E-02  0.1234070E+00
          2   -1    0    0  502    0  0.00000000000E+00  0.00000000000E+00  0.32690570685E+03  0.32690570685E+03  0.00000000000E+00 0. -1.
          1   -1    0    0  501    0 -0.00000000000E+00 -0.00000000000E+00 -0.11500613165E+04  0.11500613165E+04  0.00000000000E+00 0. -1.
         25    2    1    2    0    0 -0.14792700092E+03  0.10813679215E+03 -0.64650375916E+03  0.68349622221E+03  0.12499604693E+03 0.  0.
          2    1    1    2  501    0  0.35302323565E+02  0.67652073747E+02 -0.44611526355E+03  0.45259461497E+03  0.00000000000E+00 0. -1.
          1    1    1    2  502    0  0.11262467735E+03 -0.17578886590E+03  0.26946341306E+03  0.34087618618E+03  0.00000000000E+00 0. -1.
         22    1    3    3    0    0 -0.62187867374E+02  0.97572735350E+02 -0.22255666645E+03  0.25083707723E+03  0.00000000000E+00 0. -1.
         22    1    3    3    0    0 -0.85739133544E+02  0.10564056805E+02 -0.42394709270E+03  0.43265914497E+03  0.00000000000E+00 0. -1.
</event>
<event>
 7    1  0.5889087E-006  0.1742952E+03  0.7818608E-02  0.1242122E+00
          2   -1    0    0  502    0  0.00000000000E+00  0.00000000000E+00  0.27299009231E+04  0.27299009231E+04  0.00000000000E+00 0. -1.
          1   -1    0    0  501    0 -0.00000000000E+00 -0.00000000000E+00 -0.67545288310E+02  0.67545288310E+02  0.00000000000E+00 0. -1.
         25    2    1    2    0    0 -0.36401217106E+02 -0.16405677380E+03  0.82339141040E+03  0.84961046632E+03  0.12499942449E+03 0.  0.
          2    1    1    2  501    0  0.82682210026E+02 -0.11194922910E+02 -0.15219501716E+02  0.84813367969E+02  0.00000000000E+00 0. -1.
          1    1    1    2  502    0 -0.46280992920E+02  0.17525169671E+03  0.18541837261E+04  0.18630223771E+04  0.00000000000E+00 0. -1.
         22    1    3    3    0    0 -0.29827606703E+02 -0.17566080308E+03  0.81406677864E+03  0.83333734103E+03  0.00000000000E+00 0.  1.
         22    1    3    3    0    0 -0.65736104029E+01  0.11604029286E+02  0.93246317631E+01  0.16273125296E+02  0.00000000000E+00 0.  1.
</event>
<event>
 7    1  0.5889087E-006  0.1643670E+03  0.7818608E-02  0.1210043E+00
          2   -1    0    0  502    0  0.00000000000E+00  0.00000000000E+00  0.13797045405E+04  0.13797045405E+04  0.00000000000E+00 0. -1.
          1   -1    0    0  501    0 -0.00000000000E+00 -0.00000000000E+00 -0.49067272761E+03  0.49067272761E+03  0.00000000000E+00 0. -1.
         25    2    1    2    0    0  0.94590491088E+01 -0.13247647315E+03  0.11791077923E+01  0.18238989330E+03  0.12500077334E+03 0.  0.
          2    1    1    2  501    0  0.11394324711E+03  0.13714528952E+03 -0.37704337809E+03  0.41707745439E+03  0.00000000000E+00 0. -1.
          1    1    1    2  502    0 -0.12340229621E+03 -0.46688163701E+01  0.12648960831E+04  0.12709099204E+04  0.00000000000E+00 0. -1.
         22    1    3    3    0    0 -0.15254719108E+02 -0.12778002761E+03 -0.39454302048E+02  0.13459971716E+03  0.00000000000E+00 0. -1.
         22    1    3    3    0    0  0.24713768217E+02 -0.46964455424E+01  0.40633409840E+02  0.47790176140E+02  0.00000000000E+00 0. -1.
</event>
<event>
 7    1  0.5889087E-006  0.1640897E+03  0.7818608E-02  0.1266389E+00
          2   -1    0    0  502    0  0.00000000000E+00  0.00000000000E+00  0.70160460224E+03  0.70160460224E+03  0.00000000000E+00 0. -1.
          1   -1    0    0  501    0 -0.00000000000E+00 -0.00000000000E+00 -0.29770547864E+03  0.29770547864E+03  0.00000000000E+00 0. -1.
         25    2    1    2    0    0  0.82472217462E+02  0.12554624384E+03  0.23095045866E+03  0.30253341895E+03  0.12499931692E+03 0.  0.
          2    1    1    2  501    0  0.63529747500E+02 -0.28583824812E+02 -0.23907863166E+03  0.24902139662E+03  0.00000000000E+00 0. -1.
          1    1    1    2  502    0 -0.14600196496E+03 -0.96962419032E+02  0.41202729660E+03  0.44775526532E+03  0.00000000000E+00 0. -1.
         22    1    3    3    0    0  0.48303926616E+02  0.13488121967E+03  0.12268424187E+03  0.18862034872E+03  0.00000000000E+00 0.  1.
         22    1    3    3    0    0  0.34168290847E+02 -0.93349758255E+01  0.10826621678E+03  0.11391307023E+03  0.00000000000E+00 0.  1.
</event>
<event>
 7    1  0.5889087E-006  0.1300214E+03  0.7818608E-02  0.1334386E+00
          2   -1    0    0  502    0  0.00000000000E+00  0.00000000000E+00  0.50471015588E+03  0.50471015588E+03  0.00000000000E+00 0. -1.
          1   -1    0    0  501    0 -0.00000000000E+00 -0.00000000000E+00 -0.41485112979E+03  0.41485112979E+03  0.00000000000E+00 0. -1.
         25    2    1    2    0    0  0.58309843428E+02  0.16494159467E+03 -0.24872299909E+03  0.32877762088E+03  0.12500330485E+03 0.  0.
          2    1    1    2  501    0 -0.91704501220E+01 -0.46068336625E+02 -0.11239799718E+03  0.12181830144E+03  0.00000000000E+00 0. -1.
          1    1    1    2  502    0 -0.49139393306E+02 -0.11887325804E+03  0.45098002236E+03  0.46896536335E+03  0.00000000000E+00 0. -1.
         22    1    3    3    0    0  0.23986148335E+02  0.12853357427E+03 -0.24609318066E+03  0.27867197310E+03  0.00000000000E+00 0. -1.
         22    1    3    3    0    0  0.34323695093E+02  0.36408020400E+02 -0.26298184325E+01  0.50105647778E+02  0.00000000000E+00 0. -1.
</event>
<event>
 7    1  0.5889087E-006  0.1029503E+03  0.7818608E-02  0.1323317E+00
          2   -1    0    0  502    0  0.00000000000E+00  0.00000000000E+00  0.21189677537E+04  0.21189677537E+04  0.00000000000E+00 0. -1.
          1   -1    0    0  501    0 -0.00000000000E+00 -0.00000000000E+00 -0.36590425828E+03  0.36590425828E+03  0.00000000000E+00 0. -1.
         25    2    1    2    0    0 -0.12252890874E+03 -0.40215130933E+02  0.91629337954E+03  0.93372845677E+03  0.12499873344E+03 0.  0.
          2    1    1    2  501    0  0.10062798610E+03 -0.21410562474E+02 -0.34885857109E+03  0.36371239516E+03  0.00000000000E+00 0. -1.
          1    1    1    2  502    0  0.21900922635E+02  0.61625693407E+02  0.11856286869E+04  0.11874311600E+04  0.00000000000E+00 0. -1.
         22    1    3    3    0    0 -0.14469033187E+02 -0.54304766297E+02  0.15911094198E+03  0.16874434041E+03  0.00000000000E+00 0. -1.
         22    1    3    3    0    0 -0.10805987555E+03  0.14089635363E+02  0.75718243756E+03  0.76498411636E+03  0.00000000000E+00 0. -1.
</event>
<event>
 7    1  0.5889087E-006  0.7058622E+02  0.7818608E-02  0.1466867E+00
          2   -1    0    0  502    0  0.00000000000E+00  0.00000000000E+00  0.34643096803E+04  0.34643096803E+04  0.00000000000E+00 0. -1.
          1   -1    0    0  501    0 -0.00000000000E+00 -0.00000000000E+00 -0.55677518390E+03  0.55677518390E+03  0.00000000000E+00 0. -1.
         25    2    1    2    0    0 -0.84611739580E+02 -0.48787957142E+02  0.72554783725E+03  0.74268724172E+03  0.12500105454E+03 0.  0.
          2    1    1    2  501    0  0.20758017252E+02  0.22024077580E+02 -0.54734842974E+03  0.54818451165E+03  0.00000000000E+00 0. -1.
          1    1    1    2  502    0  0.63853722328E+02  0.26763879562E+02  0.27293350889E+04  0.27302131109E+04  0.00000000000E+00 0. -1.
         22    1    3    3    0    0  0.13371922143E+02  0.11865894811E+02  0.16474567252E+02  0.24310884961E+02  0.00000000000E+00 0.  1.
         22    1    3    3    0    0 -0.97983661723E+02 -0.60653851953E+02  0.70907326999E+03  0.71837635675E+03  0.00000000000E+00 0.  1.
</event>
<event>
 7    1  0.5889087E-006  0.2091894E+03  0.7818608E-02  0.1232269E+00
          2   -1    0    0  502    0  0.00000000000E+00  0.00000000000E+00  0.43024766532E+03  0.43024766532E+03  0.00000000000E+00 0. -1.
          1   -1    0    0  501    0 -0.00000000000E+00 -0.00000000000E+00 -0.11447781668E+04  0.11447781668E+04  0.00000000000E+00 0. -1.
         25    2    1    2    0    0 -0.26373148608E+03 -0.99305083440E+02 -0.71058624413E+03  0.77457954293E+03  0.12499944653E+03 0.  0.
          2    1    1    2  501    0  0.75572123758E+02  0.14070125222E+02 -0.37120465615E+03  0.37908048098E+03  0.00000000000E+00 0. -1.
          1    1    1    2  502    0  0.18815936233E+03  0.85234958218E+02  0.36726039884E+03  0.42136580817E+03  0.00000000000E+00 0. -1.
         22    1    3    3    0    0 -0.67125887994E+02 -0.31373293844E+02 -0.35474514441E+03  0.36240072556E+03  0.00000000000E+00 0. -1.
         22    1    3    3    0    0 -0.19660559809E+03 -0.67931789596E+02 -0.35584109972E+03  0.41217881737E+03  0.00000000000E+00 0. -1.
</event>
<event>
 7    1  0.5889087E-006  0.1745843E+03  0.7818608E-02  0.1219821E+00
          2   -1    0    0  502    0  0.00000000000E+00  0.00000000000E+00  0.61852577296E+03  0.61852577296E+03  0.00000000000E+00 0. -1.
          1   -1    0    0  501    0 -0.00000000000E+00 -0.00000000000E+00 -0.58931461635E+03  0.58931461635E+03  0.00000000000E+00 0. -1.
         25    2    1    2    0    0  0.57344814653E+02  0.23700266886E+03 -0.17004462749E+03  0.32248876229E+03  0.12500053462E+03 0.  0.
          2    1    1    2  501    0  0.12835818699E+02 -0.15913291750E+03 -0.31893616878E+03  0.35666275868E+03  0.00000000000E+00 0. -1.
          1    1    1    2  502    0 -0.70180633352E+02 -0.77869751361E+02  0.51819195288E+03  0.52868886834E+03  0.00000000000E+00 0. -1.
         22    1    3    3    0    0  0.66924845274E+02  0.21381160853E+03 -0.18731359570E+03  0.29202863215E+03  0.00000000000E+00 0.  1.
         22    1    3    3    0    0 -0.95800306217E+01  0.23191060322E+02  0.17268968210E+02  0.30460130148E+02  0.00000000000E+00 0.  1.
</event>
<event>
 7    1  0.5889087E-006  0.5617186E+02  0.7818608E-02  0.1435257E+00
          2   -1    0    0  502    0  0.00000000000E+00  0.00000000000E+00  0.84039408571E+03  0.84039408571E+03  0.00000000000E+00 0. -1.
          1   -1    0    0  501    0 -0.00000000000E+00 -0.00000000000E+00 -0.44599000106E+03  0.44599000106E+03  0.00000000000E+00 0. -1.
         25    2    1    2    0    0  0.14104433524E+02  0.10010416349E+03  0.14062539404E+03  0.21358855043E+03  0.12499915534E+03 0.  0.
          2    1    1    2  501    0  0.38050733582E+01 -0.55583114782E+02 -0.40673898505E+03  0.41053692062E+03  0.00000000000E+00 0. -1.
          1    1    1    2  502    0 -0.17909506882E+02 -0.44521048703E+02  0.66051767566E+03  0.66225861571E+03  0.00000000000E+00 0. -1.
         22    1    3    3    0    0 -0.14616936130E+02  0.11704744473E+02 -0.20381848270E+02  0.27678070813E+02  0.00000000000E+00 0. -1.
         22    1    3    3    0    0  0.28721369654E+02  0.88399419013E+02  0.16100724231E+03  0.18591047962E+03  0.00000000000E+00 0. -1.
</event>
<event>
 7    1  0.5889087E-006  0.3259002E+03  0.7818608E-02  0.1145196E+00
          2   -1    0    0  502    0  0.00000000000E+00  0.00000000000E+00  0.68916490466E+03  0.68916490466E+03  0.00000000000E+00 0. -1.
          1   -1    0    0  501    0 -0.00000000000E+00 -0.00000000000E+00 -0.36710437833E+04  0.36710437833E+04  0.00000000000E+00 0. -1.
         25    2    1    2    0    0 -0.30284204116E+03 -0.28536750826E+03 -0.22540365333E+03  0.48946811473E+03  0.12499724692E+03 0.  0.
          2    1    1    2  501    0  0.12753692866E+03  0.22777405763E+02 -0.32674894304E+04  0.32700568276E+04  0.00000000000E+00 0. -1.
          1    1    1    2  502    0  0.17530511250E+03  0.26259010249E+03  0.51101420508E+03  0.60068374557E+03  0.00000000000E+00 0. -1.
         22    1    3    3    0    0 -0.16915910706E+03 -0.15619920908E+03 -0.19371297068E+03  0.30089485112E+03  0.00000000000E+00 0. -1.
         22    1    3    3    0    0 -0.13368293410E+03 -0.12916829918E+03 -0.31690682648E+02  0.18857326361E+03  0.00000000000E+00 0. -1.
</event>
<event>
 7    1  0.5889087E-006  0.3900118E+03  0.7818608E-02  0.1178548E+00
          2   -1    0    0  502    0  0.00000000000E+00  0.00000000000E+00  0.10676591087E+04  0.10676591087E+04  0.00000000000E+00 0. -1.
          1   -1    0    0  501    0 -0.00000000000E+00 -0.00000000000E+00 -0.98364813709E+03  0.98364813709E+03  0.00000000000E+00 0. -1.
         25    2    1    2    0    0  0.37901845849E+03 -0.13403262069E+03  0.60059029342E+03  0.73345250338E+03  0.12499655544E+03 0.  0.
          2    1    1    2  501    0 -0.51125579977E+02 -0.52830013509E+02 -0.82634365760E+03  0.82960754318E+03  0.00000000000E+00 0. -1.
          1    1    1    2  502    0 -0.32789287852E+03  0.18686263419E+03  0.30976433582E+03  0.48824719926E+03  0.00000000000E+00 0. -1.
         22    1    3    3    0    0  0.10798984733E+03  0.12318684771E+02  0.20559070498E+03  0.23255342417E+03  0.00000000000E+00 0. -1.
         22    1    3    3    0    0  0.27102861117E+03 -0.14635130546E+03  0.39499958845E+03  0.50089907921E+03  0.00000000000E+00 0. -1.
</event>
<event>
 7    1  0.5889087E-006  0.8889830E+02  0.7818608E-02  0.1337960E+00
          2   -1    0    0  502    0  0.00000000000E+00  0.00000000000E+00  0.22305455977E+04  0.22305455977E+04  0.00000000000E+00 0. -1.
          1   -1    0    0  501    0 -0.00000000000E+00 -0.00000000000E+00 -0.72618086807E+03  0.72618086807E+03  0.00000000000E+00 0. -1.
         25    2    1    2    0    0 -0.39988651856E+02 -0.92592439603E+02  0.36152781371E+03  0.39559964278E+03  0.12499706051E+03 0.  0.
          2    1    1    2  501    0 -0.40350867934E+02  0.52977186601E+02 -0.70649508225E+03  0.70962671601E+03  0.00000000000E+00 0. -1.
          1    1    1    2  502    0  0.80339519790E+02  0.39615253002E+02  0.18493319981E+04  0.18515001069E+04  0.00000000000E+00 0. -1.
         22    1    3    3    0    0 -0.61288873774E+02 -0.11083343771E+03  0.32964971826E+03  0.35314205883E+03  0.00000000000E+00 0. -1.
         22    1    3    3    0    0  0.21300221918E+02  0.18240998110E+02  0.31878095443E+02  0.42457583950E+02  0.00000000000E+00 0. -1.
</event>
<event>
 7    1  0.5889087E-006  0.4216585E+02  0.7818608E-02  0.1566769E+00
          2   -1    0    0  502    0  0.00000000000E+00  0.00000000000E+00  0.11682082791E+04  0.11682082791E+04  0.00000000000E+00 0. -1.
          1   -1    0    0  501    0 -0.00000000000E+00 -0.00000000000E+00 -0.53840813082E+03  0.53840813082E+03  0.00000000000E+00 0. -1.
         25    2    1    2    0    0  0.58405524825E+01  0.15400229669E+02 -0.22804685223E+02  0.12812694418E+03  0.12500072412E+03 0.  0.
          2    1    1    2  501    0  0.11551359233E+02  0.23161828543E+02 -0.46217906891E+03  0.46290322524E+03  0.00000000000E+00 0. -1.
          1    1    1    2  502    0 -0.17391911716E+02 -0.38562058212E+02  0.11147839024E+04  0.11155862405E+04  0.00000000000E+00 0. -1.
         22    1    3    3    0    0 -0.17154199690E+02  0.22772722956E+02  0.46606420276E+02  0.54635353836E+02  0.00000000000E+00 0. -1.
         22    1    3    3    0    0  0.22994752173E+02 -0.73724932874E+01 -0.69411105498E+02  0.73491590344E+02  0.00000000000E+00 0. -1.
</event>
<event>
 7    1  0.5889087E-006  0.9003921E+02  0.7818608E-02  0.1329746E+00
          2   -1    0    0  502    0  0.00000000000E+00  0.00000000000E+00  0.32553526294E+04  0.32553526294E+04  0.00000000000E+00 0. -1.
          1   -1    0    0  501    0 -0.00000000000E+00 -0.00000000000E+00 -0.37005178285E+03  0.37005178285E+03  0.00000000000E+00 0. -1.
         25    2    1    2    0    0  0.44738639148E+02  0.11718665124E+03  0.64091176333E+03  0.66492627326E+03  0.12499921370E+03 0.  0.
          2    1    1    2  501    0  0.19492988261E+02 -0.87771807562E+02 -0.35191199421E+03  0.36321607682E+03  0.00000000000E+00 0. -1.
          1    1    1    2  502    0 -0.64231627409E+02 -0.29414843677E+02  0.25963010774E+04  0.25972620622E+04  0.00000000000E+00 0. -1.
         22    1    3    3    0    0  0.30179421349E+02  0.81157486490E-03  0.34507677595E+03  0.34639396469E+03  0.00000000000E+00 0.  1.
         22    1    3    3    0    0  0.14559217799E+02  0.11718583966E+03  0.29583498739E+03  0.31853230857E+03  0.00000000000E+00 0.  1.
</event>
<event>
 7    1  0.5889087E-006  0.8570243E+02  0.7818608E-02  0.1320826E+00
          2   -1    0    0  502    0  0.00000000000E+00  0.00000000000E+00  0.21070947072E+04  0.21070947072E+04  0.00000000000E+00 0. -1.
          1   -1    0    0  501    0 -0.00000000000E+00 -0.00000000000E+00 -0.27781046265E+03  0.27781046265E+03  0.00000000000E+00 0. -1.
         25    2    1    2    0    0  0.15043406471E+02  0.31478844417E+02  0.81002088237E+03  0.82035149929E+03  0.12500212317E+03 0.  0.
          2    1    1    2  501    0 -0.15073956225E+02  0.78899035992E+02 -0.26430837883E+03  0.27624482105E+03  0.00000000000E+00 0. -1.
          1    1    1    2  502    0  0.30549754184E-01 -0.11037788041E+03  0.12835717410E+04  0.12883088495E+04  0.00000000000E+00 0. -1.
         22    1    3    3    0    0 -0.30704259168E+02 -0.36336699613E+02  0.32971380041E+03  0.33312804963E+03  0.00000000000E+00 0.  1.
         22    1    3    3    0    0  0.45747665639E+02  0.67815544029E+02  0.48030708195E+03  0.48722344966E+03  0.00000000000E+00 0.  1.
</event>
<event>
 7    1  0.5889087E-006  0.6290075E+02  0.7818608E-02  0.1460008E+00
          2   -1    0    0  502    0  0.00000000000E+00  0.00000000000E+00  0.69841275943E+03  0.69841275943E+03  0.00000000000E+00 0. -1.
          1   -1    0    0  501    0 -0.00000000000E+00 -0.00000000000E+00 -0.17960315072E+03  0.17960315072E+03  0.00000000000E+00 0. -1.
         25    2    1    2    0    0  0.24607793627E+02  0.15824035052E+02  0.13026782280E+03  0.18289192499E+03  0.12499522781E+03 0.  0.
          2    1    1    2  501    0 -0.58659027151E+02 -0.26511487531E+02 -0.14591166368E+03  0.15948026222E+03  0.00000000000E+00 0. -1.
          1    1    1    2  502    0  0.34051233524E+02  0.10687452479E+02  0.53445344959E+03  0.53564372294E+03  0.00000000000E+00 0. -1.
         22    1    3    3    0    0  0.81507946682E+01 -0.55026790925E+02  0.57543839030E+02  0.80035470783E+02  0.00000000000E+00 0.  1.
         22    1    3    3    0    0  0.16456998959E+02  0.70850825977E+02  0.72723983773E+02  0.10285645421E+03  0.00000000000E+00 0.  1.
</event>
<event>
 7    1  0.5889087E-006  0.9316313E+02  0.7818608E-02  0.1386193E+00
          2   -1    0    0  502    0  0.00000000000E+00  0.00000000000E+00  0.61786983849E+03  0.61786983849E+03  0.00000000000E+00 0. -1.
          1   -1    0    0  501    0 -0.00000000000E+00 -0.00000000000E+00 -0.55663333060E+03  0.55663333060E+03  0.00000000000E+00 0. -1.
         25    2    1    2    0    0 -0.10463929645E+03  0.92235932092E+01 -0.34551382744E+03  0.38214881760E+03  0.12499382709E+03 0.  0.
          2    1    1    2  501    0  0.16431334369E+02 -0.39106694036E+02 -0.18679298384E+03  0.19154879556E+03  0.00000000000E+00 0. -1.
          1    1    1    2  502    0  0.88207962086E+02  0.29883100827E+02  0.59354331918E+03  0.60080555593E+03  0.00000000000E+00 0. -1.
         22    1    3    3    0    0 -0.12725552562E+03  0.47385007312E+01 -0.21718581610E+03  0.25176596454E+03  0.00000000000E+00 0.  1.
         22    1    3    3    0    0  0.22616229166E+02  0.44850924781E+01 -0.12832801134E+03  0.13038285306E+03  0.00000000000E+00 0.  1.
</event>
<event>
 7    1  0.5889087E-006  0.1307103E+03  0.7818608E-02  0.1342705E+00
          2   -1    0    0  502    0  0.00000000000E+00  0.00000000000E+00  0.40965668109E+03  0.40965668109E+03  0.00000000000E+00 0. -1.
          1   -1    0    0  501    0 -0.00000000000E+00 -0.00000000000E+00 -0.14107273127E+04  0.14107273127E+04  0.00000000000E+00 0. -1.
         25    2    1    2    0    0  0.15163073780E+03 -0.18932070002E+02  0.24033724190E+03  0.31102640552E+03  0.12500052467E+03 0.  0.
          2    1    1    2  501    0 -0.40837037379E+02 -0.14895660513E+02 -0.13499261364E+04  0.13506258246E+04  0.00000000000E+00 0. -1.
          1    1    1    2  502    0 -0.11079370042E+03  0.33827730515E+02  0.10851826293E+03  0.15873176365E+03  0.00000000000E+00 0. -1.
         22    1    3    3    0    0  0.30327791870E+02 -0.58261717065E+02  0.11370602306E+03  0.13131360293E+03  0.00000000000E+00 0. -1.
         22    1    3    3    0    0  0.12130294593E+03  0.39329647063E+02  0.12663121884E+03  0.17971280259E+03  0.00000000000E+00 0. -1.
</event>
<event>
 7    1  0.5889087E-006  0.4949244E+02  0.7818608E-02  0.1536656E+00
          2   -1    0    0  502    0  0.00000000000E+00  0.00000000000E+00  0.76797101157E+02  0.76797101157E+02  0.00000000000E+00 0. -1.
          1   -1    0    0  501    0 -0.00000000000E+00 -0.00000000000E+00 -0.99103330331E+03  0.99103330331E+03  0.00000000000E+00 0. -1.
         25    2    1    2    0    0  0.43262638720E+01 -0.26705372770E+02 -0.11356682161E+03  0.17103942663E+03  0.12500067599E+03 0.  0.
          2    1    1    2  501    0 -0.25352205622E+02  0.43234529570E+02 -0.84420768437E+03  0.84569413693E+03  0.00000000000E+00 0. -1.
          1    1    1    2  502    0  0.21025941750E+02 -0.16529156801E+02  0.43538303826E+02  0.51096840910E+02  0.00000000000E+00 0. -1.
         22    1    3    3    0    0 -0.55767064490E+01 -0.70018574753E+02 -0.10414912847E+03  0.12562142105E+03  0.00000000000E+00 0.  1.
         22    1    3    3    0    0  0.99029703210E+01  0.43313201983E+02 -0.94176931376E+01  0.45418005584E+02  0.00000000000E+00 0.  1.
</event>
<event>
 7    1  0.5889087E-006  0.1047577E+03  0.7818608E-02  0.1347757E+00
          2   -1    0    0  502    0  0.00000000000E+00  0.00000000000E+00  0.24947150075E+04  0.24947150075E+04  0.00000000000E+00 0. -1.
          1   -1    0    0  501    0 -0.00000000000E+00 -0.00000000000E+00 -0.84856003242E+03  0.84856003242E+03  0.00000000000E+00 0. -1.
         25    2    1    2    0    0 -0.45745145308E+02  0.45799087835E+02  0.11514897301E+03  0.18186504605E+03  0.12500173688E+03 0.  0.
          2    1    1    2  501    0 -0.51819602238E+02 -0.34358659409E+01 -0.81316771427E+03  0.81482440309E+03  0.00000000000E+00 0. -1.
          1    1    1    2  502    0  0.97564747545E+02 -0.42363221894E+02  0.23441737164E+04  0.23465855908E+04  0.00000000000E+00 0. -1.
         22    1    3    3    0    0 -0.45861060603E+02  0.11494626234E+02  0.13443789375E+03  0.14250933509E+03  0.00000000000E+00 0. -1.
         22    1    3    3    0    0  0.11591529527E+00  0.34304461601E+02 -0.19288920735E+02  0.39355710960E+02  0.00000000000E+00 0. -1.
</event>
<event>
 7    1  0.5889087E-006  0.1398975E+03  0.7818608E-02  0.1245625E+00
          2   -1    0    0  502    0  0.00000000000E+00  0.00000000000E+00  0.24309036841E+04  0.24309036841E+04  0.00000000000E+00 0. -1.
          1   -1    0    0  501    0 -0.00000000000E+00 -0.00000000000E+00 -0.37671530230E+03  0.37671530230E+03  0.00000000000E+00 0. -1.
         25    2    1    2    0    0  0.82339842026E+02 -0.62934910266E+02  0.88033447492E+03  0.89518385428E+03  0.12499877087E+03 0.  0.
          2    1    1    2  501    0 -0.13955792023E+03 -0.19495086191E+02 -0.35414255431E+03  0.38114750459E+03  0.00000000000E+00 0. -1.
          1    1    1    2  502    0  0.57218078203E+02  0.82429996457E+02  0.15279964612E+04  0.15312876275E+04  0.00000000000E+00 0. -1.
         22    1    3    3    0    0  0.74637192840E+02 -0.38285642563E+02  0.85466541545E+03  0.85877207299E+03  0.00000000000E+00 0.  1.
         22    1    3    3    0    0  0.77026491857E+01 -0.24649267703E+02  0.25669059472E+02  0.36411781293E+02  0.00000000000E+00 0.  1.
</event>
<event>
 7    1  0.5889087E-006  0.7660189E+02  0.7818608E-02  0.1367275E+00
          2   -1    0    0  502    0  0.00000000000E+00  0.00000000000E+00  0.17788938711E+04  0.17788938711E+04  0.00000000000E+00 0. -1.
          1   -1    0    0  501    0 -0.00000000000E+00 -0.00000000000E+00 -0.15176792929E+03  0.15176792929E+03  0.00000000000E+00 0. -1.
         25    2    1    2    0    0 -0.11229957187E+03 -0.50338365416E+02  0.17883860874E+03  0.25050645251E+03  0.12500035959E+03 0.  0.
          2    1    1    2  501    0  0.52124185224E+02  0.53142996764E+02 -0.10334014044E+03  0.12735891574E+03  0.00000000000E+00 0. -1.
          1    1    1    2  502    0  0.60175386648E+02 -0.28046313481E+01  0.15516274735E+04  0.15527964321E+04  0.00000000000E+00 0. -1.
         22    1    3    3    0    0 -0.93268231540E+02 -0.85055846559E+02  0.16669387098E+03  0.20909401395E+03  0.00000000000E+00 0.  1.
         22    1    3    3    0    0 -0.19031340332E+02  0.34717481143E+02  0.12144737759E+02  0.41412438554E+02  0.00000000000E+00 0.  1.
</event>
<event>
 7    1  0.5889087E-006  0.7621335E+02  0.7818608E-02  0.1426378E+00
          2   -1    0    0  502    0  0.00000000000E+00  0.00000000000E+00  0.52519773304E+03  0.52519773304E+03  0.00000000000E+00 0. -1.
          1   -1    0    0  501    0 -0.00000000000E+00 -0.00000000000E+00 -0.39107099046E+03  0.39107099046E+03  0.00000000000E+00 0. -1.
         25    2    1    2    0    0  0.38474175617E+02 -0.68119930223E+02  0.90381596830E+02  0.17298588546E+03  0.12503877975E+03 0.  0.
          2    1    1    2  501    0 -0.15676955545E+01  0.76421146765E+02 -0.34466287449E+03  0.35303703261E+03  0.00000000000E+00 0. -1.
          1    1    1    2  502    0 -0.36906480063E+02 -0.83012165416E+01  0.38840802024E+03  0.39024580543E+03  0.00000000000E+00 0. -1.
         22    1    3    3    0    0  0.39356284646E+02 -0.18807770677E+02  0.11120221804E+03  0.11945117277E+03  0.00000000000E+00 0. -1.
         22    1    3    3    0    0 -0.88210902854E+00 -0.49312159547E+02 -0.20820621210E+02  0.53534712692E+02  0.00000000000E+00 0. -1.
</event>
<event>
 7    1  0.5889087E-006  0.5066526E+02  0.7818608E-02  0.1512702E+00
          2   -1    0    0  502    0  0.00000000000E+00  0.00000000000E+00  0.39012602797E+03  0.39012602797E+03  0.00000000000E+00 0. -1.
          1   -1    0    0  501    0 -0.00000000000E+00 -0.00000000000E+00 -0.31301043172E+03  0.31301043172E+03  0.00000000000E+00 0. -1.
         25    2    1    2    0    0 -0.51577429012E+02 -0.32009630583E+02  0.37175783539E+02  0.14384517293E+03  0.12499818902E+03 0.  0.
          2    1    1    2  501    0  0.27886823045E+02 -0.12678907431E+02 -0.25662359167E+03  0.25844554048E+03  0.00000000000E+00 0. -1.
          1    1    1    2  502    0  0.23690605967E+02  0.44688538014E+02  0.29656340438E+03  0.30084574629E+03  0.00000000000E+00 0. -1.
         22    1    3    3    0    0 -0.30104414312E+02  0.20383572910E+02 -0.36104529156E+02  0.51237709075E+02  0.00000000000E+00 0. -1.
         22    1    3    3    0    0 -0.21473014700E+02 -0.52393203494E+02  0.73280312695E+02  0.92607463854E+02  0.00000000000E+00 0. -1.
</event>
<event>
 7    1  0.5889087E-006  0.1618912E+03  0.7818608E-02  0.1245576E+00
          2   -1    0    0  502    0  0.00000000000E+00  0.00000000000E+00  0.26335081236E+04  0.26335081236E+04  0.00000000000E+00 0. -1.
          1   -1    0    0  501    0 -0.00000000000E+00 -0.00000000000E+00 -0.66100351561E+03  0.66100351561E+03  0.00000000000E+00 0. -1.
         25    2    1    2    0    0 -0.15108194997E+03  0.15729295438E+03  0.97889842396E+03  0.10106600303E+04  0.12499897340E+03 0.  0.
          2    1    1    2  501    0  0.83973891374E+02 -0.21783686189E+02 -0.63869560562E+03  0.64456048595E+03  0.00000000000E+00 0. -1.
          1    1    1    2  502    0  0.67108058592E+02 -0.13550926819E+03  0.16323017896E+04  0.16392911229E+04  0.00000000000E+00 0. -1.
         22    1    3    3    0    0 -0.70393795604E+02  0.96567397251E+02  0.76311499902E+03  0.77241507650E+03  0.00000000000E+00 0.  1.
         22    1    3    3    0    0 -0.80688154361E+02  0.60725557127E+02  0.21578342495E+03  0.23824495383E+03  0.00000000000E+00 0.  1.
</event>
<event>
 7    1  0.5889087E-006  0.1233787E+03  0.7818608E-02  0.1411825E+00
          2   -1    0    0  502    0  0.00000000000E+00  0.00000000000E+00  0.30203877898E+04  0.30203877898E+04  0.00000000000E+00 0. -1.
          1   -1    0    0  501    0 -0.00000000000E+00 -0.00000000000E+00 -0.67419319927E+02  0.67419319927E+02  0.00000000000E+00 0. -1.
         25    2    1    2    0    0 -0.57639231756E+02  0.80102659971E+02  0.12731522013E+04  0.12830742040E+04  0.12499667283E+03 0.  0.
          2    1    1    2  501    0  0.75952622817E+02 -0.98753202612E+02 -0.12994579007E+00  0.12458335693E+03  0.00000000000E+00 0. -1.
          1    1    1    2  502    0 -0.18313391061E+02  0.18650542642E+02  0.16799462144E+04  0.16801495488E+04  0.00000000000E+00 0. -1.
         22    1    3    3    0    0 -0.82776080421E+02  0.20985736389E+02  0.49834788077E+03  0.50561140305E+03  0.00000000000E+00 0. -1.
         22    1    3    3    0    0  0.25136848665E+02  0.59116923582E+02  0.77480432049E+03  0.77746280095E+03  0.00000000000E+00 0. -1.
</event>
<event>
 7    1  0.5889087E-006  0.2028300E+03  0.7818608E-02  0.1246052E+00
          2   -1    0    0  502    0  0.00000000000E+00  0.00000000000E+00  0.10646930525E+03  0.10646930525E+03  0.00000000000E+00 0. -1.
          1   -1    0    0  501    0 -0.00000000000E+00 -0.00000000000E+00 -0.12798873262E+04  0.12798873262E+04  0.00000000000E+00 0. -1.
         25    2    1    2    0    0 -0.25531651010E+03  0.83995043677E+01 -0.44710725458E+03  0.52989369195E+03  0.12500142267E+03 0.  0.
          2    1    1    2  501    0  0.67497533359E+02 -0.13890129260E+02 -0.65002623524E+03  0.65366884521E+03  0.00000000000E+00 0. -1.
          1    1    1    2  502    0  0.18781897674E+03  0.54906248920E+01 -0.76284531110E+02  0.20279409427E+03  0.00000000000E+00 0. -1.
         22    1    3    3    0    0 -0.95375087655E+02  0.33012804752E+02 -0.80292282785E+02  0.12896938899E+03  0.00000000000E+00 0. -1.
         22    1    3    3    0    0 -0.15994142245E+03 -0.24613300384E+02 -0.36681497179E+03  0.40092430296E+03  0.00000000000E+00 0. -1.
</event>
<event>
 7    1  0.5889087E-006  0.1378950E+03  0.7818608E-02  0.1414760E+00
          2   -1    0    0  502    0  0.00000000000E+00  0.00000000000E+00  0.11050408213E+04  0.11050408213E+04  0.00000000000E+00 0. -1.
          1   -1    0    0  501    0 -0.00000000000E+00 -0.00000000000E+00 -0.16995307371E+03  0.16995307371E+03  0.00000000000E+00 0. -1.
         25    2    1    2    0    0  0.66697326006E+02  0.13396868852E+03  0.25459247749E+02  0.19664089111E+03  0.12499329567E+03 0.  0.
          2    1    1    2  501    0 -0.71610845823E+02 -0.11164304950E+03 -0.32004501712E+02  0.13644255887E+03  0.00000000000E+00 0. -1.
          1    1    1    2  502    0  0.49135198169E+01 -0.22325639022E+02  0.94163300156E+03  0.94191044504E+03  0.00000000000E+00 0. -1.
         22    1    3    3    0    0  0.16850777185E+02  0.57040728208E+02 -0.50163637298E+02  0.77807351023E+02  0.00000000000E+00 0.  1.
         22    1    3    3    0    0  0.49846548821E+02  0.76927960311E+02  0.75622885047E+02  0.11883354009E+03  0.00000000000E+00 0.  1.
</event>
<event>
 7    1  0.5889087E-006  0.1153637E+03  0.7818608E-02  0.1296505E+00
          2   -1    0    0  502    0  0.00000000000E+00  0.00000000000E+00  0.10107904554E+04  0.10107904554E+04  0.00000000000E+00 0. -1.
          1   -1    0    0  501    0 -0.00000000000E+00 -0.00000000000E+00 -0.23366930546E+03  0.23366930546E+03  0.00000000000E+00 0. -1.
         25    2    1    2    0    0 -0.57244620012E+02 -0.11383218443E+01  0.19096145044E+03  0.23530756523E+03  0.12500052962E+03 0.  0.
          2    1    1    2  501    0  0.10829226209E+03 -0.53048938355E+02 -0.19238640655E+03  0.22705491255E+03  0.00000000000E+00 0. -1.
          1    1    1    2  502    0 -0.51047642079E+02  0.54187260200E+02  0.77854610606E+03  0.78209728308E+03  0.00000000000E+00 0. -1.
         22    1    3    3    0    0 -0.88162440631E+02  0.31778314430E+01  0.76835126369E+02  0.11698867977E+03  0.00000000000E+00 0.  1.
         22    1    3    3    0    0  0.30917820619E+02 -0.43161532873E+01  0.11412632407E+03  0.11831888546E+03  0.00000000000E+00 0.  1.
</event>
<event>
 7    1  0.5889087E-006  0.5392051E+02  0.7818608E-02  0.1427175E+00
          2   -1    0    0  502    0  0.00000000000E+00  0.00000000000E+00  0.18092105228E+04  0.18092105228E+04  0.00000000000E+00 0. -1.
          1   -1    0    0  501    0 -0.00000000000E+00 -0.00000000000E+00 -0.15462392808E+03  0.15462392808E+03  0.00000000000E+00 0. -1.
         25    2    1    2    0    0  0.48208286093E+02  0.43482005284E+02  0.77507910097E+03  0.78777390416E+03  0.12500155074E+03 0.  0.
          2    1    1    2  501    0  0.52695271644E+01 -0.53662399815E+02 -0.14262611491E+03  0.15247829263E+03  0.00000000000E+00 0. -1.
          1    1    1    2  502    0 -0.53477813257E+02  0.10180394531E+02  0.10221336086E+04  0.10235822541E+04  0.00000000000E+00 0. -1.
         22    1    3    3    0    0  0.53809629378E+02  0.39886667757E+02  0.17088580992E+03  0.18354395253E+03  0.00000000000E+00 0. -1.
         22    1    3    3    0    0 -0.56013432853E+01  0.35953375270E+01  0.60419329105E+03  0.60422995163E+03  0.00000000000E+00 0. -1.
</event>
<event>
 7    1  0.5889087E-006  0.1852997E+03  0.7818608E-02  0.1385922E+00
          2   -1    0    0  502    0  0.00000000000E+00  0.00000000000E+00  0.46025649993E+03  0.46025649993E+03  0.00000000000E+00 0. -1.
          1   -1    0    0  501    0 -0.00000000000E+00 -0.00000000000E+00 -0.23112081033E+03  0.23112081033E+03  0.00000000000E+00 0. -1.
         25    2    1    2    0    0 -0.10478363155E+03  0.13750960774E+03  0.11471670479E+03  0.24222360293E+03  0.12499539910E+03 0.  0.
          2    1    1    2  501    0  0.12583223798E+03 -0.14122138507E+03 -0.11326540528E+03  0.22046832822E+03  0.00000000000E+00 0. -1.
          1    1    1    2  502    0 -0.21048606430E+02  0.37117773291E+01  0.22768439009E+03  0.22868537910E+03  0.00000000000E+00 0. -1.
         22    1    3    3    0    0 -0.63033001050E+02  0.10267209292E+02  0.82778683386E+02  0.10455087389E+03  0.00000000000E+00 0. -1.
         22    1    3    3    0    0 -0.41750630498E+02  0.12724239845E+03  0.31938021403E+02  0.13767272904E+03  0.00000000000E+00 0. -1.
</event>
<event>
 7    1  0.5889087E-006  0.5413402E+02  0.7818608E-02  0.1511296E+00
          2   -1    0    0  502    0  0.00000000000E+00  0.00000000000E+00  0.14027351497E+04  0.14027351497E+04  0.00000000000E+00 0. -1.
          1   -1    0    0  501    0 -0.00000000000E+00 -0.00000000000E+00 -0.33772843230E+03  0.33772843230E+03  0.00000000000E+00 0. -1.
         25    2    1    2    0    0 -0.13476801993E+02  0.38006602453E+02  0.14240144426E+03  0.19372444212E+03  0.12499944850E+03 0.  0.
          2    1    1    2  501    0  0.42190544931E+02 -0.34358871481E+02 -0.30952393102E+03  0.31427000813E+03  0.00000000000E+00 0. -1.
          1    1    1    2  502    0 -0.28713742938E+02 -0.36477309724E+01  0.12321292042E+04  0.12324691318E+04  0.00000000000E+00 0. -1.
         22    1    3    3    0    0  0.86674253094E+01 -0.29321429728E+02 -0.42252023073E+01  0.30866208665E+02  0.00000000000E+00 0. -1.
         22    1    3    3    0    0 -0.22144227303E+02  0.67328032181E+02  0.14662664657E+03  0.16285823345E+03  0.00000000000E+00 0. -1.
</event>
<event>
 7    1  0.5889087E-006  0.1041689E+03  0.7818608E-02  0.1321535E+00
          2   -1    0    0  502    0  0.00000000000E+00  0.00000000000E+00  0.12131762172E+04  0.12131762172E+04  0.00000000000E+00 0. -1.
          1   -1    0    0  501    0 -0.00000000000E+00 -0.00000000000E+00 -0.59026744019E+02  0.59026744019E+02  0.00000000000E+00 0. -1.
         25    2    1    2    0    0 -0.67250280651E+02 -0.63097679249E+02  0.27002626975E+03  0.31151969953E+03  0.12500567774E+03 0.  0.
          2    1    1    2  501    0  0.48720385355E+02 -0.44032301302E+02 -0.41315743602E+01  0.65799615605E+02  0.00000000000E+00 0. -1.
          1    1    1    2  502    0  0.18529895297E+02  0.10712998055E+03  0.88825477783E+03  0.89488364612E+03  0.00000000000E+00 0. -1.
         22    1    3    3    0    0 -0.92909192271E+02 -0.65544331011E+02  0.26015847519E+03  0.28392007599E+03  0.00000000000E+00 0.  1.
         22    1    3    3    0    0  0.25658911620E+02  0.24466517622E+01  0.98677945594E+01  0.27599623545E+02  0.00000000000E+00 0.  1.
</event>
<event>
 7    1  0.5889087E-006  0.5188979E+02  0.7818608E-02  0.1446827E+00
          2   -1    0    0  502    0  0.00000000000E+00  0.00000000000E+00  0.19915442572E+04  0.19915442572E+04  0.00000000000E+00 0. -1.
          1   -1    0    0  501    0 -0.00000000000E+00 -0.00000000000E+00 -0.26661429447E+03  0.26661429447E+03  0.00000000000E+00 0. -1.
         25    2    1    2    0    0 -0.70533694231E+01 -0.31815366303E+01  0.32582371401E+03  0.34906387871E+03  0.12499850643E+03 0.  0.
          2    1    1    2  501    0 -0.45223611035E+02  0.15017008184E+02 -0.25232939255E+03  0.25678942321E+03  0.00000000000E+00 0. -1.
          1    1    1    2  502    0  0.52276980458E+02 -0.11835471554E+02  0.16514356413E+04  0.16523052498E+04  0.00000000000E+00 0. -1.
         22    1    3    3    0    0  0.11131780935E+02  0.34922918178E+02  0.22916771579E+02  0.43228522765E+02  0.00000000000E+00 0. -1.
         22    1    3    3    0    0 -0.18185150358E+02 -0.38104454808E+02  0.30290694243E+03  0.30583535594E+03  0.00000000000E+00 0. -1.
</event>
<event>
 7    1  0.5889087E-006  0.1142834E+03  0.7818608E-02  0.1369011E+00
          2   -1    0    0  502    0  0.00000000000E+00  0.00000000000E+00  0.49462123687E+03  0.49462123687E+03  0.00000000000E+00 0. -1.
          1   -1    0    0  501    0 -0.00000000000E+00 -0.00000000000E+00 -0.14656551735E+03  0.14656551735E+03  0.00000000000E+00 0. -1.
         25    2    1    2    0    0  0.35156838761E+02  0.77548367933E+02  0.13649422462E+03  0.20372831203E+03  0.12499919635E+03 0.  0.
          2    1    1    2  501    0  0.12961449103E+02  0.37631039094E+02 -0.96868453624E+02  0.10472626974E+03  0.00000000000E+00 0. -1.
          1    1    1    2  502    0 -0.48118287863E+02 -0.11517940703E+03  0.30842994853E+03  0.33273217244E+03  0.00000000000E+00 0. -1.
         22    1    3    3    0    0 -0.33616808879E+02 -0.29489350556E+01  0.37816714873E+01  0.33957136163E+02  0.00000000000E+00 0.  1.
         22    1    3    3    0    0  0.68773647639E+02  0.80497302988E+02  0.13271255313E+03  0.16977117587E+03  0.00000000000E+00 0.  1.
</event>
<event>
 7    1  0.5889087E-006  0.1293343E+03  0.7818608E-02  0.1236913E+00
          2   -1    0    0  502    0  0.00000000000E+00  0.00000000000E+00  0.41561623274E+03  0.41561623274E+03  0.00000000000E+00 0. -1.
          1   -1    0    0  501    0 -0.00000000000E+00 -0.00000000000E+00 -0.34030605358E+04  0.34030605358E+04  0.00000000000E+00 0. -1.
         25    2    1    2    0    0 -0.16515923922E+03  0.18220479700E+03 -0.88097465243E+03  0.92315583436E+03  0.12499677568E+03 0.  0.
          2    1    1    2  501    0  0.72875575242E+02 -0.93512682342E+02 -0.24891659906E+04  0.24919877207E+04  0.00000000000E+00 0. -1.
          1    1    1    2  502    0  0.92283663976E+02 -0.88692114663E+02  0.38269633993E+03  0.40353321355E+03  0.00000000000E+00 0. -1.
         22    1    3    3    0    0 -0.24501926816E+02  0.58640391383E+02 -0.43288429246E+03  0.43752468568E+03  0.00000000000E+00 0.  1.
         22    1    3    3    0    0 -0.14065731240E+03  0.12356440562E+03 -0.44809035998E+03  0.48563114868E+03  0.00000000000E+00 0.  1.
</event>
<event>
 7    1  0.5889087E-006  0.1215451E+03  0.7818608E-02  0.1295721E+00
          2   -1    0    0  502    0  0.00000000000E+00  0.00000000000E+00  0.31871539704E+04  0.31871539704E+04  0.00000000000E+00 0. -1.
          1   -1    0    0  501    0 -0.00000000000E+00 -0.00000000000E+00 -0.17482319611E+04  0.17482319611E+04  0.00000000000E+00 0. -1.
         25    2    1    2    0    0  0.95608555706E+02 -0.72855602279E+02  0.87291905617E+02  0.19414960585E+03  0.12500103183E+03 0.  0.
          2    1    1    2  501    0 -0.38685420878E+02  0.11558283880E+03 -0.16921951547E+04  0.16965790273E+04  0.00000000000E+00 0. -1.
          1    1    1    2  502    0 -0.56923134828E+02 -0.42727236518E+02  0.30438252584E+04  0.30446572983E+04  0.00000000000E+00 0. -1.
         22    1    3    3    0    0  0.66214422956E+02 -0.10058647926E+03  0.30112938216E+02  0.12413210167E+03  0.00000000000E+00 0.  1.
         22    1    3    3    0    0  0.29394132750E+02  0.27730876981E+02  0.57178967401E+02  0.70017504178E+02  0.00000000000E+00 0.  1.
</event>
<event>
 7    1  0.5889087E-006  0.4477556E+02  0.7818608E-02  0.1558715E+00
          2   -1    0    0  502    0  0.00000000000E+00  0.00000000000E+00  0.80632130642E+03  0.80632130642E+03  0.00000000000E+00 0. -1.
          1   -1    0    0  501    0 -0.00000000000E+00 -0.00000000000E+00 -0.50317868688E+03  0.50317868688E+03  0.00000000000E+00 0. -1.
         25    2    1    2    0    0  0.10807908686E+02  0.49207389755E+02 -0.26255382740E+03  0.29512057129E+03  0.12499384474E+03 0.  0.
          2    1    1    2  501    0  0.19695696766E+02 -0.16425366916E+02 -0.22297137375E+03  0.22444141030E+03  0.00000000000E+00 0. -1.
          1    1    1    2  502    0 -0.30503605452E+02 -0.32782022839E+02  0.78866782068E+03  0.78993801171E+03  0.00000000000E+00 0. -1.
         22    1    3    3    0    0 -0.15336105212E+02 -0.46779799896E+01  0.80688562399E+01  0.17949542080E+02  0.00000000000E+00 0.  1.
         22    1    3    3    0    0  0.26144013899E+02  0.53885369745E+02 -0.27062268364E+03  0.27717102921E+03  0.00000000000E+00 0.  1.
</event>
<event>
 7    1  0.5889087E-006  0.1311899E+03  0.7818608E-02  0.1304856E+00
          2   -1    0    0  502    0  0.00000000000E+00  0.00000000000E+00  0.77818190726E+03  0.77818190726E+03  0.00000000000E+00 0. -1.
          1   -1    0    0  501    0 -0.00000000000E+00 -0.00000000000E+00 -0.17949870138E+04  0.17949870138E+04  0.00000000000E+00 0. -1.
         25    2    1    2    0    0 -0.28125934304E+02 -0.66203500416E+02  0.12503430438E+03  0.19087494776E+03  0.12500278702E+03 0.  0.
          2    1    1    2  501    0  0.42572418006E+02  0.12507618614E+03 -0.17581007652E+04  0.17630583551E+04  0.00000000000E+00 0. -1.
          1    1    1    2  502    0 -0.14446483702E+02 -0.58872685728E+02  0.61626135427E+03  0.61923561815E+03  0.00000000000E+00 0. -1.
         22    1    3    3    0    0 -0.46646981067E+02 -0.86256789664E+02  0.13029650704E+03  0.16307468949E+03  0.00000000000E+00 0.  1.
         22    1    3    3    0    0  0.18521046763E+02  0.20053289248E+02 -0.52622026638E+01  0.27800258267E+02  0.00000000000E+00 0.  1.
</event>
<event>
 7    1  0.5889087E-006  0.6695870E+02  0.7818608E-02  0.1447116E+00
          2   -1    0    0  502    0  0.00000000000E+00  0.00000000000E+00  0.21861198339E+04  0.21861198339E+04  0.00000000000E+00 0. -1.
          1   -1    0    0  501    0 -0.00000000000E+00 -0.00000000000E+00 -0.22291480402E+03  0.22291480402E+03  0.00000000000E+00 0. -1.
         25    2    1    2    0    0  0.32048375716E+02  0.36706788204E+02  0.19296842690E+03  0.23502289137E+03  0.12499783598E+03 0.  0.
          2    1    1    2  501    0 -0.10746725689E+02 -0.66774947989E+02 -0.19604557559E+03  0.20738431354E+03  0.00000000000E+00 0. -1.
          1    1    1    2  502    0 -0.21301650027E+02  0.30068159785E+02  0.19662821786E+04  0.19666274330E+04  0.00000000000E+00 0. -1.
         22    1    3    3    0    0  0.77006554268E+01 -0.35054429553E+02  0.10422587836E+02  0.37373031219E+02  0.00000000000E+00 0.  1.
         22    1    3    3    0    0  0.24347720289E+02  0.71761217757E+02  0.18254583907E+03  0.19764986015E+03  0.00000000000E+00 0.  1.
</event>
<event>
 7    1  0.5889087E-006  0.7350751E+02  0.7818608E-02  0.1349652E+00
          2   -1    0    0  502    0  0.00000000000E+00  0.00000000000E+00  0.32559082773E+02  0.32559082773E+02  0.00000000000E+00 0. -1.
          1   -1    0    0  501    0 -0.00000000000E+00 -0.00000000000E+00 -0.12837658273E+04  0.12837658273E+04  0.00000000000E+00 0. -1.
         25    2    1    2    0    0 -0.51013069648E+02  0.55094293867E+02 -0.43951553736E+03  0.46305908204E+03  0.12494835491E+03 0.  0.
          2    1    1    2  501    0  0.77289360981E+02  0.12822567103E+02 -0.75984288663E+03  0.76387124302E+03  0.00000000000E+00 0. -1.
          1    1    1    2  502    0 -0.26276291333E+02 -0.67916860969E+02 -0.51848320592E+02  0.89394585062E+02  0.00000000000E+00 0. -1.
         22    1    3    3    0    0  0.12900366781E+02  0.42515067124E+02 -0.45128361160E+02  0.63328661573E+02  0.00000000000E+00 0. -1.
         22    1    3    3    0    0 -0.63913436429E+02  0.12579226743E+02 -0.39438717620E+03  0.39973042047E+03  0.00000000000E+00 0. -1.
</event>
<event>
 7    1  0.5889087E-006  0.6919924E+02  0.7818608E-02  0.1441572E+00
          2   -1    0    0  502    0  0.00000000000E+00  0.00000000000E+00  0.10775555983E+04  0.10775555983E+04  0.00000000000E+00 0. -1.
          1   -1    0    0  501    0 -0.00000000000E+00 -0.00000000000E+00 -0.91150075066E+03  0.91150075066E+03  0.00000000000E+00 0. -1.
         25    2    1    2    0    0  0.58391252465E+02 -0.16748032411E+02 -0.10995642336E+03  0.17721475465E+03  0.12499847708E+03 0.  0.
          2    1    1    2  501    0 -0.46831600479E+02  0.52058473678E+02 -0.76598707782E+03  0.76918104947E+03  0.00000000000E+00 0. -1.
          1    1    1    2  502    0 -0.11559651987E+02 -0.35310441266E+02  0.10419983488E+04  0.10426605448E+04  0.00000000000E+00 0. -1.
         22    1    3    3    0    0 -0.54982896058E+01  0.45212282802E+02 -0.59421785775E+02  0.74868754026E+02  0.00000000000E+00 0.  1.
         22    1    3    3    0    0  0.63889542071E+02 -0.61960315213E+02 -0.50534637582E+02  0.10234600062E+03  0.00000000000E+00 0.  1.
</event>
<event>
 7    1  0.5889087E-006  0.2285451E+03  0.7818608E-02  0.1304471E+00
          2   -1    0    0  502    0  0.00000000000E+00  0.00000000000E+00  0.13993523067E+03  0.13993523067E+03  0.00000000000E+00 0. -1.
          1   -1    0    0  501    0 -0.00000000000E+00 -0.00000000000E+00 -0.10713647256E+04  0.10713647256E+04  0.00000000000E+00 0. -1.
         25    2    1    2    0    0 -0.14431501856E+03  0.14396568105E+03 -0.95016738291E+02  0.25730476762E+03  0.12499848391E+03 0.  0.
          2    1    1    2  501    0  0.17870444799E+03 -0.15002737186E+03 -0.87286646211E+03  0.90351499861E+03  0.00000000000E+00 0. -1.
          1    1    1    2  502    0 -0.34389429422E+02  0.60616908082E+01  0.36453705427E+02  0.50480190082E+02  0.00000000000E+00 0. -1.
         22    1    3    3    0    0 -0.12186663972E+03  0.36674509938E+02 -0.33468266475E+02  0.13159263815E+03  0.00000000000E+00 0.  1.
         22    1    3    3    0    0 -0.22448378846E+02  0.10729117111E+03 -0.61548471816E+02  0.12571212946E+03  0.00000000000E+00 0.  1.
</event>
<event>
 7    1  0.5889087E-006  0.1203569E+03  0.7818608E-02  0.1422296E+00
          2   -1    0    0  502    0  0.00000000000E+00  0.00000000000E+00  0.64261256290E+03  0.64261256290E+03  0.00000000000E+00 0. -1.
          1   -1    0    0  501    0 -0.00000000000E+00 -0.00000000000E+00 -0.28525129723E+03  0.28525129723E+03  0.00000000000E+00 0. -1.
         25    2    1    2    0    0 -0.10307250108E+03  0.14833730303E+02  0.18668787166E+03  0.24762750894E+03  0.12499216667E+03 0.  0.
          2    1    1    2  501    0  0.11612172361E+03 -0.35820918682E+02 -0.23989851283E+03  0.26892134420E+03  0.00000000000E+00 0. -1.
          1    1    1    2  502    0 -0.13049222531E+02  0.20987188378E+02  0.41057190684E+03  0.41131500699E+03  0.00000000000E+00 0. -1.
         22    1    3    3    0    0 -0.86925957231E+02 -0.34407131621E+02  0.60875124447E+02  0.11156053748E+03  0.00000000000E+00 0.  1.
         22    1    3    3    0    0 -0.16146543845E+02  0.49240861924E+02  0.12581274722E+03  0.13606697146E+03  0.00000000000E+00 0.  1.
</event>
<event>
 7    1  0.5889087E-006  0.8544422E+02  0.7818608E-02  0.1493603E+00
          2   -1    0    0  502    0  0.00000000000E+00  0.00000000000E+00  0.18931194192E+04  0.18931194192E+04  0.00000000000E+00 0. -1.
          1   -1    0    0  501    0 -0.00000000000E+00 -0.00000000000E+00 -0.43490917692E+03  0.43490917692E+03  0.00000000000E+00 0. -1.
         25    2    1    2    0    0 -0.76161183301E+02  0.57363420386E+01 -0.95199451744E+02  0.17470182716E+03  0.12499744533E+03 0.  0.
          2    1    1    2  501    0 -0.83375353077E+01 -0.18947027421E+02 -0.29861337443E+03  0.29933000473E+03  0.00000000000E+00 0. -1.
          1    1    1    2  502    0  0.84498718609E+02  0.13210685382E+02  0.18520230685E+04  0.18539967643E+04  0.00000000000E+00 0. -1.
         22    1    3    3    0    0 -0.10952206330E+03 -0.63849421821E+01 -0.81446144969E+02  0.13663573605E+03  0.00000000000E+00 0.  1.
         22    1    3    3    0    0  0.33360879996E+02  0.12121284221E+02 -0.13753306775E+02  0.38066091111E+02  0.00000000000E+00 0.  1.
</event>
<event>
 7    1  0.5889087E-006  0.1765791E+03  0.7818608E-02  0.1236100E+00
          2   -1    0    0  502    0  0.00000000000E+00  0.00000000000E+00  0.43386923596E+02  0.43386923596E+02  0.00000000000E+00 0. -1.
          1   -1    0    0  501    0 -0.00000000000E+00 -0.00000000000E+00 -0.17222825243E+04  0.17222825243E+04  0.00000000000E+00 0. -1.
         25    2    1    2    0    0  0.32917254591E+02 -0.14106894716E+03 -0.53219191292E+03  0.56554131580E+03  0.12499901679E+03 0.  0.
          2    1    1    2  501    0  0.35349580140E+02  0.19589815049E+03 -0.10539143176E+04  0.10725488647E+04  0.00000000000E+00 0. -1.
          1    1    1    2  502    0 -0.68266834732E+02 -0.54829203332E+02 -0.92789370108E+02  0.12757926739E+03  0.00000000000E+00 0. -1.
         22    1    3    3    0    0  0.63940848544E+02 -0.61872370456E+02 -0.38853501762E+03  0.39859262695E+03  0.00000000000E+00 0.  1.
         22    1    3    3    0    0 -0.31023593953E+02 -0.79196576701E+02 -0.14365689530E+03  0.16694868885E+03  0.00000000000E+00 0.  1.
</event>
<event>
 7    1  0.5889087E-006  0.8155115E+02  0.7818608E-02  0.1443783E+00
          2   -1    0    0  502    0  0.00000000000E+00  0.00000000000E+00  0.62655595862E+03  0.62655595862E+03  0.00000000000E+00 0. -1.
          1   -1    0    0  501    0 -0.00000000000E+00 -0.00000000000E+00 -0.15548325509E+03  0.15548325509E+03  0.00000000000E+00 0. -1.
         25    2    1    2    0    0 -0.23097122998E+02  0.10521541526E+03  0.96210427628E+01  0.16528987704E+03  0.12499767313E+03 0.  0.
          2    1    1    2  501    0  0.18684256868E+02 -0.24752018347E+02 -0.71397075335E+02  0.77841545677E+02  0.00000000000E+00 0. -1.
          1    1    1    2  502    0  0.44128661294E+01 -0.80463396912E+02  0.53284873610E+03  0.53890779099E+03  0.00000000000E+00 0. -1.
         22    1    3    3    0    0 -0.73641129004E+02  0.45120038580E+02  0.81899231395E+01  0.86751994810E+02  0.00000000000E+00 0. -1.
         22    1    3    3    0    0  0.50544006006E+02  0.60095376678E+02  0.14311196233E+01  0.78537882227E+02  0.00000000000E+00 0. -1.
</event>
<event>
 7    1  0.5889087E-006  0.8536260E+02  0.7818608E-02  0.1348947E+00
          2   -1    0    0  502    0  0.00000000000E+00  0.00000000000E+00  0.20418837195E+04  0.20418837195E+04  0.00000000000E+00 0. -1.
          1   -1    0    0  501    0 -0.00000000000E+00 -0.00000000000E+00 -0.36595501372E+02  0.36595501372E+02  0.00000000000E+00 0. -1.
         25    2    1    2    0    0  0.57724002600E+02 -0.27423600933E+02  0.16991141420E+03  0.22040610523E+03  0.12499939274E+03 0.  0.
          2    1    1    2  501    0 -0.11223552290E+03  0.59180801360E+02  0.36649752481E+03  0.38783967763E+03  0.00000000000E+00 0. -1.
          1    1    1    2  502    0  0.54511520300E+02 -0.31757200427E+02  0.14688792791E+04  0.14702334380E+04  0.00000000000E+00 0. -1.
         22    1    3    3    0    0  0.74468500524E+02  0.10309363964E+02  0.42253001036E+02  0.86238950899E+02  0.00000000000E+00 0. -1.
         22    1    3    3    0    0 -0.16744497924E+02 -0.37732964898E+02  0.12765841317E+03  0.13416715434E+03  0.00000000000E+00 0. -1.
</event>
<event>
 7    1  0.5889087E-006  0.7479822E+02  0.7818608E-02  0.1366760E+00
          2   -1    0    0  502    0  0.00000000000E+00  0.00000000000E+00  0.28732720551E+04  0.28732720551E+04  0.00000000000E+00 0. -1.
          1   -1    0    0  501    0 -0.00000000000E+00 -0.00000000000E+00 -0.37755611762E+03  0.37755611762E+03  0.00000000000E+00 0. -1.
         25    2    1    2    0    0  0.30809749368E+02  0.50961980332E+01  0.98984967596E+01  0.12922057929E+03  0.12499906393E+03 0.  0.
          2    1    1    2  501    0 -0.61665557859E+02  0.48632236715E+02 -0.31269649753E+03  0.32240787062E+03  0.00000000000E+00 0. -1.
          1    1    1    2  502    0  0.30855808491E+02 -0.53728434748E+02  0.27985139382E+04  0.27991997228E+04  0.00000000000E+00 0. -1.
         22    1    3    3    0    0  0.71393306756E+00  0.62416918756E+02  0.15255371170E+02  0.64258134092E+02  0.00000000000E+00 0. -1.
         22    1    3    3    0    0  0.30095816300E+02 -0.57320720723E+02 -0.53568744104E+01  0.64962445200E+02  0.00000000000E+00 0. -1.
</event>
<event>
 7    1  0.5889087E-006  0.1100460E+03  0.7818608E-02  0.1290122E+00
          2   -1    0    0  502    0  0.00000000000E+00  0.00000000000E+00  0.24737556683E+04  0.24737556683E+04  0.00000000000E+00 0. -1.
          1   -1    0    0  501    0 -0.00000000000E+00 -0.00000000000E+00 -0.20165342690E+03  0.20165342690E+03  0.00000000000E+00 0. -1.
         25    2    1    2    0    0  0.12607921585E+03 -0.13557868925E+03  0.62455500781E+03  0.66330353236E+03  0.12500027445E+03 0.  0.
          2    1    1    2  501    0 -0.65646830885E+02  0.50500047529E+02 -0.17129734871E+03  0.19026965832E+03  0.00000000000E+00 0. -1.
          1    1    1    2  502    0 -0.60432384963E+02  0.85078641718E+02  0.18188445823E+04  0.18218359045E+04  0.00000000000E+00 0. -1.
         22    1    3    3    0    0  0.42764207027E-01 -0.41584276308E+02  0.39012199358E+02  0.57019343767E+02  0.00000000000E+00 0. -1.
         22    1    3    3    0    0  0.12603645164E+03 -0.93994412939E+02  0.58554280845E+03  0.60628418859E+03  0.00000000000E+00 0. -1.
</event>
<event>
 7    1  0.5889087E-006  0.8383037E+02  0.7818608E-02  0.1431725E+00
          2   -1    0    0  502    0  0.00000000000E+00  0.00000000000E+00  0.74672320424E+03  0.74672320424E+03  0.00000000000E+00 0. -1.
          1   -1    0    0  501    0 -0.00000000000E+00 -0.00000000000E+00 -0.17095405869E+03  0.17095405869E+03  0.00000000000E+00 0. -1.
         25    2    1    2    0    0 -0.84028667744E+02  0.14088073138E+02  0.21103277654E+03  0.25965167019E+03  0.12499946501E+03 0.  0.
          2    1    1    2  501    0  0.12382846185E+02  0.30614028837E+02 -0.14124060579E+03  0.14504986165E+03  0.00000000000E+00 0. -1.
          1    1    1    2  502    0  0.71645821559E+02 -0.44702101975E+02  0.50597697480E+03  0.51297573109E+03  0.00000000000E+00 0. -1.
         22    1    3    3    0    0 -0.67075534336E+02  0.29296736218E+02  0.22244459533E+03  0.23417733462E+03  0.00000000000E+00 0.  1.
         22    1    3    3    0    0 -0.16953133408E+02 -0.15208663080E+02 -0.11411818784E+02  0.25474335575E+02  0.00000000000E+00 0.  1.
</event>
<event>
 7    1  0.5889087E-006  0.6725918E+02  0.7818608E-02  0.1396838E+00
          2   -1    0    0  502    0  0.00000000000E+00  0.00000000000E+00  0.43819000283E+03  0.43819000283E+03  0.00000000000E+00 0. -1.
          1   -1    0    0  501    0 -0.00000000000E+00 -0.00000000000E+00 -0.11613841469E+04  0.11613841469E+04  0.00000000000E+00 0. -1.
         25    2    1    2    0    0  0.12957481500E+02 -0.87661582586E+01 -0.71209567750E+02  0.14470143386E+03  0.12499184199E+03 0.  0.
          2    1    1    2  501    0 -0.44631798960E+02  0.52437516111E+02 -0.10504838102E+04  0.10527382990E+04  0.00000000000E+00 0. -1.
          1    1    1    2  502    0  0.31674317459E+02 -0.43671357853E+02  0.39849923387E+03  0.40213441693E+03  0.00000000000E+00 0. -1.
         22    1    3    3    0    0  0.68882579003E+02 -0.87346299265E+01 -0.46462557861E+02  0.83545632639E+02  0.00000000000E+00 0.  1.
         22    1    3    3    0    0 -0.55925097503E+02 -0.31528332088E-01 -0.24747009889E+02  0.61155801223E+02  0.00000000000E+00 0.  1.
</event>
<event>
 7    1  0.5889087E-006  0.4213481E+02  0.7818608E-02  0.1576813E+00
          2   -1    0    0  502    0  0.00000000000E+00  0.00000000000E+00  0.11946566637E+04  0.11946566637E+04  0.00000000000E+00 0. -1.
          1   -1    0    0  501    0 -0.00000000000E+00 -0.00000000000E+00 -0.13725667470E+03  0.13725667470E+03  0.00000000000E+00 0. -1.
         25    2    1    2    0    0 -0.47555926396E+02  0.31479392994E+02  0.71485881600E+03  0.72794631650E+03  0.12502077660E+03 0.  0.
          2    1    1    2  501    0  0.41324943040E+02 -0.79630894847E+01 -0.12700233651E+03  0.13379370385E+03  0.00000000000E+00 0. -1.
          1    1    1    2  502    0  0.62309833556E+01 -0.23516303509E+02  0.46954350951E+03  0.47017331805E+03  0.00000000000E+00 0. -1.
         22    1    3    3    0    0 -0.84901190084E+02  0.34715809380E+02  0.37626317761E+03  0.38728203976E+03  0.00000000000E+00 0. -1.
         22    1    3    3    0    0  0.37345263688E+02 -0.32364163861E+01  0.33859563839E+03  0.34066427674E+03  0.00000000000E+00 0. -1.
</event>
<event>
 7    1  0.5889087E-006  0.5779595E+02  0.7818608E-02  0.1507955E+00
          2   -1    0    0  502    0  0.00000000000E+00  0.00000000000E+00  0.64733809489E+03  0.64733809489E+03  0.00000000000E+00 0. -1.
          1   -1    0    0  501    0 -0.00000000000E+00 -0.00000000000E+00 -0.75417769926E+03  0.75417769926E+03  0.00000000000E+00 0. -1.
         25    2    1    2    0    0 -0.13311530065E+01 -0.33798633522E+02 -0.63557890760E+02  0.14424936488E+03  0.12499661673E+03 0.  0.
          2    1    1    2  501    0  0.16422720028E+02 -0.22346076344E+02 -0.64858498892E+03  0.64917758796E+03  0.00000000000E+00 0. -1.
          1    1    1    2  502    0 -0.15091567022E+02  0.56144709866E+02  0.60530327530E+03  0.60808884131E+03  0.00000000000E+00 0. -1.
         22    1    3    3    0    0 -0.34362359410E+01 -0.11065898762E+02  0.38222352993E+02  0.39940081387E+02  0.00000000000E+00 0. -1.
         22    1    3    3    0    0  0.21050829345E+01 -0.22732734760E+02 -0.10178024375E+03  0.10430928349E+03  0.00000000000E+00 0. -1.
</event>
<event>
 7    1  0.5889087E-006  0.8887545E+02  0.7818608E-02  0.1429531E+00
          2   -1    0    0  502    0  0.00000000000E+00  0.00000000000E+00  0.26522586573E+04  0.26522586573E+04  0.00000000000E+00 0. -1.
          1   -1    0    0  501    0 -0.00000000000E+00 -0.00000000000E+00 -0.24012002504E+03  0.24012002504E+03  0.00000000000E+00 0. -1.
         25    2    1    2    0    0  0.20122387754E+02 -0.11100482057E+03  0.82480734441E+03  0.84181895681E+03  0.12500007991E+03 0.  0.
          2    1    1    2  501    0 -0.33251200079E+02  0.82183543672E+02 -0.22298694265E+03  0.23996448435E+03  0.00000000000E+00 0. -1.
          1    1    1    2  502    0  0.13128812325E+02  0.28821276895E+02  0.18103182305E+04  0.18105952411E+04  0.00000000000E+00 0. -1.
         22    1    3    3    0    0 -0.15283906787E+02  0.37725502373E+01  0.11023420152E+02  0.19218369697E+02  0.00000000000E+00 0. -1.
         22    1    3    3    0    0  0.35406294541E+02 -0.11477737080E+03  0.81378392425E+03  0.82260058711E+03  0.00000000000E+00 0. -1.
</event>
<event>
 7    1  0.5889087E-006  0.6791212E+02  0.7818608E-02  0.1447422E+00
          2   -1    0    0  502    0  0.00000000000E+00  0.00000000000E+00  0.47607022447E+03  0.47607022447E+03  0.00000000000E+00 0. -1.
          1   -1    0    0  501    0 -0.00000000000E+00 -0.00000000000E+00 -0.20271074865E+03  0.20271074865E+03  0.00000000000E+00 0. -1.
         25    2    1    2    0    0 -0.31649223517E+02  0.57911525127E+02  0.24274043289E+03  0.28090066390E+03  0.12500738827E+03 0.  0.
          2    1    1    2  501    0  0.33925661489E+02  0.12769816179E+02 -0.17589614828E+03  0.17959252126E+03  0.00000000000E+00 0. -1.
          1    1    1    2  502    0 -0.22764379715E+01 -0.70681341305E+02  0.20651519120E+03  0.21828778796E+03  0.00000000000E+00 0. -1.
         22    1    3    3    0    0  0.46558727341E+02  0.34985522094E+02  0.80705735978E+02  0.99524457635E+02  0.00000000000E+00 0.  1.
         22    1    3    3    0    0 -0.78207950858E+02  0.22926003032E+02  0.16203469692E+03  0.18137620626E+03  0.00000000000E+00 0.  1.
</event>
<event>
 7    1  0.5889087E-006  0.6069591E+02  0.7818608E-02  0.1436168E+00
          2   -1    0    0  502    0  0.00000000000E+00  0.00000000000E+00  0.82627475266E+03  0.82627475266E+03  0.00000000000E+00 0. -1.
          1   -1    0    0  501    0 -0.00000000000E+00 -0.00000000000E+00 -0.69878495240E+03  0.69878495240E+03  0.00000000000E+00 0. -1.
         25    2    1    2    0    0  0.64640253904E+02 -0.42360769965E+02  0.21037696514E+02  0.14846018089E+03  0.12500017352E+03 0.  0.
          2    1    1    2  501    0 -0.22762242337E+02  0.56208933159E+02 -0.63296730997E+03  0.63586569284E+03  0.00000000000E+00 0. -1.
          1    1    1    2  502    0 -0.41878011566E+02 -0.13848163194E+02  0.73941941372E+03  0.74073383132E+03  0.00000000000E+00 0. -1.
         22    1    3    3    0    0 -0.23842008411E+02  0.25786937136E+02  0.21022044297E+01  0.35182762191E+02  0.00000000000E+00 0. -1.
         22    1    3    3    0    0  0.88482262315E+02 -0.68147707101E+02  0.18935492085E+02  0.11327741870E+03  0.00000000000E+00 0. -1.
</event>
<event>
 7    1  0.5889087E-006  0.1193010E+03  0.7818608E-02  0.1396956E+00
          2   -1    0    0  502    0  0.00000000000E+00  0.00000000000E+00  0.10079052249E+04  0.10079052249E+04  0.00000000000E+00 0. -1.
          1   -1    0    0  501    0 -0.00000000000E+00 -0.00000000000E+00 -0.12571352849E+04  0.12571352849E+04  0.00000000000E+00 0. -1.
         25    2    1    2    0    0  0.37044487094E+01  0.90295938560E+02 -0.22196160591E+03  0.27028674967E+03  0.12498357128E+03 0.  0.
          2    1    1    2  501    0  0.10185223845E+02  0.28628751737E+02 -0.10071378798E+04  0.10075961756E+04  0.00000000000E+00 0. -1.
          1    1    1    2  502    0 -0.13889672554E+02 -0.11892469030E+03  0.97986942580E+03  0.98715758447E+03  0.00000000000E+00 0. -1.
         22    1    3    3    0    0  0.14587746973E+02  0.98778769392E+02 -0.80786049486E+02  0.12843844220E+03  0.00000000000E+00 0.  1.
         22    1    3    3    0    0 -0.10883298264E+02 -0.84828308321E+01 -0.14117555643E+03  0.14184830747E+03  0.00000000000E+00 0.  1.
</event>
<event>
 7    1  0.5889087E-006  0.3449752E+02  0.7818608E-02  0.1606487E+00
          2   -1    0    0  502    0  0.00000000000E+00  0.00000000000E+00  0.27184434712E+04  0.27184434712E+04  0.00000000000E+00 0. -1.
          1   -1    0    0  501    0 -0.00000000000E+00 -0.00000000000E+00 -0.31075024658E+03  0.31075024658E+03  0.00000000000E+00 0. -1.
         25    2    1    2    0    0 -0.30832552453E+00 -0.59082535324E+02  0.18258252874E+03  0.22902694267E+03  0.12500447842E+03 0.  0.
          2    1    1    2  501    0 -0.15426092854E+01  0.24759027683E+02 -0.28687516829E+03  0.28794574363E+03  0.00000000000E+00 0. -1.
          1    1    1    2  502    0  0.18509348100E+01  0.34323507641E+02  0.25119858641E+04  0.25122210314E+04  0.00000000000E+00 0. -1.
         22    1    3    3    0    0 -0.36746865538E+02 -0.68727614633E+02  0.53442224479E+02  0.94498087268E+02  0.00000000000E+00 0.  1.
         22    1    3    3    0    0  0.36438540013E+02  0.96450793090E+01  0.12914030426E+03  0.13452885541E+03  0.00000000000E+00 0.  1.
</event>
<event>
 7    1  0.5889087E-006  0.6911503E+02  0.7818608E-02  0.1437529E+00
          2   -1    0    0  502    0  0.00000000000E+00  0.00000000000E+00  0.12422497033E+03  0.12422497033E+03  0.00000000000E+00 0. -1.
          1   -1    0    0  501    0 -0.00000000000E+00 -0.00000000000E+00 -0.64170033783E+03  0.64170033783E+03  0.00000000000E+00 0. -1.
         25    2    1    2    0    0  0.39029762563E+02 -0.51451077678E+01  0.34293870820E+02  0.13546262943E+03  0.12499703955E+03 0.  0.
          2    1    1    2  501    0 -0.66539714734E+02 -0.21562085098E+02 -0.57914340943E+03  0.58335199137E+03  0.00000000000E+00 0. -1.
          1    1    1    2  502    0  0.27509952171E+02  0.26707192866E+02  0.27374171113E+02  0.47110687358E+02  0.00000000000E+00 0. -1.
         22    1    3    3    0    0 -0.26828855317E+02  0.17690351729E+02 -0.27510814121E+02  0.42303438578E+02  0.00000000000E+00 0.  1.
         22    1    3    3    0    0  0.65858617880E+02 -0.22835459497E+02  0.61804684941E+02  0.93159190852E+02  0.00000000000E+00 0.  1.
</event>
<event>
 7    1  0.5889087E-006  0.6391461E+02  0.7818608E-02  0.1386470E+00
          2   -1    0    0  502    0  0.00000000000E+00  0.00000000000E+00  0.23340636855E+03  0.23340636855E+03  0.00000000000E+00 0. -1.
          1   -1    0    0  501    0 -0.00000000000E+00 -0.00000000000E+00 -0.24960924575E+03  0.24960924575E+03  0.00000000000E+00 0. -1.
         25    2    1    2    0    0 -0.36030485184E+02 -0.26874671057E+01  0.82626381352E+02  0.15412655299E+03  0.12498982798E+03 0.  0.
          2    1    1    2  501    0 -0.20483719282E+02  0.58191869939E+02 -0.19486674176E+03  0.20439893231E+03  0.00000000000E+00 0. -1.
          1    1    1    2  502    0  0.56514204466E+02 -0.55504402833E+02  0.96037483213E+02  0.12449012901E+03  0.00000000000E+00 0. -1.
         22    1    3    3    0    0 -0.64366255881E+02  0.14245677567E+02  0.97681389714E+02  0.11784569624E+03  0.00000000000E+00 0. -1.
         22    1    3    3    0    0  0.28335770698E+02 -0.16933144673E+02 -0.15055008361E+02  0.36280856747E+02  0.00000000000E+00 0. -1.
</event>
<event>
 7    1  0.5889087E-006  0.1005688E+03  0.7818608E-02  0.1357260E+00
          2   -1    0    0  502    0  0.00000000000E+00  0.00000000000E+00  0.78944920531E+03  0.78944920531E+03  0.00000000000E+00 0. -1.
          1   -1    0    0  501    0 -0.00000000000E+00 -0.00000000000E+00 -0.26152415675E+03  0.26152415675E+03  0.00000000000E+00 0. -1.
         25    2    1    2    0    0  0.36925194339E+02 -0.36858399225E+02 -0.75339256753E+02  0.15499236981E+03  0.12499847807E+03 0.  0.
          2    1    1    2  501    0  0.33416322748E+02 -0.37057879471E+02 -0.13850865472E+03  0.14722290748E+03  0.00000000000E+00 0. -1.
          1    1    1    2  502    0 -0.70341517087E+02  0.73916278696E+02  0.74177296003E+03  0.74875808477E+03  0.00000000000E+00 0. -1.
         22    1    3    3    0    0 -0.76526901567E+01  0.25815491149E+02  0.19236646149E+02  0.33091566977E+02  0.00000000000E+00 0. -1.
         22    1    3    3    0    0  0.44577884495E+02 -0.62673890374E+02 -0.94575902902E+02  0.12190080283E+03  0.00000000000E+00 0. -1.
</event>
<event>
 7    1  0.5889087E-006  0.1684866E+03  0.7818608E-02  0.1197054E+00
          2   -1    0    0  502    0  0.00000000000E+00  0.00000000000E+00  0.21720063298E+04  0.21720063298E+04  0.00000000000E+00 0. -1.
          1   -1    0    0  501    0 -0.00000000000E+00 -0.00000000000E+00 -0.29867492754E+04  0.29867492754E+04  0.00000000000E+00 0. -1.
         25    2    1    2    0    0 -0.13732142564E+03  0.93715488404E+02 -0.62231555347E+03  0.65615576932E+03  0.12499591516E+03 0.  0.
          2    1    1    2  501    0  0.17359084825E+03  0.40058818512E+02 -0.23418983123E+04  0.23486647689E+04  0.00000000000E+00 0. -1.
          1    1    1    2  502    0 -0.36269422603E+02 -0.13377430692E+03  0.21494709202E+04  0.21539350670E+04  0.00000000000E+00 0. -1.
         22    1    3    3    0    0  0.15487482711E+02  0.42441057031E+02 -0.17310578341E+03  0.17890421374E+03  0.00000000000E+00 0.  1.
         22    1    3    3    0    0 -0.15280890836E+03  0.51274431373E+02 -0.44920977006E+03  0.47725155558E+03  0.00000000000E+00 0.  1.
</event>
<event>
 7    1  0.5889087E-006  0.1114193E+03  0.7818608E-02  0.1377882E+00
          2   -1    0    0  502    0  0.00000000000E+00  0.00000000000E+00  0.12733914622E+04  0.12733914622E+04  0.00000000000E+00 0. -1.
          1   -1    0    0  501    0 -0.00000000000E+00 -0.00000000000E+00 -0.58825292777E+02  0.58825292777E+02  0.00000000000E+00 0. -1.
         25    2    1    2    0    0  0.33354173863E+02 -0.12663409998E+03  0.60299703071E+03  0.62958755239E+03  0.12500548342E+03 0.  0.
          2    1    1    2  501    0  0.61960649165E+00  0.10972837006E+03  0.22092045875E+02  0.11193193288E+03  0.00000000000E+00 0. -1.
          1    1    1    2  502    0 -0.33973780354E+02  0.16905729921E+02  0.58947709280E+03  0.59069726966E+03  0.00000000000E+00 0. -1.
         22    1    3    3    0    0 -0.65068563961E+01 -0.13031112947E+03  0.35168829813E+03  0.37511063526E+03  0.00000000000E+00 0.  1.
         22    1    3    3    0    0  0.39861030259E+02  0.36770294938E+01  0.25130873258E+03  0.25447691712E+03  0.00000000000E+00 0.  1.
</event>
<event>
 7    1  0.5889087E-006  0.2009214E+03  0.7818608E-02  0.1265130E+00
          2   -1    0    0  502    0  0.00000000000E+00  0.00000000000E+00  0.68561055662E+03  0.68561055662E+03  0.00000000000E+00 0. -1.
          1   -1    0    0  501    0 -0.00000000000E+00 -0.00000000000E+00 -0.18652226707E+03  0.18652226707E+03  0.00000000000E+00 0. -1.
         25    2    1    2    0    0  0.24619678023E+02  0.16506132712E+03  0.19796922965E+03  0.28752144902E+03  0.12500158999E+03 0.  0.
          2    1    1    2  501    0  0.24121184890E+02  0.52301101762E+02 -0.10594132223E+03  0.12058524189E+03  0.00000000000E+00 0. -1.
          1    1    1    2  502    0 -0.48740862914E+02 -0.21736242888E+03  0.40706038212E+03  0.46402613278E+03  0.00000000000E+00 0. -1.
         22    1    3    3    0    0  0.70023986953E+02  0.90423625139E+02  0.75329554473E+02  0.13694645855E+03  0.00000000000E+00 0. -1.
         22    1    3    3    0    0 -0.45404308930E+02  0.74637701982E+02  0.12263967518E+03  0.15057499047E+03  0.00000000000E+00 0. -1.
</event>
<event>
 7    1  0.5889087E-006  0.7901396E+02  0.7818608E-02  0.1403081E+00
          2   -1    0    0  502    0  0.00000000000E+00  0.00000000000E+00  0.11435906204E+04  0.11435906204E+04  0.00000000000E+00 0. -1.
          1   -1    0    0  501    0 -0.00000000000E+00 -0.00000000000E+00 -0.10597875924E+03  0.10597875924E+03  0.00000000000E+00 0. -1.
         25    2    1    2    0    0 -0.33890323662E+02 -0.11327566743E+03  0.56652783976E+03  0.59207837897E+03  0.12499233077E+03 0.  0.
          2    1    1    2  501    0  0.88594080722E+01  0.77445143925E+02 -0.75879505449E+02  0.10878390863E+03  0.00000000000E+00 0. -1.
          1    1    1    2  502    0  0.25030915589E+02  0.35830523501E+02  0.54696352681E+03  0.54870709200E+03  0.00000000000E+00 0. -1.
         22    1    3    3    0    0 -0.55226622269E+02 -0.12436341176E+03  0.37268213474E+03  0.39674703723E+03  0.00000000000E+00 0. -1.
         22    1    3    3    0    0  0.21336298608E+02  0.11087744336E+02  0.19384570502E+03  0.19533134175E+03  0.00000000000E+00 0. -1.
</event>
<event>
 7    1  0.5889087E-006  0.9760963E+02  0.7818608E-02  0.1331657E+00
          2   -1    0    0  502    0  0.00000000000E+00  0.00000000000E+00  0.12360662151E+04  0.12360662151E+04  0.00000000000E+00 0. -1.
          1   -1    0    0  501    0 -0.00000000000E+00 -0.00000000000E+00 -0.42741063760E+03  0.42741063760E+03  0.00000000000E+00 0. -1.
         25    2    1    2    0    0 -0.12552756897E+03  0.40484776192E+02  0.52280222188E+03  0.55348117995E+03  0.12499226249E+03 0.  0.
          2    1    1    2  501    0  0.68339915616E+02 -0.69400624159E+02 -0.40481154869E+03  0.41636424036E+03  0.00000000000E+00 0. -1.
          1    1    1    2  502    0  0.57187653353E+02  0.28915847966E+02  0.69066490431E+03  0.69363143239E+03  0.00000000000E+00 0. -1.
         22    1    3    3    0    0 -0.11834031583E+03  0.30846393164E+02  0.23051290666E+03  0.26094468850E+03  0.00000000000E+00 0.  1.
         22    1    3    3    0    0 -0.71872531381E+01  0.96383830283E+01  0.29228931523E+03  0.29253649145E+03  0.00000000000E+00 0.  1.
</event>
<event>
 7    1  0.5889087E-006  0.1425528E+03  0.7818608E-02  0.1294058E+00
          2   -1    0    0  502    0  0.00000000000E+00  0.00000000000E+00  0.52116152389E+03  0.52116152389E+03  0.00000000000E+00 0. -1.
          1   -1    0    0  501    0 -0.00000000000E+00 -0.00000000000E+00 -0.20574769756E+04  0.20574769756E+04  0.00000000000E+00 0. -1.
         25    2    1    2    0    0  0.77649376379E+02 -0.14956034613E+03 -0.80537378597E+02  0.22474242316E+03  0.12500065852E+03 0.  0.
          2    1    1    2  501    0 -0.10577099526E+03  0.94719027942E+02 -0.19000611377E+04  0.19053586341E+04  0.00000000000E+00 0. -1.
          1    1    1    2  502    0  0.28121618877E+02  0.54841318191E+02  0.44428306455E+03  0.44853744222E+03  0.00000000000E+00 0. -1.
         22    1    3    3    0    0  0.43753925505E+02 -0.15807574398E+03 -0.91877987014E+02  0.18799976417E+03  0.00000000000E+00 0.  1.
         22    1    3    3    0    0  0.33895450875E+02  0.85153978426E+01  0.11340608417E+02  0.36742658991E+02  0.00000000000E+00 0.  1.
</event>
<event>
 7    1  0.5889087E-006  0.5763378E+02  0.7818608E-02  0.1494963E+00
          2   -1    0    0  502    0  0.00000000000E+00  0.00000000000E+00  0.73872091193E+01  0.73872091193E+01  0.00000000000E+00 0. -1.
          1   -1    0    0  501    0 -0.00000000000E+00 -0.00000000000E+00 -0.37222256673E+04  0.37222256673E+04  0.00000000000E+00 0. -1.
         25    2    1    2    0    0  0.76930765047E+02  0.39414692895E+02 -0.90797742884E+03  0.92060662453E+03  0.12498674012E+03 0.  0.
          2    1    1    2  501    0 -0.48821509787E+02 -0.27834236405E+02 -0.25024405644E+04  0.25030715257E+04  0.00000000000E+00 0. -1.
          1    1    1    2  502    0 -0.28109255260E+02 -0.11580456490E+02 -0.30442046495E+03  0.30593472619E+03  0.00000000000E+00 0. -1.
         22    1    3    3    0    0  0.61520094006E+02  0.84342571492E+02 -0.63710087219E+03  0.64559733013E+03  0.00000000000E+00 0.  1.
         22    1    3    3    0    0  0.15410671041E+02 -0.44927878597E+02 -0.27087655666E+03  0.27500929440E+03  0.00000000000E+00 0.  1.
</event>
<event>
 7    1  0.5889087E-006  0.7330356E+02  0.7818608E-02  0.1393572E+00
          2   -1    0    0  502    0  0.00000000000E+00  0.00000000000E+00  0.77436494788E+03  0.77436494788E+03  0.00000000000E+00 0. -1.
          1   -1    0    0  501    0 -0.00000000000E+00 -0.00000000000E+00 -0.13949829591E+03  0.13949829591E+03  0.00000000000E+00 0. -1.
         25    2    1    2    0    0 -0.26544182507E+02  0.33600403727E+01  0.14767088099E+03  0.19531065639E+03  0.12499471953E+03 0.  0.
          2    1    1    2  501    0  0.73050420780E+02 -0.23815899212E+02 -0.10170428708E+03  0.12746498752E+03  0.00000000000E+00 0. -1.
          1    1    1    2  502    0 -0.46506238273E+02  0.20455858839E+02  0.58890005806E+03  0.59108759989E+03  0.00000000000E+00 0. -1.
         22    1    3    3    0    0  0.31715474061E+01 -0.47206595946E+02  0.14003984371E+02  0.49342000284E+02  0.00000000000E+00 0.  1.
         22    1    3    3    0    0 -0.29715729913E+02  0.50566636319E+02  0.13366689662E+03  0.14596865610E+03  0.00000000000E+00 0.  1.
</event>
<event>
 7    1  0.5889087E-006  0.8875756E+02  0.7818608E-02  0.1448855E+00
          2   -1    0    0  502    0  0.00000000000E+00  0.00000000000E+00  0.86069824118E+03  0.86069824118E+03  0.00000000000E+00 0. -1.
          1   -1    0    0  501    0 -0.00000000000E+00 -0.00000000000E+00 -0.32273104941E+03  0.32273104941E+03  0.00000000000E+00 0. -1.
         25    2    1    2    0    0  0.55163865938E+02  0.62475984406E+02  0.38958342143E+02  0.15520716628E+03  0.12500084523E+03 0.  0.
          2    1    1    2  501    0 -0.35850735086E+02 -0.81974115506E+02 -0.25678731899E+03  0.27192785443E+03  0.00000000000E+00 0. -1.
          1    1    1    2  502    0 -0.19313130852E+02  0.19498131100E+02  0.75579616862E+03  0.75629426987E+03  0.00000000000E+00 0. -1.
         22    1    3    3    0    0  0.79715811375E+02  0.57574315494E+02 -0.11376966349E+02  0.98989129459E+02  0.00000000000E+00 0. -1.
         22    1    3    3    0    0 -0.24551945437E+02  0.49016689114E+01  0.50335308491E+02  0.56218036819E+02  0.00000000000E+00 0. -1.
</event>
<event>
 7    1  0.5889087E-006  0.9086175E+02  0.7818608E-02  0.1418100E+00
          2   -1    0    0  502    0  0.00000000000E+00  0.00000000000E+00  0.40044806621E+02  0.40044806621E+02  0.00000000000E+00 0. -1.
          1   -1    0    0  501    0 -0.00000000000E+00 -0.00000000000E+00 -0.17553711230E+04  0.17553711230E+04  0.00000000000E+00 0. -1.
         25    2    1    2    0    0  0.31676432754E+02  0.92990221648E+02 -0.47577770475E+03  0.50163728644E+03  0.12499986037E+03 0.  0.
          2    1    1    2  501    0 -0.33716271760E+02 -0.25004284094E+01 -0.11902136139E+04  0.11906936994E+04  0.00000000000E+00 0. -1.
          1    1    1    2  502    0  0.20398390061E+01 -0.90489793238E+02 -0.49334997667E+02  0.10308494370E+03  0.00000000000E+00 0. -1.
         22    1    3    3    0    0  0.33143471204E+02  0.10166716794E+02 -0.34562674109E+03  0.34736104556E+03  0.00000000000E+00 0. -1.
         22    1    3    3    0    0 -0.14670384507E+01  0.82823504854E+02 -0.13015096366E+03  0.15427624088E+03  0.00000000000E+00 0. -1.
</event>
<event>
 7    1  0.5889087E-006  0.8870839E+02  0.7818608E-02  0.1340616E+00
          2   -1    0    0  502    0  0.00000000000E+00  0.00000000000E+00  0.11823370609E+04  0.11823370609E+04  0.00000000000E+00 0. -1.
          1   -1    0    0  501    0 -0.00000000000E+00 -0.00000000000E+00 -0.12342310927E+03  0.12342310927E+03  0.00000000000E+00 0. -1.
         25    2    1    2    0    0 -0.10616926119E+03  0.23988189394E+02  0.14707620887E+03  0.22159396065E+03  0.12500050773E+03 0.  0.
          2    1    1    2  501    0  0.80868550123E+02  0.36121128680E+02 -0.62021622692E+02  0.10812557522E+03  0.00000000000E+00 0. -1.
          1    1    1    2  502    0  0.25300711063E+02 -0.60109318073E+02  0.97385936545E+03  0.97604063428E+03  0.00000000000E+00 0. -1.
         22    1    3    3    0    0 -0.11354265609E+03 -0.65656771668E+01  0.15193728752E+03  0.18978931005E+03  0.00000000000E+00 0.  1.
         22    1    3    3    0    0  0.73733949036E+01  0.30553866561E+02 -0.48610786589E+01  0.31804650602E+02  0.00000000000E+00 0.  1.
</event>
<event>
 7    1  0.5889087E-006  0.1018241E+03  0.7818608E-02  0.1331573E+00
          2   -1    0    0  502    0  0.00000000000E+00  0.00000000000E+00  0.14607889415E+04  0.14607889415E+04  0.00000000000E+00 0. -1.
          1   -1    0    0  501    0 -0.00000000000E+00 -0.00000000000E+00 -0.99265544364E+02  0.99265544364E+02  0.00000000000E+00 0. -1.
         25    2    1    2    0    0 -0.94030238270E+02  0.10465413176E+03  0.12816205115E+03  0.22769508474E+03  0.12500146901E+03 0.  0.
          2    1    1    2  501    0  0.31272796641E+01 -0.61395956604E+02 -0.27599191877E+02  0.67386636344E+02  0.00000000000E+00 0. -1.
          1    1    1    2  502    0  0.90902958606E+02 -0.43258175158E+02  0.12609605378E+04  0.12649727648E+04  0.00000000000E+00 0. -1.
         22    1    3    3    0    0 -0.39435766946E+02  0.11242772552E+03  0.43862912450E+02  0.12696112897E+03  0.00000000000E+00 0.  1.
         22    1    3    3    0    0 -0.54594471324E+02 -0.77735937563E+01  0.84299138702E+02  0.10073395577E+03  0.00000000000E+00 0.  1.
</event>
<event>
 7    1  0.5889087E-006  0.5195394E+02  0.7818608E-02  0.1509208E+00
          2   -1    0    0  502    0  0.00000000000E+00  0.00000000000E+00  0.81528832808E+03  0.81528832808E+03  0.00000000000E+00 0. -1.
          1   -1    0    0  501    0 -0.00000000000E+00 -0.00000000000E+00 -0.13570214417E+03  0.13570214417E+03  0.00000000000E+00 0. -1.
         25    2    1    2    0    0 -0.46276196414E+02 -0.92944194347E+01  0.38092352581E+03  0.40367631203E+03  0.12499583909E+03 0.  0.
          2    1    1    2  501    0  0.47607910805E+02 -0.21265323061E+02 -0.11827377264E+03  0.12925715621E+03  0.00000000000E+00 0. -1.
          1    1    1    2  502    0 -0.13317143909E+01  0.30559742496E+02  0.41693643074E+03  0.41805700401E+03  0.00000000000E+00 0. -1.
         22    1    3    3    0    0 -0.64599376517E+02 -0.13684605142E+02  0.87358900887E+02  0.10950765009E+03  0.00000000000E+00 0.  1.
         22    1    3    3    0    0  0.18323180103E+02  0.43901857070E+01  0.29356462493E+03  0.29416866194E+03  0.00000000000E+00 0.  1.
</event>
<event>
 7    1  0.5889087E-006  0.1000655E+03  0.7818608E-02  0.1317547E+00
          2   -1    0    0  502    0  0.00000000000E+00  0.00000000000E+00  0.27953161263E+02  0.27953161263E+02  0.00000000000E+00 0. -1.
          1   -1    0    0  501    0 -0.00000000000E+00 -0.00000000000E+00 -0.18623181104E+04  0.18623181104E+04  0.00000000000E+00 0. -1.
         25    2    1    2    0    0 -0.28926942587E+02  0.46179131494E+02 -0.18126080529E+03  0.22682752983E+03  0.12500387419E+03 0.  0.
          2    1    1    2  501    0  0.99136849675E+02 -0.36718185499E+02 -0.12212517094E+04  0.12258189417E+04  0.00000000000E+00 0. -1.
          1    1    1    2  502    0 -0.70209907088E+02 -0.94609459951E+01 -0.43185243438E+03  0.43762480007E+03  0.00000000000E+00 0. -1.
         22    1    3    3    0    0 -0.40914425472E+02  0.85064147989E+02 -0.11172869513E+03  0.14626414735E+03  0.00000000000E+00 0.  1.
         22    1    3    3    0    0  0.11987482885E+02 -0.38885016495E+02 -0.69532110158E+02  0.80563382481E+02  0.00000000000E+00 0.  1.
</event>
<event>
 7    1  0.5889087E-006  0.1713548E+03  0.7818608E-02  0.1221731E+00
          2   -1    0    0  502    0  0.00000000000E+00  0.00000000000E+00  0.96357251706E+03  0.96357251706E+03  0.00000000000E+00 0. -1.
          1   -1    0    0  501    0 -0.00000000000E+00 -0.00000000000E+00 -0.19823471078E+04  0.19823471078E+04  0.00000000000E+00 0. -1.
         25    2    1    2    0    0 -0.25536897397E+03  0.75960315529E+02  0.29462098215E+03  0.41642395545E+03  0.12499642053E+03 0.  0.
          2    1    1    2  501    0  0.16965626660E+03 -0.15855646276E+02 -0.19131248448E+04  0.19206981341E+04  0.00000000000E+00 0. -1.
          1    1    1    2  502    0  0.85712707374E+02 -0.60104669253E+02  0.59972927192E+03  0.60879753537E+03  0.00000000000E+00 0. -1.
         22    1    3    3    0    0 -0.14522825535E+03  0.96122775155E+02  0.12997582254E+03  0.21731209930E+03  0.00000000000E+00 0. -1.
         22    1    3    3    0    0 -0.11014071862E+03 -0.20162459626E+02  0.16464515961E+03  0.19911185615E+03  0.00000000000E+00 0. -1.
</event>
<event>
 7    1  0.5889087E-006  0.9872504E+02  0.7818608E-02  0.1407631E+00
          2   -1    0    0  502    0  0.00000000000E+00  0.00000000000E+00  0.12824458356E+04  0.12824458356E+04  0.00000000000E+00 0. -1.
          1   -1    0    0  501    0 -0.00000000000E+00 -0.00000000000E+00 -0.45176724570E+03  0.45176724570E+03  0.00000000000E+00 0. -1.
         25    2    1    2    0    0 -0.55755254976E+02 -0.91643435419E+02  0.73942738455E+03  0.75755224788E+03  0.12500153413E+03 0.  0.
          2    1    1    2  501    0  0.33688802423E+02 -0.20830240761E+01 -0.43770880270E+03  0.43900828051E+03  0.00000000000E+00 0. -1.
          1    1    1    2  502    0  0.22066452552E+02  0.93726459496E+02  0.52896000809E+03  0.53765255295E+03  0.00000000000E+00 0. -1.
         22    1    3    3    0    0 -0.88533301226E+02 -0.33046324895E+02  0.35810086345E+03  0.37035987015E+03  0.00000000000E+00 0. -1.
         22    1    3    3    0    0  0.32778046251E+02 -0.58597110524E+02  0.38132652111E+03  0.38719237774E+03  0.00000000000E+00 0. -1.
</event>
<event>
 7    1  0.5889087E-006  0.1565415E+03  0.7818608E-02  0.1253272E+00
          2   -1    0    0  502    0  0.00000000000E+00  0.00000000000E+00  0.15320142003E+04  0.15320142003E+04  0.00000000000E+00 0. -1.
          1   -1    0    0  501    0 -0.00000000000E+00 -0.00000000000E+00 -0.24288498413E+03  0.24288498413E+03  0.00000000000E+00 0. -1.
         25    2    1    2    0    0 -0.12908922573E+03  0.17134351319E+03  0.67723348923E+03  0.72131339287E+03  0.12500073633E+03 0.  0.
          2    1    1    2  501    0  0.71777792703E+02 -0.41821177180E+02 -0.20673058229E+03  0.22279720833E+03  0.00000000000E+00 0. -1.
          1    1    1    2  502    0  0.57311433023E+02 -0.12952233601E+03  0.81862630926E+03  0.83078858327E+03  0.00000000000E+00 0. -1.
         22    1    3    3    0    0  0.24719397421E+02  0.34225268607E+02  0.11207158559E+03  0.11976000132E+03  0.00000000000E+00 0. -1.
         22    1    3    3    0    0 -0.15380862315E+03  0.13711824459E+03  0.56516190364E+03  0.60155339154E+03  0.00000000000E+00 0. -1.
</event>
<event>
 7    1  0.5889087E-006  0.8720942E+02  0.7818608E-02  0.1335553E+00
          2   -1    0    0  502    0  0.00000000000E+00  0.00000000000E+00  0.31218595360E+04  0.31218595360E+04  0.00000000000E+00 0. -1.
          1   -1    0    0  501    0 -0.00000000000E+00 -0.00000000000E+00 -0.12501124940E+04  0.12501124940E+04  0.00000000000E+00 0. -1.
         25    2    1    2    0    0 -0.91998920727E+02  0.61808092342E+02  0.25767123059E+03  0.30708846944E+03  0.12499929317E+03 0.  0.
          2    1    1    2  501    0  0.26069085530E+02 -0.83225224442E+02 -0.12234282751E+04  0.12265328285E+04  0.00000000000E+00 0. -1.
          1    1    1    2  502    0  0.65929835197E+02  0.21417132099E+02  0.28375040865E+04  0.28383507320E+04  0.00000000000E+00 0. -1.
         22    1    3    3    0    0 -0.12347904362E+03  0.48964959127E+02  0.21140561134E+03  0.24967373499E+03  0.00000000000E+00 0.  1.
         22    1    3    3    0    0  0.31480122888E+02  0.12843133215E+02  0.46265619251E+02  0.57414734455E+02  0.00000000000E+00 0.  1.
</event>
<event>
 7    1  0.5889087E-006  0.7576315E+02  0.7818608E-02  0.1419361E+00
          2   -1    0    0  502    0  0.00000000000E+00  0.00000000000E+00  0.11917251686E+04  0.11917251686E+04  0.00000000000E+00 0. -1.
          1   -1    0    0  501    0 -0.00000000000E+00 -0.00000000000E+00 -0.21792911387E+03  0.21792911387E+03  0.00000000000E+00 0. -1.
         25    2    1    2    0    0 -0.61766001552E+02 -0.60074662480E+01  0.72282482439E+03  0.73617500298E+03  0.12500711841E+03 0.  0.
          2    1    1    2  501    0 -0.19916272424E+02  0.34867146124E+02 -0.20523212304E+03  0.20912340881E+03  0.00000000000E+00 0. -1.
          1    1    1    2  502    0  0.81682273976E+02 -0.28859679876E+02  0.45620335338E+03  0.46435587068E+03  0.00000000000E+00 0. -1.
         22    1    3    3    0    0 -0.75303657471E+02  0.43805216665E+02  0.49146388288E+03  0.49912552130E+03  0.00000000000E+00 0. -1.
         22    1    3    3    0    0  0.13537655919E+02 -0.49812682913E+02  0.23136094151E+03  0.23704948168E+03  0.00000000000E+00 0. -1.
</event>
<event>
 7    1  0.5889087E-006  0.9369063E+02  0.7818608E-02  0.1388436E+00
          2   -1    0    0  502    0  0.00000000000E+00  0.00000000000E+00  0.60776605046E+03  0.60776605046E+03  0.00000000000E+00 0. -1.
          1   -1    0    0  501    0 -0.00000000000E+00 -0.00000000000E+00 -0.10477127684E+03  0.10477127684E+03  0.00000000000E+00 0. -1.
         25    2    1    2    0    0  0.70841465345E+02 -0.35680886262E+02  0.13704827684E+03  0.20173676422E+03  0.12499541191E+03 0.  0.
          2    1    1    2  501    0  0.26281462169E+02  0.32018279931E+02 -0.60553641012E+02  0.73366402006E+02  0.00000000000E+00 0. -1.
          1    1    1    2  502    0 -0.97122927514E+02  0.36626063308E+01  0.42650013779E+03  0.43743416107E+03  0.00000000000E+00 0. -1.
         22    1    3    3    0    0  0.17420546175E+02 -0.58001951560E+02  0.90246454887E+01  0.61230270618E+02  0.00000000000E+00 0.  1.
         22    1    3    3    0    0  0.53420919171E+02  0.22321065298E+02  0.12802363135E+03  0.14050649360E+03  0.00000000000E+00 0.  1.
</event>
<event>
 7    1  0.5889087E-006  0.1198658E+03  0.7818608E-02  0.1298815E+00
          2   -1    0    0  502    0  0.00000000000E+00  0.00000000000E+00  0.36850400430E+04  0.36850400430E+04  0.00000000000E+00 0. -1.
          1   -1    0    0  501    0 -0.00000000000E+00 -0.00000000000E+00 -0.22962694565E+02  0.22962694565E+02  0.00000000000E+00 0. -1.
         25    2    1    2    0    0  0.12757350077E+03 -0.12043413265E+02  0.14861251503E+04  0.14968677946E+04  0.12500076192E+03 0.  0.
          2    1    1    2  501    0 -0.95633404736E+02  0.74482300156E+02  0.19949915333E+03  0.23343794318E+03  0.00000000000E+00 0. -1.
          1    1    1    2  502    0 -0.31940096039E+02 -0.62438886892E+02  0.19764530448E+04  0.19776969997E+04  0.00000000000E+00 0. -1.
         22    1    3    3    0    0 -0.58570278546E+01  0.19595731239E+01  0.17188430143E+01  0.64108598039E+01  0.00000000000E+00 0. -1.
         22    1    3    3    0    0  0.13343052863E+03 -0.14002986388E+02  0.14844063073E+04  0.14904569348E+04  0.00000000000E+00 0. -1.
</event>
<event>
 7    1  0.5889087E-006  0.7547057E+02  0.7818608E-02  0.1470707E+00
          2   -1    0    0  502    0  0.00000000000E+00  0.00000000000E+00  0.17923460381E+04  0.17923460381E+04  0.00000000000E+00 0. -1.
          1   -1    0    0  501    0 -0.00000000000E+00 -0.00000000000E+00 -0.24111907503E+03  0.24111907503E+03  0.00000000000E+00 0. -1.
         25    2    1    2    0    0  0.86992861232E+02  0.51822554080E+02  0.13947440204E+04  0.14039903655E+04  0.12499891599E+03 0.  0.
          2    1    1    2  501    0 -0.60245330336E+02 -0.45276470609E+02 -0.22998978668E+03  0.24202223162E+03  0.00000000000E+00 0. -1.
          1    1    1    2  502    0 -0.26747530896E+02 -0.65460834716E+01  0.38647272941E+03  0.38745251605E+03  0.00000000000E+00 0. -1.
         22    1    3    3    0    0  0.82184971018E+02 -0.23349987244E+02  0.71613294241E+03  0.72121146869E+03  0.00000000000E+00 0.  1.
         22    1    3    3    0    0  0.48078902136E+01  0.75172541325E+02  0.67861107796E+03  0.68277889679E+03  0.00000000000E+00 0.  1.
</event>
<event>
 7    1  0.5889087E-006  0.1405494E+03  0.7818608E-02  0.1270532E+00
          2   -1    0    0  502    0  0.00000000000E+00  0.00000000000E+00  0.13617663166E+04  0.13617663166E+04  0.00000000000E+00 0. -1.
          1   -1    0    0  501    0 -0.00000000000E+00 -0.00000000000E+00 -0.16876964546E+03  0.16876964546E+03  0.00000000000E+00 0. -1.
         25    2    1    2    0    0 -0.27370876225E+02  0.16248457890E+03 -0.18028436420E+02  0.20760513960E+03  0.12499786486E+03 0.  0.
          2    1    1    2  501    0 -0.58674331485E+02 -0.51590743367E+02 -0.22610531991E+02  0.81335835480E+02  0.00000000000E+00 0. -1.
          1    1    1    2  502    0  0.86045207711E+02 -0.11089383554E+03  0.12336356395E+04  0.12415949869E+04  0.00000000000E+00 0. -1.
         22    1    3    3    0    0 -0.58516801257E+01  0.72208679649E+02  0.53810806074E+02  0.90243772235E+02  0.00000000000E+00 0.  1.
         22    1    3    3    0    0 -0.21519196100E+02  0.90275899254E+02 -0.71839242493E+02  0.11736136736E+03  0.00000000000E+00 0.  1.
</event>
<event>
 7    1  0.5889087E-006  0.6599059E+02  0.7818608E-02  0.1438400E+00
          2   -1    0    0  502    0  0.00000000000E+00  0.00000000000E+00  0.14717871137E+04  0.14717871137E+04  0.00000000000E+00 0. -1.
          1   -1    0    0  501    0 -0.00000000000E+00 -0.00000000000E+00 -0.73673929460E+02  0.73673929460E+02  0.00000000000E+00 0. -1.
         25    2    1    2    0    0  0.27531769620E+02 -0.10818834305E+01  0.42317581048E+02  0.13481012321E+03  0.12499529129E+03 0.  0.
          2    1    1    2  501    0  0.37504145942E+02 -0.13605131850E+02 -0.11664892496E+02  0.41565975177E+02  0.00000000000E+00 0. -1.
          1    1    1    2  502    0 -0.65035915561E+02  0.14687015281E+02  0.13674604956E+04  0.13690849447E+04  0.00000000000E+00 0. -1.
         22    1    3    3    0    0 -0.44624485440E+02 -0.25750485407E+02  0.20937724719E+02  0.55613132585E+02  0.00000000000E+00 0.  1.
         22    1    3    3    0    0  0.72156255060E+02  0.24668601977E+02  0.21379856329E+02  0.79196990627E+02  0.00000000000E+00 0.  1.
</event>
<event>
 7    1  0.5889087E-006  0.6514094E+02  0.7818608E-02  0.1378495E+00
          2   -1    0    0  502    0  0.00000000000E+00  0.00000000000E+00  0.24478054427E+03  0.24478054427E+03  0.00000000000E+00 0. -1.
          1   -1    0    0  501    0 -0.00000000000E+00 -0.00000000000E+00 -0.29284204866E+03  0.29284204866E+03  0.00000000000E+00 0. -1.
         25    2    1    2    0    0 -0.95383054588E+01 -0.39358042712E+02 -0.17309982741E+03  0.21732171676E+03  0.12500057412E+03 0.  0.
          2    1    1    2  501    0 -0.28407077608E+02  0.92306031868E+02 -0.66981602599E+02  0.11753255151E+03  0.00000000000E+00 0. -1.
          1    1    1    2  502    0  0.37945383067E+02 -0.52947989156E+02  0.19201992562E+03  0.20276832466E+03  0.00000000000E+00 0. -1.
         22    1    3    3    0    0  0.10759977790E+02 -0.82401314055E+02 -0.98978380307E+02  0.12923804954E+03  0.00000000000E+00 0.  1.
         22    1    3    3    0    0 -0.20298283249E+02  0.43043271343E+02 -0.74121447103E+02  0.88083667223E+02  0.00000000000E+00 0.  1.
</event>
<event>
 7    1  0.5889087E-006  0.6317833E+02  0.7818608E-02  0.1435244E+00
          2   -1    0    0  502    0  0.00000000000E+00  0.00000000000E+00  0.62322554535E+03  0.62322554535E+03  0.00000000000E+00 0. -1.
          1   -1    0    0  501    0 -0.00000000000E+00 -0.00000000000E+00 -0.22154684802E+04  0.22154684802E+04  0.00000000000E+00 0. -1.
         25    2    1    2    0    0 -0.32930160621E+02  0.10860478887E+02  0.29614353710E+03  0.32330617231E+03  0.12499416390E+03 0.  0.
          2    1    1    2  501    0 -0.22455672171E+02  0.36284026665E+02 -0.21974585992E+04  0.21978728541E+04  0.00000000000E+00 0. -1.
          1    1    1    2  502    0  0.55385832793E+02 -0.47144505552E+02  0.30907212719E+03  0.31751499915E+03  0.00000000000E+00 0. -1.
         22    1    3    3    0    0  0.35634758648E+02  0.26487225554E+02  0.47983503762E+02  0.65374504011E+02  0.00000000000E+00 0. -1.
         22    1    3    3    0    0 -0.68564919269E+02 -0.15626746667E+02  0.24816003334E+03  0.25793166830E+03  0.00000000000E+00 0. -1.
</event>
<event>
 7    1  0.5889087E-006  0.1193650E+03  0.7818608E-02  0.1277318E+00
          2   -1    0    0  502    0  0.00000000000E+00  0.00000000000E+00  0.20327160943E+04  0.20327160943E+04  0.00000000000E+00 0. -1.
          1   -1    0    0  501    0 -0.00000000000E+00 -0.00000000000E+00 -0.36723435811E+03  0.36723435811E+03  0.00000000000E+00 0. -1.
         25    2    1    2    0    0  0.17492283647E+02  0.86062185263E+02  0.51562748483E+03  0.53778083439E+03  0.12499537194E+03 0.  0.
          2    1    1    2  501    0  0.67606144708E+02 -0.99728421094E+02 -0.34469091409E+03  0.36514130830E+03  0.00000000000E+00 0. -1.
          1    1    1    2  502    0 -0.85098428355E+02  0.13666235831E+02  0.14945451655E+04  0.14970283098E+04  0.00000000000E+00 0. -1.
         22    1    3    3    0    0  0.58304736840E+02  0.11623643198E+01  0.21219847231E+03  0.22006586532E+03  0.00000000000E+00 0. -1.
         22    1    3    3    0    0 -0.40812453193E+02  0.84899820943E+02  0.30342901252E+03  0.31771496907E+03  0.00000000000E+00 0. -1.
</event>
<event>
 7    1  0.5889087E-006  0.8565879E+02  0.7818608E-02  0.1476507E+00
          2   -1    0    0  502    0  0.00000000000E+00  0.00000000000E+00  0.19261839907E+03  0.19261839907E+03  0.00000000000E+00 0. -1.
          1   -1    0    0  501    0 -0.00000000000E+00 -0.00000000000E+00 -0.44340220219E+03  0.44340220219E+03  0.00000000000E+00 0. -1.
         25    2    1    2    0    0 -0.66304830386E+02  0.34457138674E+02  0.69893576811E+02  0.16153340112E+03  0.12499721061E+03 0.  0.
          2    1    1    2  501    0 -0.22297985669E+02 -0.66875256298E+01 -0.36905440641E+03  0.36978788252E+03  0.00000000000E+00 0. -1.
          1    1    1    2  502    0  0.88602816054E+02 -0.27769613044E+02  0.48377026480E+02  0.10469931763E+03  0.00000000000E+00 0. -1.
         22    1    3    3    0    0 -0.90265969834E+02  0.58411785539E+02  0.35429418529E+02  0.11320391202E+03  0.00000000000E+00 0.  1.
         22    1    3    3    0    0  0.23961139448E+02 -0.23954646865E+02  0.34464158282E+02  0.48329489095E+02  0.00000000000E+00 0.  1.
</event>
<event>
 7    1  0.5889087E-006  0.8650231E+02  0.7818608E-02  0.1363530E+00
          2   -1    0    0  502    0  0.00000000000E+00  0.00000000000E+00  0.16607974305E+04  0.16607974305E+04  0.00000000000E+00 0. -1.
          1   -1    0    0  501    0 -0.00000000000E+00 -0.00000000000E+00 -0.25796194054E+04  0.25796194054E+04  0.00000000000E+00 0. -1.
         25    2    1    2    0    0  0.10606122921E+03 -0.35597180364E+02  0.87517644793E+03  0.89110858648E+03  0.12499821717E+03 0.  0.
          2    1    1    2  501    0 -0.58658166564E+02  0.63562699148E+02 -0.25699510932E+04  0.25714061559E+04  0.00000000000E+00 0. -1.
          1    1    1    2  502    0 -0.47403062644E+02 -0.27965518784E+02  0.77595267031E+03  0.77790209355E+03  0.00000000000E+00 0. -1.
         22    1    3    3    0    0 -0.25774785725E+02  0.80871615644E+01  0.19820362649E+03  0.20003604504E+03  0.00000000000E+00 0.  1.
         22    1    3    3    0    0  0.13183601493E+03 -0.43684341929E+02  0.67697282144E+03  0.69107254144E+03  0.00000000000E+00 0.  1.
</event>
<event>
 7    1  0.5889087E-006  0.8367490E+02  0.7818608E-02  0.1428638E+00
          2   -1    0    0  502    0  0.00000000000E+00  0.00000000000E+00  0.38410240604E+02  0.38410240604E+02  0.00000000000E+00 0. -1.
          1   -1    0    0  501    0 -0.00000000000E+00 -0.00000000000E+00 -0.56625090881E+03  0.56625090881E+03  0.00000000000E+00 0. -1.
         25    2    1    2    0    0  0.10167700992E+02  0.77357375224E+02 -0.36446322533E+03  0.39311258755E+03  0.12496606829E+03 0.  0.
          2    1    1    2  501    0  0.21675732561E+02 -0.88891279099E+02 -0.14879372333E+03  0.17467417950E+03  0.00000000000E+00 0. -1.
          1    1    1    2  502    0 -0.31843433553E+02  0.11533903875E+02 -0.14583719542E+02  0.36874382364E+02  0.00000000000E+00 0. -1.
         22    1    3    3    0    0  0.63383965247E+02  0.22866903914E+02 -0.21577695079E+03  0.22605334512E+03  0.00000000000E+00 0.  1.
         22    1    3    3    0    0 -0.53216264256E+02  0.54490471310E+02 -0.14868627454E+03  0.16705924243E+03  0.00000000000E+00 0.  1.
</event>
<event>
 7    1  0.5889087E-006  0.1109140E+03  0.7818608E-02  0.1384733E+00
          2   -1    0    0  502    0  0.00000000000E+00  0.00000000000E+00  0.16619861260E+04  0.16619861260E+04  0.00000000000E+00 0. -1.
          1   -1    0    0  501    0 -0.00000000000E+00 -0.00000000000E+00 -0.21094912906E+03  0.21094912906E+03  0.00000000000E+00 0. -1.
         25    2    1    2    0    0  0.25832777714E+02  0.14143137233E+03  0.15016699341E+03  0.24258078970E+03  0.12500059255E+03 0.  0.
          2    1    1    2  501    0 -0.22917624275E+02 -0.10549657037E+03 -0.14680734114E+03  0.18222826146E+03  0.00000000000E+00 0. -1.
          1    1    1    2  502    0 -0.29151534390E+01 -0.35934801960E+02  0.14476773447E+04  0.14481262039E+04  0.00000000000E+00 0. -1.
         22    1    3    3    0    0 -0.15319963320E+01 -0.20719431652E+02  0.13882897114E+01  0.20822324775E+02  0.00000000000E+00 0. -1.
         22    1    3    3    0    0  0.27364774046E+02  0.16215080398E+03  0.14877870370E+03  0.22175846492E+03  0.00000000000E+00 0. -1.
</event>
<event>
 7    1  0.5889087E-006  0.7962947E+02  0.7818608E-02  0.1430982E+00
          2   -1    0    0  502    0  0.00000000000E+00  0.00000000000E+00  0.18467231257E+04  0.18467231257E+04  0.00000000000E+00 0. -1.
          1   -1    0    0  501    0 -0.00000000000E+00 -0.00000000000E+00 -0.10804859754E+04  0.10804859754E+04  0.00000000000E+00 0. -1.
         25    2    1    2    0    0  0.58831483613E+02 -0.54409688064E+02  0.24263987350E+03  0.28446514295E+03  0.12499900688E+03 0.  0.
          2    1    1    2  501    0 -0.29798246857E+02  0.73887527392E+02 -0.10578822597E+04  0.10608780221E+04  0.00000000000E+00 0. -1.
          1    1    1    2  502    0 -0.29033236756E+02 -0.19477839328E+02  0.15814795366E+04  0.15818659361E+04  0.00000000000E+00 0. -1.
         22    1    3    3    0    0 -0.15054332121E+02  0.25881085257E+02  0.10292457668E+03  0.10719110026E+03  0.00000000000E+00 0. -1.
         22    1    3    3    0    0  0.73885815734E+02 -0.80290773321E+02  0.13971529682E+03  0.17727404270E+03  0.00000000000E+00 0. -1.
</event>
<event>
 7    1  0.5889087E-006  0.7867426E+02  0.7818608E-02  0.1341350E+00
          2   -1    0    0  502    0  0.00000000000E+00  0.00000000000E+00  0.17204592209E+04  0.17204592209E+04  0.00000000000E+00 0. -1.
          1   -1    0    0  501    0 -0.00000000000E+00 -0.00000000000E+00 -0.92364447063E+02  0.92364447063E+02  0.00000000000E+00 0. -1.
         25    2    1    2    0    0  0.28215717329E+02 -0.13293607463E+03  0.28816729924E+03  0.34224935084E+03  0.12500439654E+03 0.  0.
          2    1    1    2  501    0 -0.44639311160E+02  0.57848507839E+02 -0.43483976398E+02  0.85029254751E+02  0.00000000000E+00 0. -1.
          1    1    1    2  502    0  0.16423593831E+02  0.75087566790E+02  0.13834114510E+04  0.13855450623E+04  0.00000000000E+00 0. -1.
         22    1    3    3    0    0  0.47252085308E+02 -0.10249041878E+03  0.28460606586E+03  0.30616606317E+03  0.00000000000E+00 0.  1.
         22    1    3    3    0    0 -0.19036367979E+02 -0.30445655849E+02  0.35612333726E+01  0.36083287669E+02  0.00000000000E+00 0.  1.
</event>
<event>
 7    1  0.5889087E-006  0.3002654E+02  0.7818608E-02  0.1625051E+00
          2   -1    0    0  502    0  0.00000000000E+00  0.00000000000E+00  0.21112112473E+04  0.21112112473E+04  0.00000000000E+00 0. -1.
          1   -1    0    0  501    0 -0.00000000000E+00 -0.00000000000E+00 -0.30451777534E+03  0.30451777534E+03  0.00000000000E+00 0. -1.
         25    2    1    2    0    0 -0.29370371038E+02  0.16918541081E+02  0.31864088846E+03  0.34395737480E+03  0.12500321659E+03 0.  0.
          2    1    1    2  501    0  0.28778839958E+02  0.86205656410E+01 -0.29099449721E+03  0.29254116494E+03  0.00000000000E+00 0. -1.
          1    1    1    2  502    0  0.59153107993E+00 -0.25539106722E+02  0.17790470807E+04  0.17792304829E+04  0.00000000000E+00 0. -1.
         22    1    3    3    0    0  0.34963770205E+01 -0.29231531001E+02  0.26267367725E+03  0.26431830769E+03  0.00000000000E+00 0.  1.
         22    1    3    3    0    0 -0.32866748058E+02  0.46150072082E+02  0.55967211204E+02  0.79639067116E+02  0.00000000000E+00 0.  1.
</event>
<event>
 7    1  0.5889087E-006  0.1314362E+03  0.7818608E-02  0.1287045E+00
          2   -1    0    0  502    0  0.00000000000E+00  0.00000000000E+00  0.26845350490E+02  0.26845350490E+02  0.00000000000E+00 0. -1.
          1   -1    0    0  501    0 -0.00000000000E+00 -0.00000000000E+00 -0.36574038345E+04  0.36574038345E+04  0.00000000000E+00 0. -1.
         25    2    1    2    0    0 -0.84144520063E+02  0.12966631497E+03 -0.15422316187E+04  0.15549898675E+04  0.12498587448E+03 0.  0.
          2    1    1    2  501    0  0.11119158533E+03 -0.63612330044E+02 -0.20377669027E+04  0.20417894227E+04  0.00000000000E+00 0. -1.
          1    1    1    2  502    0 -0.27047065271E+02 -0.66053984922E+02 -0.50559962613E+02  0.87469894726E+02  0.00000000000E+00 0. -1.
         22    1    3    3    0    0 -0.52331397645E+02  0.69545175477E+02 -0.34435818034E+03  0.35518680012E+03  0.00000000000E+00 0. -1.
         22    1    3    3    0    0 -0.31813122418E+02  0.60121139489E+02 -0.11978734384E+04  0.11998030674E+04  0.00000000000E+00 0. -1.
</event>
<event>
 7    1  0.5889087E-006  0.7670271E+02  0.7818608E-02  0.1344820E+00
          2   -1    0    0  502    0  0.00000000000E+00  0.00000000000E+00  0.10511362964E+04  0.10511362964E+04  0.00000000000E+00 0. -1.
          1   -1    0    0  501    0 -0.00000000000E+00 -0.00000000000E+00 -0.43001039521E+03  0.43001039521E+03  0.00000000000E+00 0. -1.
         25    2    1    2    0    0  0.17876800542E+01  0.26880749423E+02  0.15493853428E+03  0.20089049016E+03  0.12500107657E+03 0.  0.
          2    1    1    2  501    0  0.75143941960E+02 -0.15384866553E+02 -0.40166588845E+03  0.40892394413E+03  0.00000000000E+00 0. -1.
          1    1    1    2  502    0 -0.76931622015E+02 -0.11495882870E+02  0.86785325539E+03  0.87133225734E+03  0.00000000000E+00 0. -1.
         22    1    3    3    0    0 -0.24840140010E+02 -0.82982235991E+01 -0.11573167283E+02  0.28632695849E+02  0.00000000000E+00 0.  1.
         22    1    3    3    0    0  0.26627820065E+02  0.35178973022E+02  0.16651170156E+03  0.17225779431E+03  0.00000000000E+00 0.  1.
</event>
<event>
 7    1  0.5889087E-006  0.1285813E+03  0.7818608E-02  0.1337817E+00
          2   -1    0    0  502    0  0.00000000000E+00  0.00000000000E+00  0.24117472773E+03  0.24117472773E+03  0.00000000000E+00 0. -1.
          1   -1    0    0  501    0 -0.00000000000E+00 -0.00000000000E+00 -0.20802202093E+03  0.20802202093E+03  0.00000000000E+00 0. -1.
         25    2    1    2    0    0 -0.80102080545E+02  0.97861026560E+02  0.80390222509E+02  0.19514358275E+03  0.12500122474E+03 0.  0.
          2    1    1    2  501    0  0.36209705270E+02  0.28530386577E+02 -0.10009054840E+03  0.11019638648E+03  0.00000000000E+00 0. -1.
          1    1    1    2  502    0  0.43892375275E+02 -0.12639141314E+03  0.52853032688E+02  0.14385677942E+03  0.00000000000E+00 0. -1.
         22    1    3    3    0    0 -0.91543388193E+02  0.66621622625E+02  0.56811275305E+01  0.11336184426E+03  0.00000000000E+00 0.  1.
         22    1    3    3    0    0  0.11441307648E+02  0.31239403935E+02  0.74709094978E+02  0.81781738496E+02  0.00000000000E+00 0.  1.
</event>
<event>
 7    1  0.5889087E-006  0.3836229E+02  0.7818608E-02  0.1557460E+00
          2   -1    0    0  502    0  0.00000000000E+00  0.00000000000E+00  0.22386948218E+04  0.22386948218E+04  0.00000000000E+00 0. -1.
          1   -1    0    0  501    0 -0.00000000000E+00 -0.00000000000E+00 -0.63445040087E+03  0.63445040087E+03  0.00000000000E+00 0. -1.
         25    2    1    2    0    0  0.31337557734E+02 -0.58874736499E+02  0.11992200290E+03  0.18561857218E+03  0.12499876174E+03 0.  0.
          2    1    1    2  501    0 -0.70994483144E+01  0.29325787701E+02 -0.60104859210E+03  0.60180546197E+03  0.00000000000E+00 0. -1.
          1    1    1    2  502    0 -0.24238109419E+02  0.29548948798E+02  0.20853710101E+04  0.20857211885E+04  0.00000000000E+00 0. -1.
         22    1    3    3    0    0 -0.11183992739E+02  0.27749316533E+02  0.71807439680E+02  0.77790839146E+02  0.00000000000E+00 0.  1.
         22    1    3    3    0    0  0.42521550472E+02 -0.86624053032E+02  0.48114563218E+02  0.10782773304E+03  0.00000000000E+00 0.  1.
</event>
<event>
 7    1  0.5889087E-006  0.5422337E+02  0.7818608E-02  0.1467907E+00
          2   -1    0    0  502    0  0.00000000000E+00  0.00000000000E+00  0.24672922727E+04  0.24672922727E+04  0.00000000000E+00 0. -1.
          1   -1    0    0  501    0 -0.00000000000E+00 -0.00000000000E+00 -0.55079750884E+02  0.55079750884E+02  0.00000000000E+00 0. -1.
         25    2    1    2    0    0 -0.17890757884E+02 -0.29538010385E+01  0.71011675413E+03  0.72126239351E+03  0.12499932657E+03 0.  0.
          2    1    1    2  501    0  0.46135311752E+02  0.29998083713E+02 -0.33925867508E+02  0.64647633391E+02  0.00000000000E+00 0. -1.
          1    1    1    2  502    0 -0.28244553868E+02 -0.27044282675E+02  0.17360216352E+04  0.17364619967E+04  0.00000000000E+00 0. -1.
         22    1    3    3    0    0 -0.36655917032E+02 -0.57738272018E+02  0.38838515017E+03  0.39436073484E+03  0.00000000000E+00 0.  1.
         22    1    3    3    0    0  0.18765159148E+02  0.54784470979E+02  0.32173160396E+03  0.32690165868E+03  0.00000000000E+00 0.  1.
</event>
<event>
 7    1  0.5889087E-006  0.8469613E+02  0.7818608E-02  0.1422434E+00
          2   -1    0    0  502    0  0.00000000000E+00  0.00000000000E+00  0.22769369055E+04  0.22769369055E+04  0.00000000000E+00 0. -1.
          1   -1    0    0  501    0 -0.00000000000E+00 -0.00000000000E+00 -0.38003772296E+02  0.38003772296E+02  0.00000000000E+00 0. -1.
         25    2    1    2    0    0  0.34064526685E+01  0.56674336048E+02  0.65074283853E+03  0.66506783847E+03  0.12500161432E+03 0.  0.
          2    1    1    2  501    0  0.15749555439E+02 -0.86064093009E+02  0.31808861646E+02  0.93096080912E+02  0.00000000000E+00 0. -1.
          1    1    1    2  502    0 -0.19156008107E+02  0.29389756961E+02  0.15563814330E+04  0.15567767584E+04  0.00000000000E+00 0. -1.
         22    1    3    3    0    0  0.33099347721E+02  0.17898192168E+02  0.51205774846E+02  0.63544814738E+02  0.00000000000E+00 0. -1.
         22    1    3    3    0    0 -0.29692895052E+02  0.38776143880E+02  0.59953706368E+03  0.60152302373E+03  0.00000000000E+00 0. -1.
</event>
<event>
 7    1  0.5889087E-006  0.1912625E+03  0.7818608E-02  0.1228182E+00
          2   -1    0    0  502    0  0.00000000000E+00  0.00000000000E+00  0.52733644418E+03  0.52733644418E+03  0.00000000000E+00 0. -1.
          1   -1    0    0  501    0 -0.00000000000E+00 -0.00000000000E+00 -0.49306924691E+03  0.49306924691E+03  0.00000000000E+00 0. -1.
         25    2    1    2    0    0  0.87339563028E+02  0.17746378425E+03  0.42481411781E+03  0.48498829052E+03  0.12500005302E+03 0.  0.
          2    1    1    2  501    0  0.55662998638E+02 -0.67767907985E+02 -0.33578964780E+03  0.34705265644E+03  0.00000000000E+00 0. -1.
          1    1    1    2  502    0 -0.14300256167E+03 -0.10969587627E+03 -0.54757272738E+02  0.18836474413E+03  0.00000000000E+00 0. -1.
         22    1    3    3    0    0 -0.21327258400E+02 -0.13425932815E+01  0.68775633297E+02  0.72019040837E+02  0.00000000000E+00 0. -1.
         22    1    3    3    0    0  0.10866682143E+03  0.17880637753E+03  0.35603848451E+03  0.41296924968E+03  0.00000000000E+00 0. -1.
</event>
<event>
 7    1  0.5889087E-006  0.5482930E+02  0.7818608E-02  0.1450126E+00
          2   -1    0    0  502    0  0.00000000000E+00  0.00000000000E+00  0.16583585735E+04  0.16583585735E+04  0.00000000000E+00 0. -1.
          1   -1    0    0  501    0 -0.00000000000E+00 -0.00000000000E+00 -0.13729859428E+03  0.13729859428E+03  0.00000000000E+00 0. -1.
         25    2    1    2    0    0 -0.84949199841E+01 -0.10931168245E+02  0.33878768304E+03  0.36137708497E+03  0.12499859704E+03 0.  0.
          2    1    1    2  501    0 -0.37799619146E+02 -0.22544118120E+02 -0.12151596159E+03  0.12924077294E+03  0.00000000000E+00 0. -1.
          1    1    1    2  502    0  0.46294539130E+02  0.33475286365E+02  0.13037882578E+04  0.13050393098E+04  0.00000000000E+00 0. -1.
         22    1    3    3    0    0  0.58177007494E+02 -0.10125576694E+02  0.15490236366E+03  0.16577645723E+03  0.00000000000E+00 0.  1.
         22    1    3    3    0    0 -0.66671927479E+02 -0.80559155157E+00  0.18388531938E+03  0.19560062775E+03  0.00000000000E+00 0.  1.
</event>
<event>
 7    1  0.5889087E-006  0.8644366E+02  0.7818608E-02  0.1437846E+00
          2   -1    0    0  502    0  0.00000000000E+00  0.00000000000E+00  0.22990667845E+04  0.22990667845E+04  0.00000000000E+00 0. -1.
          1   -1    0    0  501    0 -0.00000000000E+00 -0.00000000000E+00 -0.11565564112E+04  0.11565564112E+04  0.00000000000E+00 0. -1.
         25    2    1    2    0    0 -0.85346269854E+02  0.34036334861E+02  0.18741410454E+04  0.18805509609E+04  0.12499920217E+03 0.  0.
          2    1    1    2  501    0  0.23190623065E+02  0.19937667328E+02 -0.11491288845E+04  0.11495357797E+04  0.00000000000E+00 0. -1.
          1    1    1    2  502    0  0.62155646789E+02 -0.53974002189E+02  0.41749821231E+03  0.42553645510E+03  0.00000000000E+00 0. -1.
         22    1    3    3    0    0 -0.46169803721E+02 -0.28897635077E+02  0.31692718594E+03  0.32157357677E+03  0.00000000000E+00 0.  1.
         22    1    3    3    0    0 -0.39176466132E+02  0.62933969938E+02  0.15572138595E+04  0.15589773841E+04  0.00000000000E+00 0.  1.
</event>
<event>
 7    1  0.5889087E-006  0.7690400E+02  0.7818608E-02  0.1354137E+00
          2   -1    0    0  502    0  0.00000000000E+00  0.00000000000E+00  0.16579675219E+03  0.16579675219E+03  0.00000000000E+00 0. -1.
          1   -1    0    0  501    0 -0.00000000000E+00 -0.00000000000E+00 -0.36719471047E+03  0.36719471047E+03  0.00000000000E+00 0. -1.
         25    2    1    2    0    0  0.22426935754E+02 -0.66617325571E+01 -0.35317599502E+02  0.13198375797E+03  0.12500013362E+03 0.  0.
          2    1    1    2  501    0  0.10515080534E+02  0.76181748884E+02 -0.26486368143E+03  0.27580245743E+03  0.00000000000E+00 0. -1.
          1    1    1    2  502    0 -0.32942016288E+02 -0.69520016327E+02  0.98783322655E+02  0.12520524726E+03  0.00000000000E+00 0. -1.
         22    1    3    3    0    0 -0.26284474007E+02  0.13997207064E+02  0.33729852885E+02  0.44994425822E+02  0.00000000000E+00 0. -1.
         22    1    3    3    0    0  0.48711409760E+02 -0.20658939622E+02 -0.69047452387E+02  0.86989332152E+02  0.00000000000E+00 0. -1.
</event>
<event>
 7    1  0.5889087E-006  0.7233159E+02  0.7818608E-02  0.1364714E+00
          2   -1    0    0  502    0  0.00000000000E+00  0.00000000000E+00  0.18947489854E+04  0.18947489854E+04  0.00000000000E+00 0. -1.
          1   -1    0    0  501    0 -0.00000000000E+00 -0.00000000000E+00 -0.25966919811E+03  0.25966919811E+03  0.00000000000E+00 0. -1.
         25    2    1    2    0    0 -0.11521860640E+01  0.79992265189E+01  0.52187971352E+03  0.53670237788E+03  0.12500276750E+03 0.  0.
          2    1    1    2  501    0  0.69928253431E+02  0.18490475646E+02 -0.24605391765E+03  0.25646518030E+03  0.00000000000E+00 0. -1.
          1    1    1    2  502    0 -0.68776067367E+02 -0.26489702165E+02  0.13592539915E+04  0.13612506254E+04  0.00000000000E+00 0. -1.
         22    1    3    3    0    0 -0.51941479106E+02 -0.26052696742E+02  0.17283522240E+03  0.18234219029E+03  0.00000000000E+00 0. -1.
         22    1    3    3    0    0  0.50789293042E+02  0.34051923261E+02  0.34904449112E+03  0.35436018759E+03  0.00000000000E+00 0. -1.
</event>
<event>
 7    1  0.5889087E-006  0.2335802E+03  0.7818608E-02  0.1190690E+00
          2   -1    0    0  502    0  0.00000000000E+00  0.00000000000E+00  0.21914978060E+04  0.21914978060E+04  0.00000000000E+00 0. -1.
          1   -1    0    0  501    0 -0.00000000000E+00 -0.00000000000E+00 -0.55335070078E+03  0.55335070078E+03  0.00000000000E+00 0. -1.
         25    2    1    2    0    0  0.19213904890E+03  0.17686742458E+02  0.80742685799E+03  0.83952055786E+03  0.12500560419E+03 0.  0.
          2    1    1    2  501    0  0.74539901809E+02 -0.77057889884E+02 -0.51812038946E+03  0.52909626093E+03  0.00000000000E+00 0. -1.
          1    1    1    2  502    0 -0.26667895071E+03  0.59371147426E+02  0.13488406367E+04  0.13762316880E+04  0.00000000000E+00 0. -1.
         22    1    3    3    0    0  0.42643328358E+02 -0.46467450350E+02  0.16034307131E+03  0.17230083550E+03  0.00000000000E+00 0.  1.
         22    1    3    3    0    0  0.14949572054E+03  0.64154192808E+02  0.64708378668E+03  0.66721972236E+03  0.00000000000E+00 0.  1.
</event>
<event>
 7    1  0.5889087E-006  0.9889793E+02  0.7818608E-02  0.1330607E+00
          2   -1    0    0  502    0  0.00000000000E+00  0.00000000000E+00  0.97023707815E+03  0.97023707815E+03  0.00000000000E+00 0. -1.
          1   -1    0    0  501    0 -0.00000000000E+00 -0.00000000000E+00 -0.56875707502E+03  0.56875707502E+03  0.00000000000E+00 0. -1.
         25    2    1    2    0    0 -0.10443248732E+03  0.15717747372E+02  0.31912837569E+03  0.35863794002E+03  0.12500023944E+03 0.  0.
          2    1    1    2  501    0  0.87796169248E+02  0.45909456737E+02 -0.54289415911E+03  0.55186041129E+03  0.00000000000E+00 0. -1.
          1    1    1    2  502    0  0.16636318070E+02 -0.61627204109E+02  0.62524578655E+03  0.62849580187E+03  0.00000000000E+00 0. -1.
         22    1    3    3    0    0 -0.60245671873E+02 -0.17950344393E+02  0.41082253813E+02  0.75096653864E+02  0.00000000000E+00 0.  1.
         22    1    3    3    0    0 -0.44186815445E+02  0.33668091765E+02  0.27804612188E+03  0.28354128615E+03  0.00000000000E+00 0.  1.
</event>
<event>
 7    1  0.5889087E-006  0.8130765E+02  0.7818608E-02  0.1365752E+00
          2   -1    0    0  502    0  0.00000000000E+00  0.00000000000E+00  0.22129665646E+04  0.22129665646E+04  0.00000000000E+00 0. -1.
          1   -1    0    0  501    0 -0.00000000000E+00 -0.00000000000E+00 -0.63594879839E+03  0.63594879839E+03  0.00000000000E+00 0. -1.
         25    2    1    2    0    0  0.79043931795E+02  0.10382066788E+03 -0.12680685930E+03  0.22075025685E+03  0.12499608834E+03 0.  0.
          2    1    1    2  501    0 -0.60429182707E+02 -0.49440103757E+02 -0.45848811906E+03  0.46508855640E+03  0.00000000000E+00 0. -1.
          1    1    1    2  502    0 -0.18614749088E+02 -0.54380564126E+02  0.21623127446E+04  0.21630765498E+04  0.00000000000E+00 0. -1.
         22    1    3    3    0    0  0.38765123598E+02  0.12472973274E+03 -0.11458061179E+03  0.17374969823E+03  0.00000000000E+00 0.  1.
         22    1    3    3    0    0  0.40278808197E+02 -0.20909064855E+02 -0.12226247515E+02  0.47000558626E+02  0.00000000000E+00 0.  1.
</event>
<event>
 7    1  0.5889087E-006  0.6790235E+02  0.7818608E-02  0.1477004E+00
          2   -1    0    0  502    0  0.00000000000E+00  0.00000000000E+00  0.33473437465E+03  0.33473437465E+03  0.00000000000E+00 0. -1.
          1   -1    0    0  501    0 -0.00000000000E+00 -0.00000000000E+00 -0.43708772881E+03  0.43708772881E+03  0.00000000000E+00 0. -1.
         25    2    1    2    0    0 -0.59723442855E+02  0.49607278980E+02 -0.54975667815E+02  0.15708395507E+03  0.12500109253E+03 0.  0.
          2    1    1    2  501    0 -0.47606685111E+01 -0.28873449818E+02 -0.32635051432E+03  0.32765988199E+03  0.00000000000E+00 0. -1.
          1    1    1    2  502    0  0.64484111366E+02 -0.20733829162E+02  0.27897282797E+03  0.28707826640E+03  0.00000000000E+00 0. -1.
         22    1    3    3    0    0 -0.69783702356E+01 -0.27643534551E+02  0.21945112965E+02  0.35978474629E+02  0.00000000000E+00 0.  1.
         22    1    3    3    0    0 -0.52745072620E+02  0.77250813531E+02 -0.76920780780E+02  0.12110548044E+03  0.00000000000E+00 0.  1.
</event>
<event>
 7    1  0.5889087E-006  0.2898869E+03  0.7818608E-02  0.1097311E+00
          2   -1    0    0  502    0  0.00000000000E+00  0.00000000000E+00  0.17476956847E+04  0.17476956847E+04  0.00000000000E+00 0. -1.
          1   -1    0    0  501    0 -0.00000000000E+00 -0.00000000000E+00 -0.53489040602E+03  0.53489040602E+03  0.00000000000E+00 0. -1.
         25    2    1    2    0    0 -0.50242521440E+02 -0.78843695692E+02 -0.15525656678E+02  0.15686660813E+03  0.12500178967E+03 0.  0.
          2    1    1    2  501    0 -0.26293574030E+03 -0.31223056491E+02 -0.39127350446E+03  0.47244580438E+03  0.00000000000E+00 0. -1.
          1    1    1    2  502    0  0.31317826174E+03  0.11006675218E+03  0.16196044398E+04  0.16532736782E+04  0.00000000000E+00 0. -1.
         22    1    3    3    0    0 -0.50798677128E+02  0.32666517316E+01  0.33776373406E+02  0.61090261187E+02  0.00000000000E+00 0.  1.
         22    1    3    3    0    0  0.55615568803E+00 -0.82110347424E+02 -0.49302030084E+02  0.95776346942E+02  0.00000000000E+00 0.  1.
</event>
<event>
 7    1  0.5889087E-006  0.1717132E+03  0.7818608E-02  0.1322166E+00
          2   -1    0    0  502    0  0.00000000000E+00  0.00000000000E+00  0.72645433395E+03  0.72645433395E+03  0.00000000000E+00 0. -1.
          1   -1    0    0  501    0 -0.00000000000E+00 -0.00000000000E+00 -0.27038610747E+03  0.27038610747E+03  0.00000000000E+00 0. -1.
         25    2    1    2    0    0 -0.11793882774E+03  0.72128390876E+02 -0.37207191119E+02  0.19005629017E+03  0.12499978601E+03 0.  0.
          2    1    1    2  501    0 -0.39246395085E+02  0.53928736740E+01 -0.14218353298E+03  0.14759918585E+03  0.00000000000E+00 0. -1.
          1    1    1    2  502    0  0.15718522283E+03 -0.77521264550E+02  0.63545895058E+03  0.65918496540E+03  0.00000000000E+00 0. -1.
         22    1    3    3    0    0 -0.32432846134E+02 -0.30319878480E+02 -0.35100508887E+02  0.56597087058E+02  0.00000000000E+00 0. -1.
         22    1    3    3    0    0 -0.85505981607E+02  0.10244826936E+03 -0.21066822321E+01  0.13345920311E+03  0.00000000000E+00 0. -1.
</event>
<event>
 7    1  0.5889087E-006  0.3991015E+02  0.7818608E-02  0.1613530E+00
          2   -1    0    0  502    0  0.00000000000E+00  0.00000000000E+00  0.12031213898E+04  0.12031213898E+04  0.00000000000E+00 0. -1.
          1   -1    0    0  501    0 -0.00000000000E+00 -0.00000000000E+00 -0.60593798887E+03  0.60593798887E+03  0.00000000000E+00 0. -1.
         25    2    1    2    0    0 -0.16222082984E+02  0.27488476188E+02  0.49648541716E+03  0.51297327851E+03  0.12500017089E+03 0.  0.
          2    1    1    2  501    0  0.35026416683E+02 -0.19164720809E+02 -0.59687557918E+03  0.59820948957E+03  0.00000000000E+00 0. -1.
          1    1    1    2  502    0 -0.18804333698E+02 -0.83237553795E+01  0.69757356294E+03  0.69787661057E+03  0.00000000000E+00 0. -1.
         22    1    3    3    0    0 -0.62271636685E+02  0.43774265229E+02  0.23676689506E+03  0.24870163978E+03  0.00000000000E+00 0. -1.
         22    1    3    3    0    0  0.46049553700E+02 -0.16285789041E+02  0.25971852210E+03  0.26427163874E+03  0.00000000000E+00 0. -1.
</event>
<event>
 7    1  0.5889087E-006  0.1180149E+03  0.7818608E-02  0.1309675E+00
          2   -1    0    0  502    0  0.00000000000E+00  0.00000000000E+00  0.16293452544E+04  0.16293452544E+04  0.00000000000E+00 0. -1.
          1   -1    0    0  501    0 -0.00000000000E+00 -0.00000000000E+00 -0.15824569517E+04  0.15824569517E+04  0.00000000000E+00 0. -1.
         25    2    1    2    0    0 -0.26669263561E+02  0.10103313971E+03  0.28619850448E+03  0.32932289609E+03  0.12500016395E+03 0.  0.
          2    1    1    2  501    0 -0.61997571282E+02 -0.17759328456E+02 -0.15574270291E+04  0.15587617020E+04  0.00000000000E+00 0. -1.
          1    1    1    2  502    0  0.88666834843E+02 -0.83273811249E+02  0.13181168273E+04  0.13237176080E+04  0.00000000000E+00 0. -1.
         22    1    3    3    0    0 -0.26566976453E+02  0.71952944117E+00  0.56091298018E+00  0.26582636886E+02  0.00000000000E+00 0. -1.
         22    1    3    3    0    0 -0.10228710807E+00  0.10031361026E+03  0.28563759150E+03  0.30274025921E+03  0.00000000000E+00 0. -1.
</event>
<event>
 7    1  0.5889087E-006  0.9562904E+02  0.7818608E-02  0.1458306E+00
          2   -1    0    0  502    0  0.00000000000E+00  0.00000000000E+00  0.56955969863E+03  0.56955969863E+03  0.00000000000E+00 0. -1.
          1   -1    0    0  501    0 -0.00000000000E+00 -0.00000000000E+00 -0.13010676229E+03  0.13010676229E+03  0.00000000000E+00 0. -1.
         25    2    1    2    0    0  0.11071447438E+03  0.34185031374E+02 -0.22903061831E+02  0.17197630239E+03  0.12499994854E+03 0.  0.
          2    1    1    2  501    0 -0.17826379866E+02 -0.15719330712E+02 -0.23063708662E+02  0.33118149622E+02  0.00000000000E+00 0. -1.
          1    1    1    2  502    0 -0.92888094518E+02 -0.18465700662E+02  0.48541970684E+03  0.49457200890E+03  0.00000000000E+00 0. -1.
         22    1    3    3    0    0  0.95452185961E+02  0.52095114111E+02  0.31071902332E+02  0.11309502126E+03  0.00000000000E+00 0.  1.
         22    1    3    3    0    0  0.15262288424E+02 -0.17910082737E+02 -0.53974964163E+02  0.58881281134E+02  0.00000000000E+00 0.  1.
</event>
<event>
 7    1  0.5889087E-006  0.3740431E+02  0.7818608E-02  0.1537455E+00
          2   -1    0    0  502    0  0.00000000000E+00  0.00000000000E+00  0.11867310695E+04  0.11867310695E+04  0.00000000000E+00 0. -1.
          1   -1    0    0  501    0 -0.00000000000E+00 -0.00000000000E+00 -0.17801881544E+03  0.17801881544E+03  0.00000000000E+00 0. -1.
         25    2    1    2    0    0  0.54063850605E+02 -0.10257527909E+02  0.79942230956E+01  0.13680480223E+03  0.12499411782E+03 0.  0.
          2    1    1    2  501    0 -0.32669538748E+02 -0.17699912735E+02 -0.11028934708E+03  0.11638009174E+03  0.00000000000E+00 0. -1.
          1    1    1    2  502    0 -0.21394311856E+02  0.27957440644E+02  0.11110073781E+04  0.11115649910E+04  0.00000000000E+00 0. -1.
         22    1    3    3    0    0  0.38181072180E+02 -0.67282123015E+02  0.35183960115E+01  0.77440670585E+02  0.00000000000E+00 0.  1.
         22    1    3    3    0    0  0.15882778425E+02  0.57024595106E+02  0.44758270841E+01  0.59364131642E+02  0.00000000000E+00 0.  1.
</event>
<event>
 7    1  0.5889087E-006  0.1111777E+03  0.7818608E-02  0.1303552E+00
          2   -1    0    0  502    0  0.00000000000E+00  0.00000000000E+00  0.15122792973E+04  0.15122792973E+04  0.00000000000E+00 0. -1.
          1   -1    0    0  501    0 -0.00000000000E+00 -0.00000000000E+00 -0.58207921553E+03  0.58207921553E+03  0.00000000000E+00 0. -1.
         25    2    1    2    0    0  0.11128364834E+03  0.94680119012E+02  0.13692726907E+03  0.23605373108E+03  0.12499564641E+03 0.  0.
          2    1    1    2  501    0 -0.71901573795E+02  0.83966106613E+01 -0.52774489886E+03  0.53268660360E+03  0.00000000000E+00 0. -1.
          1    1    1    2  502    0 -0.39382074544E+02 -0.10307672967E+03  0.13210177116E+04  0.13256181782E+04  0.00000000000E+00 0. -1.
         22    1    3    3    0    0  0.12207815089E+03  0.40612407404E+02  0.61435557228E+02  0.14257198270E+03  0.00000000000E+00 0. -1.
         22    1    3    3    0    0 -0.10794502551E+02  0.54067711609E+02  0.75491711841E+02  0.93481748382E+02  0.00000000000E+00 0. -1.
</event>
<event>
 7    1  0.5889087E-006  0.3200147E+02  0.7818608E-02  0.1628205E+00
          2   -1    0    0  502    0  0.00000000000E+00  0.00000000000E+00  0.69655966552E+03  0.69655966552E+03  0.00000000000E+00 0. -1.
          1   -1    0    0  501    0 -0.00000000000E+00 -0.00000000000E+00 -0.43602009908E+03  0.43602009908E+03  0.00000000000E+00 0. -1.
         25    2    1    2    0    0 -0.12849149762E+02  0.25796072480E+01 -0.13471995394E+03  0.18424751287E+03  0.12500369989E+03 0.  0.
          2    1    1    2  501    0 -0.15331351622E+02 -0.17854552480E+02 -0.27565233942E+03  0.27665510589E+03  0.00000000000E+00 0. -1.
          1    1    1    2  502    0  0.28180501384E+02  0.15274945232E+02  0.67091185980E+03  0.67167714583E+03  0.00000000000E+00 0. -1.
         22    1    3    3    0    0 -0.60197946431E+02  0.45451491491E+00 -0.25863658423E+02  0.65520440821E+02  0.00000000000E+00 0.  1.
         22    1    3    3    0    0  0.47348796670E+02  0.21250923331E+01 -0.10885629552E+03  0.11872707205E+03  0.00000000000E+00 0.  1.
</event>
<event>
 7    1  0.5889087E-006  0.6813834E+02  0.7818608E-02  0.1438387E+00
          2   -1    0    0  502    0  0.00000000000E+00  0.00000000000E+00  0.64243851305E+03  0.64243851305E+03  0.00000000000E+00 0. -1.
          1   -1    0    0  501    0 -0.00000000000E+00 -0.00000000000E+00 -0.21318989109E+03  0.21318989109E+03  0.00000000000E+00 0. -1.
         25    2    1    2    0    0 -0.16944584505E+02 -0.91638011348E+02 -0.24214833371E+02  0.15778538795E+03  0.12500090571E+03 0.  0.
          2    1    1    2  501    0 -0.10641197651E+02  0.64578373185E+02 -0.11271948875E+03  0.13034294961E+03  0.00000000000E+00 0. -1.
          1    1    1    2  502    0  0.27585782157E+02  0.27059638163E+02  0.56618294408E+03  0.56750006657E+03  0.00000000000E+00 0. -1.
         22    1    3    3    0    0  0.52008143998E+02 -0.41427981011E+02 -0.28587733355E+02  0.72376675464E+02  0.00000000000E+00 0. -1.
         22    1    3    3    0    0 -0.68952728504E+02 -0.50210030337E+02  0.43728999842E+01  0.85408712488E+02  0.00000000000E+00 0. -1.
</event>
<event>
 7    1  0.5889087E-006  0.1639857E+03  0.7818608E-02  0.1276986E+00
          2   -1    0    0  502    0  0.00000000000E+00  0.00000000000E+00  0.96557624454E+03  0.96557624454E+03  0.00000000000E+00 0. -1.
          1   -1    0    0  501    0 -0.00000000000E+00 -0.00000000000E+00 -0.11462947188E+04  0.11462947188E+04  0.00000000000E+00 0. -1.
         25    2    1    2    0    0 -0.95814944527E+02 -0.13221526371E+03  0.70287980926E+03  0.73234270348E+03  0.12499771810E+03 0.  0.
          2    1    1    2  501    0 -0.49882456671E+02  0.38376652018E+02 -0.11002738865E+04  0.11020724351E+04  0.00000000000E+00 0. -1.
          1    1    1    2  502    0  0.14569740120E+03  0.93838611694E+02  0.21667560298E+03  0.27745582475E+03  0.00000000000E+00 0. -1.
         22    1    3    3    0    0 -0.55087306885E+02  0.10797095848E+02  0.16502792935E+03  0.17431410191E+03  0.00000000000E+00 0. -1.
         22    1    3    3    0    0 -0.40727637642E+02 -0.14301235956E+03  0.53785187991E+03  0.55802860157E+03  0.00000000000E+00 0. -1.
</event>
<event>
 7    1  0.5889087E-006  0.1362228E+03  0.7818608E-02  0.1269357E+00
          2   -1    0    0  502    0  0.00000000000E+00  0.00000000000E+00  0.85672816208E+02  0.85672816208E+02  0.00000000000E+00 0. -1.
          1   -1    0    0  501    0 -0.00000000000E+00 -0.00000000000E+00 -0.25765398781E+04  0.25765398781E+04  0.00000000000E+00 0. -1.
         25    2    1    2    0    0 -0.15929079352E+03  0.77849336879E+02 -0.14818099319E+04  0.14976045533E+04  0.12499858966E+03 0.  0.
          2    1    1    2  501    0  0.12192002385E+03 -0.53852563122E+01 -0.10609604987E+04  0.10679563067E+04  0.00000000000E+00 0. -1.
          1    1    1    2  502    0  0.37370769671E+02 -0.72464080567E+02  0.51903368739E+02  0.96651834358E+02  0.00000000000E+00 0. -1.
         22    1    3    3    0    0  0.11717929634E+02  0.25913059872E+02 -0.90515788950E+02  0.94878367377E+02  0.00000000000E+00 0.  1.
         22    1    3    3    0    0 -0.17100872316E+03  0.51936277007E+02 -0.13912941430E+04  0.14027261859E+04  0.00000000000E+00 0.  1.
</event>
<event>
 7    1  0.5889087E-006  0.1301357E+03  0.7818608E-02  0.1303910E+00
          2   -1    0    0  502    0  0.00000000000E+00  0.00000000000E+00  0.35750290182E+04  0.35750290182E+04  0.00000000000E+00 0. -1.
          1   -1    0    0  501    0 -0.00000000000E+00 -0.00000000000E+00 -0.15147456984E+03  0.15147456984E+03  0.00000000000E+00 0. -1.
         25    2    1    2    0    0  0.17447290662E+03  0.71551194157E+02  0.20703810596E+04  0.20827057333E+04  0.12500028331E+03 0.  0.
          2    1    1    2  501    0 -0.12430174064E+03 -0.35738659764E+02 -0.11575754207E+03  0.17357414287E+03  0.00000000000E+00 0. -1.
          1    1    1    2  502    0 -0.50171165985E+02 -0.35812534393E+02  0.14689309308E+04  0.14702237119E+04  0.00000000000E+00 0. -1.
         22    1    3    3    0    0  0.17888796320E+03  0.35424483710E+02  0.18839343430E+04  0.18927399204E+04  0.00000000000E+00 0. -1.
         22    1    3    3    0    0 -0.44150565767E+01  0.36126710447E+02  0.18644671660E+03  0.18996581288E+03  0.00000000000E+00 0. -1.
</event>
<event>
 7    1  0.5889087E-006  0.4056817E+02  0.7818608E-02  0.1611164E+00
          2   -1    0    0  502    0  0.00000000000E+00  0.00000000000E+00  0.11174118888E+04  0.11174118888E+04  0.00000000000E+00 0. -1.
          1   -1    0    0  501    0 -0.00000000000E+00 -0.00000000000E+00 -0.91345939436E+03  0.91345939436E+03  0.00000000000E+00 0. -1.
         25    2    1    2    0    0  0.16316287753E+01 -0.54404489459E+02  0.14202955320E+03  0.19687581682E+03  0.12500073033E+03 0.  0.
          2    1    1    2  501    0 -0.14007012429E+02  0.38041105537E+02 -0.88546147336E+03  0.88638893434E+03  0.00000000000E+00 0. -1.
          1    1    1    2  502    0  0.12375383654E+02  0.16363383922E+02  0.94738441457E+03  0.94760653196E+03  0.00000000000E+00 0. -1.
         22    1    3    3    0    0  0.54704580616E+02 -0.12005175888E+02  0.24507174063E+02  0.61133599346E+02  0.00000000000E+00 0.  1.
         22    1    3    3    0    0 -0.53072951841E+02 -0.42399313571E+02  0.11752237913E+03  0.13574221748E+03  0.00000000000E+00 0.  1.
</event>
<event>
 7    1  0.5889087E-006  0.6641552E+02  0.7818608E-02  0.1489756E+00
          2   -1    0    0  502    0  0.00000000000E+00  0.00000000000E+00  0.49867728541E+02  0.49867728541E+02  0.00000000000E+00 0. -1.
          1   -1    0    0  501    0 -0.00000000000E+00 -0.00000000000E+00 -0.18036219080E+04  0.18036219080E+04  0.00000000000E+00 0. -1.
         25    2    1    2    0    0 -0.44830562165E+02 -0.79802620440E+02 -0.49535752321E+03  0.51902040452E+03  0.12499946787E+03 0.  0.
          2    1    1    2  501    0  0.35536774675E+02  0.54077096661E+02 -0.12905977570E+04  0.12922189308E+04  0.00000000000E+00 0. -1.
          1    1    1    2  502    0  0.92937874902E+01  0.25725523779E+02  0.32201100783E+02  0.42250301197E+02  0.00000000000E+00 0. -1.
         22    1    3    3    0    0 -0.69890325998E+02 -0.25787184336E+02 -0.13882867580E+03  0.15755328549E+03  0.00000000000E+00 0.  1.
         22    1    3    3    0    0  0.25059763833E+02 -0.54015436104E+02 -0.35652884741E+03  0.36146711903E+03  0.00000000000E+00 0.  1.
</event>
<event>
 7    1  0.5889087E-006  0.2113665E+03  0.7818608E-02  0.1283176E+00
          2   -1    0    0  502    0  0.00000000000E+00  0.00000000000E+00  0.26151508940E+04  0.26151508940E+04  0.00000000000E+00 0. -1.
          1   -1    0    0  501    0 -0.00000000000E+00 -0.00000000000E+00 -0.14723045827E+03  0.14723045827E+03  0.00000000000E+00 0. -1.
         25    2    1    2    0    0 -0.16420671459E+03  0.92320193571E+02  0.55208696872E+03  0.59658311567E+03  0.12499811843E+03 0.  0.
          2    1    1    2  501    0 -0.41457478837E+02 -0.20014065235E+02 -0.11470098368E+03  0.12359450237E+03  0.00000000000E+00 0. -1.
          1    1    1    2  502    0  0.20566419343E+03 -0.72306128336E+02  0.20305344507E+04  0.20422037342E+04  0.00000000000E+00 0. -1.
         22    1    3    3    0    0 -0.80059163673E+02  0.10489567552E+03  0.24929859963E+03  0.28206801344E+03  0.00000000000E+00 0. -1.
         22    1    3    3    0    0 -0.84147550921E+02 -0.12575481945E+02  0.30278836909E+03  0.31451510223E+03  0.00000000000E+00 0. -1.
</event>
<event>
 7    1  0.5889087E-006  0.1658983E+03  0.7818608E-02  0.1199280E+00
          2   -1    0    0  502    0  0.00000000000E+00  0.00000000000E+00  0.29109771058E+03  0.29109771058E+03  0.00000000000E+00 0. -1.
          1   -1    0    0  501    0 -0.00000000000E+00 -0.00000000000E+00 -0.81327564462E+03  0.81327564462E+03  0.00000000000E+00 0. -1.
         25    2    1    2    0    0 -0.13477489529E+03 -0.78938124219E+02 -0.34095308407E+03  0.39530886763E+03  0.12499838172E+03 0.  0.
          2    1    1    2  501    0  0.10460672493E+03 -0.89075321183E+02 -0.40496804965E+03  0.42764015361E+03  0.00000000000E+00 0. -1.
          1    1    1    2  502    0  0.30168170364E+02  0.16801344540E+03  0.22374319969E+03  0.28142433396E+03  0.00000000000E+00 0. -1.
         22    1    3    3    0    0  0.45717507046E+01  0.98676904944E+01  0.49618925217E+01  0.11953769179E+02  0.00000000000E+00 0.  1.
         22    1    3    3    0    0 -0.13934664599E+03 -0.88805814714E+02 -0.34591497660E+03  0.38335509845E+03  0.00000000000E+00 0.  1.
</event>
<event>
 7    1  0.5889087E-006  0.1109080E+03  0.7818608E-02  0.1318062E+00
          2   -1    0    0  502    0  0.00000000000E+00  0.00000000000E+00  0.67931871831E+03  0.67931871831E+03  0.00000000000E+00 0. -1.
          1   -1    0    0  501    0 -0.00000000000E+00 -0.00000000000E+00 -0.43087602077E+03  0.43087602077E+03  0.00000000000E+00 0. -1.
         25    2    1    2    0    0 -0.98233121527E+00 -0.14127708188E+03  0.39306555962E+02  0.19269272160E+03  0.12500120311E+03 0.  0.
          2    1    1    2  501    0  0.48082479652E+02  0.98503296368E+02 -0.34383426394E+03  0.36088339572E+03  0.00000000000E+00 0. -1.
          1    1    1    2  502    0 -0.47100148437E+02  0.42773785509E+02  0.55297040552E+03  0.55661862176E+03  0.00000000000E+00 0. -1.
         22    1    3    3    0    0 -0.60909921459E+02 -0.94945601845E+02  0.20621543333E+02  0.11467316116E+03  0.00000000000E+00 0.  1.
         22    1    3    3    0    0  0.59927590244E+02 -0.46331480031E+02  0.18685012628E+02  0.78019560440E+02  0.00000000000E+00 0.  1.
</event>
<event>
 7    1  0.5889087E-006  0.1970933E+03  0.7818608E-02  0.1237417E+00
          2   -1    0    0  502    0  0.00000000000E+00  0.00000000000E+00  0.52603898068E+03  0.52603898068E+03  0.00000000000E+00 0. -1.
          1   -1    0    0  501    0 -0.00000000000E+00 -0.00000000000E+00 -0.26032848894E+03  0.26032848894E+03  0.00000000000E+00 0. -1.
         25    2    1    2    0    0  0.24408006025E+03 -0.20842932873E+02 -0.25394317090E+02  0.27618541137E+03  0.12499602574E+03 0.  0.
          2    1    1    2  501    0 -0.16770131003E+03  0.33363905098E+02 -0.35412750426E+02  0.17461655833E+03  0.00000000000E+00 0. -1.
          1    1    1    2  502    0 -0.76378750220E+02 -0.12520972225E+02  0.32651755926E+03  0.33556549992E+03  0.00000000000E+00 0. -1.
         22    1    3    3    0    0  0.83750037617E+02  0.13017867291E+01 -0.69046132660E+02  0.10855013535E+03  0.00000000000E+00 0. -1.
         22    1    3    3    0    0  0.16033002263E+03 -0.22144719602E+02  0.43651815570E+02  0.16763527602E+03  0.00000000000E+00 0. -1.
</event>
<event>
 7    1  0.5889087E-006  0.6217654E+02  0.7818608E-02  0.1463108E+00
          2   -1    0    0  502    0  0.00000000000E+00  0.00000000000E+00  0.89940809704E+03  0.89940809704E+03  0.00000000000E+00 0. -1.
          1   -1    0    0  501    0 -0.00000000000E+00 -0.00000000000E+00 -0.94486340350E+03  0.94486340350E+03  0.00000000000E+00 0. -1.
         25    2    1    2    0    0 -0.61323461851E+02 -0.74011955266E+02  0.38185372119E+03  0.41312894329E+03  0.12499969160E+03 0.  0.
          2    1    1    2  501    0  0.33510370724E+02  0.52270401054E+02 -0.92756586812E+03  0.92964164035E+03  0.00000000000E+00 0. -1.
          1    1    1    2  502    0  0.27813091127E+02  0.21741554211E+02  0.50025684047E+03  0.50150091690E+03  0.00000000000E+00 0. -1.
         22    1    3    3    0    0 -0.66826964099E+02 -0.10189873381E+03  0.24837760438E+03  0.27665977200E+03  0.00000000000E+00 0.  1.
         22    1    3    3    0    0  0.55035022478E+01  0.27886778545E+02  0.13347611681E+03  0.13646917129E+03  0.00000000000E+00 0.  1.
</event>
<event>
 7    1  0.5889087E-006  0.1099414E+03  0.7818608E-02  0.1309750E+00
          2   -1    0    0  502    0  0.00000000000E+00  0.00000000000E+00  0.41162789830E+03  0.41162789830E+03  0.00000000000E+00 0. -1.
          1   -1    0    0  501    0 -0.00000000000E+00 -0.00000000000E+00 -0.11839119670E+04  0.11839119670E+04  0.00000000000E+00 0. -1.
         25    2    1    2    0    0 -0.51507076536E+02  0.13221801994E+03 -0.15047742815E+03  0.24166755592E+03  0.12500066988E+03 0.  0.
          2    1    1    2  501    0 -0.13314440975E+02 -0.10805091724E+03 -0.98153404076E+03  0.98755321286E+03  0.00000000000E+00 0. -1.
          1    1    1    2  502    0  0.64821517511E+02 -0.24167102699E+02  0.35972740023E+03  0.36631909650E+03  0.00000000000E+00 0. -1.
         22    1    3    3    0    0  0.21934265513E+02  0.80055083461E+02 -0.24029219287E+02  0.86413724438E+02  0.00000000000E+00 0. -1.
         22    1    3    3    0    0 -0.73441342049E+02  0.52162936475E+02 -0.12644820887E+03  0.15525383148E+03  0.00000000000E+00 0. -1.
</event>
<event>
 7    1  0.5889087E-006  0.8504699E+02  0.7818608E-02  0.1444630E+00
          2   -1    0    0  502    0  0.00000000000E+00  0.00000000000E+00  0.69189857866E+03  0.69189857866E+03  0.00000000000E+00 0. -1.
          1   -1    0    0  501    0 -0.00000000000E+00 -0.00000000000E+00 -0.18659607022E+03  0.18659607022E+03  0.00000000000E+00 0. -1.
         25    2    1    2    0    0 -0.10097312166E+02  0.67765151524E+02  0.14464349542E+02  0.14328996019E+03  0.12501489435E+03 0.  0.
          2    1    1    2  501    0 -0.11259945288E+02 -0.88188947941E+02 -0.10559630385E+03  0.13803860436E+03  0.00000000000E+00 0. -1.
          1    1    1    2  502    0  0.21357257454E+02  0.20423796417E+02  0.59643446275E+03  0.59716608432E+03  0.00000000000E+00 0. -1.
         22    1    3    3    0    0  0.44161670642E+02 -0.73452033737E+01 -0.13051771468E+02  0.46632112379E+02  0.00000000000E+00 0.  1.
         22    1    3    3    0    0 -0.54258982808E+02  0.75110354897E+02  0.27516121010E+02  0.96657847812E+02  0.00000000000E+00 0.  1.
</event>
<event>
 7    1  0.5889087E-006  0.5085826E+02  0.7818608E-02  0.1499310E+00
          2   -1    0    0  502    0  0.00000000000E+00  0.00000000000E+00  0.19540579690E+04  0.19540579690E+04  0.00000000000E+00 0. -1.
          1   -1    0    0  501    0 -0.00000000000E+00 -0.00000000000E+00 -0.55792042166E+02  0.55792042166E+02  0.00000000000E+00 0. -1.
         25    2    1    2    0    0  0.13855208560E+02  0.21352107195E+02  0.70161857984E+03  0.71312137760E+03  0.12500235334E+03 0.  0.
          2    1    1    2  501    0 -0.47269896712E+02 -0.20225187385E+02 -0.36547236870E+02  0.63080915203E+02  0.00000000000E+00 0. -1.
          1    1    1    2  502    0  0.33414688152E+02 -0.11269198097E+01  0.12331945838E+04  0.12336477183E+04  0.00000000000E+00 0. -1.
         22    1    3    3    0    0  0.29713417033E+02  0.47217606243E+02  0.65579711194E+03  0.65816581613E+03  0.00000000000E+00 0. -1.
         22    1    3    3    0    0 -0.15858208473E+02 -0.25865499048E+02  0.45821467895E+02  0.54955561475E+02  0.00000000000E+00 0. -1.
</event>
<event>
 7    1  0.5889087E-006  0.1023670E+03  0.7818608E-02  0.1395151E+00
          2   -1    0    0  502    0  0.00000000000E+00  0.00000000000E+00  0.32223568874E+03  0.32223568874E+03  0.00000000000E+00 0. -1.
          1   -1    0    0  501    0 -0.00000000000E+00 -0.00000000000E+00 -0.62813289320E+03  0.62813289320E+03  0.00000000000E+00 0. -1.
         25    2    1    2    0    0 -0.20002723586E+02 -0.87919613673E+02  0.10120123288E+03  0.18438044528E+03  0.12499796656E+03 0.  0.
          2    1    1    2  501    0 -0.35532699291E+02 -0.53013802147E+01 -0.56952154527E+03  0.57065354452E+03  0.00000000000E+00 0. -1.
          1    1    1    2  502    0  0.55535422876E+02  0.93220993888E+02  0.16242310793E+03  0.19533459214E+03  0.00000000000E+00 0. -1.
         22    1    3    3    0    0  0.47230590218E+02 -0.19290540390E+02  0.10156040785E+02  0.52019215347E+02  0.00000000000E+00 0.  1.
         22    1    3    3    0    0 -0.67233313804E+02 -0.68629073283E+02  0.91045192094E+02  0.13236122993E+03  0.00000000000E+00 0.  1.
</event>
<event>
 7    1  0.5889087E-006  0.1894163E+03  0.7818608E-02  0.1196984E+00
          2   -1    0    0  502    0  0.00000000000E+00  0.00000000000E+00  0.60536124608E+03  0.60536124608E+03  0.00000000000E+00 0. -1.
          1   -1    0    0  501    0 -0.00000000000E+00 -0.00000000000E+00 -0.15136416851E+04  0.15136416851E+04  0.00000000000E+00 0. -1.
         25    2    1    2    0    0  0.11623839305E+03 -0.17932921588E+01  0.14463690434E+03  0.22373973380E+03  0.12500021786E+03 0.  0.
          2    1    1    2  501    0 -0.15425590460E+03 -0.11558617531E+03 -0.14585750981E+04  0.14712567298E+04  0.00000000000E+00 0. -1.
          1    1    1    2  502    0  0.38017511552E+02  0.11737946747E+03  0.40565775477E+03  0.42400646761E+03  0.00000000000E+00 0. -1.
         22    1    3    3    0    0  0.78723748804E+02  0.42811480703E+02  0.13873361578E+03  0.16515831088E+03  0.00000000000E+00 0. -1.
         22    1    3    3    0    0  0.37514644247E+02 -0.44604772862E+02  0.59032885647E+01  0.58581422916E+02  0.00000000000E+00 0. -1.
</event>
<event>
 7    1  0.5889087E-006  0.8098329E+02  0.7818608E-02  0.1468988E+00
          2   -1    0    0  502    0  0.00000000000E+00  0.00000000000E+00  0.23271098530E+03  0.23271098530E+03  0.00000000000E+00 0. -1.
          1   -1    0    0  501    0 -0.00000000000E+00 -0.00000000000E+00 -0.33099268795E+03  0.33099268795E+03  0.00000000000E+00 0. -1.
         25    2    1    2    0    0  0.39546412767E+02 -0.52471285192E+02 -0.57724856057E+01  0.14133470681E+03  0.12500009290E+03 0.  0.
          2    1    1    2  501    0  0.25969147947E+02  0.75923815965E+00 -0.24615183715E+03  0.24751909021E+03  0.00000000000E+00 0. -1.
          1    1    1    2  502    0 -0.65515560714E+02  0.51712047033E+02  0.15364262010E+03  0.17484987623E+03  0.00000000000E+00 0. -1.
         22    1    3    3    0    0  0.13741836598E+02 -0.90056076183E+02  0.13017571712E+02  0.92023867033E+02  0.00000000000E+00 0. -1.
         22    1    3    3    0    0  0.25804576169E+02  0.37584790991E+02 -0.18790057318E+02  0.49310839773E+02  0.00000000000E+00 0. -1.
</event>
<event>
 7    1  0.5889087E-006  0.4591321E+02  0.7818608E-02  0.1490671E+00
          2   -1    0    0  502    0  0.00000000000E+00  0.00000000000E+00  0.10975976080E+04  0.10975976080E+04  0.00000000000E+00 0. -1.
          1   -1    0    0  501    0 -0.00000000000E+00 -0.00000000000E+00 -0.11056514791E+03  0.11056514791E+03  0.00000000000E+00 0. -1.
         25    2    1    2    0    0  0.45058627096E+02  0.43328906611E+02  0.48272362848E+03  0.50254701532E+03  0.12499490824E+03 0.  0.
          2    1    1    2  501    0  0.31775621225E+00 -0.39314537286E+02 -0.95917932309E+02  0.10366283591E+03  0.00000000000E+00 0. -1.
          1    1    1    2  502    0 -0.45376383308E+02 -0.40143693252E+01  0.60022676395E+03  0.60195290471E+03  0.00000000000E+00 0. -1.
         22    1    3    3    0    0  0.13188921135E+01  0.10580667609E+02 -0.49968252429E+01  0.11775324453E+02  0.00000000000E+00 0.  1.
         22    1    3    3    0    0  0.43739734982E+02  0.32748239002E+02  0.48772045372E+03  0.49077169086E+03  0.00000000000E+00 0.  1.
</event>
<event>
 7    1  0.5889087E-006  0.4531901E+02  0.7818608E-02  0.1506426E+00
          2   -1    0    0  502    0  0.00000000000E+00  0.00000000000E+00  0.47990820983E+03  0.47990820983E+03  0.00000000000E+00 0. -1.
          1   -1    0    0  501    0 -0.00000000000E+00 -0.00000000000E+00 -0.11040243162E+04  0.11040243162E+04  0.00000000000E+00 0. -1.
         25    2    1    2    0    0  0.65554590176E+02  0.47285869357E+02 -0.43426641103E+03  0.45907061573E+03  0.12500062697E+03 0.  0.
          2    1    1    2  501    0 -0.30301677042E+02 -0.18945355940E+02 -0.65577407173E+03  0.65674709843E+03  0.00000000000E+00 0. -1.
          1    1    1    2  502    0 -0.35252913134E+02 -0.28340513417E+02  0.46592437638E+03  0.46811481187E+03  0.00000000000E+00 0. -1.
         22    1    3    3    0    0  0.44598299874E+02  0.53785496878E+01 -0.34690922994E+02  0.56757354471E+02  0.00000000000E+00 0.  1.
         22    1    3    3    0    0  0.20956290302E+02  0.41907319670E+02 -0.39957548804E+03  0.40231326126E+03  0.00000000000E+00 0.  1.
</event>
<event>
 7    1  0.5889087E-006  0.9645009E+02  0.7818608E-02  0.1315200E+00
          2   -1    0    0  502    0  0.00000000000E+00  0.00000000000E+00  0.11256289334E+04  0.11256289334E+04  0.00000000000E+00 0. -1.
          1   -1    0    0  501    0 -0.00000000000E+00 -0.00000000000E+00 -0.67570905129E+03  0.67570905129E+03  0.00000000000E+00 0. -1.
         25    2    1    2    0    0 -0.11201839504E+03  0.10773109802E+03  0.63813472727E+03  0.66857607200E+03  0.12499569429E+03 0.  0.
          2    1    1    2  501    0  0.43810224972E+02 -0.60955728904E+02 -0.65470624556E+03  0.65899560293E+03  0.00000000000E+00 0. -1.
          1    1    1    2  502    0  0.68208170068E+02 -0.46775369113E+02  0.46649140042E+03  0.47376630979E+03  0.00000000000E+00 0. -1.
         22    1    3    3    0    0 -0.12728924881E+02  0.66023393678E+02  0.41952541261E+03  0.42487961338E+03  0.00000000000E+00 0. -1.
         22    1    3    3    0    0 -0.99289470159E+02  0.41707704339E+02  0.21860931466E+03  0.24369645861E+03  0.00000000000E+00 0. -1.
</event>
<event>
 7    1  0.5889087E-006  0.8301795E+02  0.7818608E-02  0.1457506E+00
          2   -1    0    0  502    0  0.00000000000E+00  0.00000000000E+00  0.25623853747E+04  0.25623853747E+04  0.00000000000E+00 0. -1.
          1   -1    0    0  501    0 -0.00000000000E+00 -0.00000000000E+00 -0.15440612638E+02  0.15440612638E+02  0.00000000000E+00 0. -1.
         25    2    1    2    0    0  0.21051840749E+02  0.94393405061E+02  0.15478656043E+04  0.15559135199E+04  0.12500262917E+03 0.  0.
          2    1    1    2  501    0  0.13532853151E+02 -0.23982795580E+02  0.93531920485E+01  0.29082551465E+02  0.00000000000E+00 0. -1.
          1    1    1    2  502    0 -0.34584693900E+02 -0.70410609481E+02  0.98972596571E+03  0.99282991603E+03  0.00000000000E+00 0. -1.
         22    1    3    3    0    0  0.70984824835E+02  0.56838227108E+02  0.72530328129E+03  0.73098172293E+03  0.00000000000E+00 0. -1.
         22    1    3    3    0    0 -0.49932984086E+02  0.37555177954E+02  0.82256232304E+03  0.82493179693E+03  0.00000000000E+00 0. -1.
</event>
<event>
 7    1  0.5889087E-006  0.5483059E+02  0.7818608E-02  0.1471146E+00
          2   -1    0    0  502    0  0.00000000000E+00  0.00000000000E+00  0.21374507537E+04  0.21374507537E+04  0.00000000000E+00 0. -1.
          1   -1    0    0  501    0 -0.00000000000E+00 -0.00000000000E+00 -0.88552800959E+02  0.88552800959E+02  0.00000000000E+00 0. -1.
         25    2    1    2    0    0 -0.18794821900E+02 -0.21748070428E+02  0.14198394118E+03  0.19133996598E+03  0.12500127653E+03 0.  0.
          2    1    1    2  501    0  0.17326512671E+02 -0.33576915264E+02 -0.57863268395E+02  0.69106983072E+02  0.00000000000E+00 0. -1.
          1    1    1    2  502    0  0.14683092289E+01  0.55324985692E+02  0.19647772800E+04  0.19655566056E+04  0.00000000000E+00 0. -1.
         22    1    3    3    0    0  0.80189693703E+01  0.49013231948E+02  0.37025434684E+02  0.61947426010E+02  0.00000000000E+00 0. -1.
         22    1    3    3    0    0 -0.26813791270E+02 -0.70761302375E+02  0.10495850649E+03  0.12939253997E+03  0.00000000000E+00 0. -1.
</event>
<event>
 7    1  0.5889087E-006  0.4840043E+02  0.7818608E-02  0.1465518E+00
          2   -1    0    0  502    0  0.00000000000E+00  0.00000000000E+00  0.11542989423E+03  0.11542989423E+03  0.00000000000E+00 0. -1.
          1   -1    0    0  501    0 -0.00000000000E+00 -0.00000000000E+00 -0.30033746805E+04  0.30033746805E+04  0.00000000000E+00 0. -1.
         25    2    1    2    0    0 -0.50435338991E+02  0.66144505124E+02 -0.37133147536E+03  0.40053846209E+03  0.12500070418E+03 0.  0.
          2    1    1    2  501    0  0.10243322703E+02 -0.46884383602E+02 -0.26122833589E+04  0.26127241374E+04  0.00000000000E+00 0. -1.
          1    1    1    2  502    0  0.40192016288E+02 -0.19260121521E+02  0.95670047975E+02  0.10554197522E+03  0.00000000000E+00 0. -1.
         22    1    3    3    0    0 -0.83950676681E+02  0.10774765263E+02 -0.18990457884E+03  0.20791238719E+03  0.00000000000E+00 0.  1.
         22    1    3    3    0    0  0.33515337690E+02  0.55369739861E+02 -0.18142689652E+03  0.19262607490E+03  0.00000000000E+00 0.  1.
</event>
<event>
 7    1  0.5889087E-006  0.1272614E+03  0.7818608E-02  0.1249191E+00
          2   -1    0    0  502    0  0.00000000000E+00  0.00000000000E+00  0.42948756421E+03  0.42948756421E+03  0.00000000000E+00 0. -1.
          1   -1    0    0  501    0 -0.00000000000E+00 -0.00000000000E+00 -0.16812347014E+04  0.16812347014E+04  0.00000000000E+00 0. -1.
         25    2    1    2    0    0  0.66767946889E+02 -0.11150906487E+03 -0.56997548465E+03  0.59782151476E+03  0.12500512041E+03 0.  0.
          2    1    1    2  501    0  0.37825947126E+02  0.13119159450E+03 -0.10861770663E+04  0.10947249226E+04  0.00000000000E+00 0. -1.
          1    1    1    2  502    0 -0.10459389402E+03 -0.19682529630E+02  0.40440541378E+03  0.41817582825E+03  0.00000000000E+00 0. -1.
         22    1    3    3    0    0  0.67040684970E+02 -0.69162003896E+01 -0.31683659147E+03  0.32392547440E+03  0.00000000000E+00 0.  1.
         22    1    3    3    0    0 -0.27273808078E+00 -0.10459286448E+03 -0.25313889318E+03  0.27389604036E+03  0.00000000000E+00 0.  1.
</event>
<event>
 7    1  0.5889087E-006  0.6064478E+02  0.7818608E-02  0.1449986E+00
          2   -1    0    0  502    0  0.00000000000E+00  0.00000000000E+00  0.12005887354E+03  0.12005887354E+03  0.00000000000E+00 0. -1.
          1   -1    0    0  501    0 -0.00000000000E+00 -0.00000000000E+00 -0.69007543661E+03  0.69007543661E+03  0.00000000000E+00 0. -1.
         25    2    1    2    0    0  0.75952540652E+02  0.56793563136E+02 -0.14691610711E+03  0.21494989827E+03  0.12499927597E+03 0.  0.
          2    1    1    2  501    0 -0.22046966773E+02 -0.33174810617E+02 -0.49818979929E+03  0.49977966437E+03  0.00000000000E+00 0. -1.
          1    1    1    2  502    0 -0.53905573878E+02 -0.23618752519E+02  0.75089343334E+02  0.95404747513E+02  0.00000000000E+00 0. -1.
         22    1    3    3    0    0 -0.19989828225E+02  0.36078668838E+02 -0.38157473527E+01  0.41422499990E+02  0.00000000000E+00 0.  1.
         22    1    3    3    0    0  0.95942368876E+02  0.20714894298E+02 -0.14310035976E+03  0.17352739828E+03  0.00000000000E+00 0.  1.
</event>
<event>
 7    1  0.5889087E-006  0.9145550E+02  0.7818608E-02  0.1319271E+00
          2   -1    0    0  502    0  0.00000000000E+00  0.00000000000E+00  0.18045776683E+04  0.18045776683E+04  0.00000000000E+00 0. -1.
          1   -1    0    0  501    0 -0.00000000000E+00 -0.00000000000E+00 -0.98185504150E+02  0.98185504150E+02  0.00000000000E+00 0. -1.
         25    2    1    2    0    0 -0.75565813801E+01 -0.76918948269E+01  0.76966443424E+02  0.14719409432E+03  0.12500400323E+03 0.  0.
          2    1    1    2  501    0  0.96223672904E+02  0.30102940108E+02 -0.20687786110E+02  0.10292311074E+03  0.00000000000E+00 0. -1.
          1    1    1    2  502    0 -0.88667091524E+02 -0.22411045281E+02  0.16501135068E+04  0.16526459674E+04  0.00000000000E+00 0. -1.
         22    1    3    3    0    0 -0.47719815106E+01  0.30342289526E+02 -0.24183998531E+02  0.39093377012E+02  0.00000000000E+00 0. -1.
         22    1    3    3    0    0 -0.27845998695E+01 -0.38034184353E+02  0.10115044195E+03  0.10810071731E+03  0.00000000000E+00 0. -1.
</event>
<event>
 7    1  0.5889087E-006  0.1007282E+03  0.7818608E-02  0.1290554E+00
          2   -1    0    0  502    0  0.00000000000E+00  0.00000000000E+00  0.92690517460E+03  0.92690517460E+03  0.00000000000E+00 0. -1.
          1   -1    0    0  501    0 -0.00000000000E+00 -0.00000000000E+00 -0.73388633751E+03  0.73388633751E+03  0.00000000000E+00 0. -1.
         25    2    1    2    0    0 -0.80368912264E+02 -0.16583630059E+03 -0.16813952649E+02  0.22331374873E+03  0.12500192285E+03 0.  0.
          2    1    1    2  501    0  0.58130989062E+02  0.78502989247E+02 -0.60744361419E+03  0.61524765390E+03  0.00000000000E+00 0. -1.
          1    1    1    2  502    0  0.22237923202E+02  0.87333311346E+02  0.81727640393E+03  0.82223010947E+03  0.00000000000E+00 0. -1.
         22    1    3    3    0    0 -0.54012523862E+02 -0.90220462619E+02  0.52385529304E+02  0.11747905469E+03  0.00000000000E+00 0. -1.
         22    1    3    3    0    0 -0.26356388402E+02 -0.75615837974E+02 -0.69199481953E+02  0.10583469405E+03  0.00000000000E+00 0. -1.
</event>
<event>
 7    1  0.5889087E-006  0.1435412E+03  0.7818608E-02  0.1364139E+00
          2   -1    0    0  502    0  0.00000000000E+00  0.00000000000E+00  0.11964030763E+04  0.11964030763E+04  0.00000000000E+00 0. -1.
          1   -1    0    0  501    0 -0.00000000000E+00 -0.00000000000E+00 -0.38714582316E+03  0.38714582316E+03  0.00000000000E+00 0. -1.
         25    2    1    2    0    0  0.13192824522E+03 -0.78500028845E+02 -0.15017778106E+03  0.24848526397E+03  0.12499697624E+03 0.  0.
          2    1    1    2  501    0 -0.13171546816E+03  0.45501666268E+02 -0.16168891642E+03  0.21345414467E+03  0.00000000000E+00 0. -1.
          1    1    1    2  502    0 -0.21277706170E+00  0.32998362577E+02  0.11211239507E+04  0.11216094908E+04  0.00000000000E+00 0. -1.
         22    1    3    3    0    0  0.12068455201E+03 -0.25649803548E+02 -0.15029621508E+03  0.19445211694E+03  0.00000000000E+00 0.  1.
         22    1    3    3    0    0  0.11243693204E+02 -0.52850225297E+02  0.11843401438E+00  0.54033147025E+02  0.00000000000E+00 0.  1.
</event>
<event>
 7    1  0.5889087E-006  0.4092950E+02  0.7818608E-02  0.1594880E+00
          2   -1    0    0  502    0  0.00000000000E+00  0.00000000000E+00  0.10719254958E+04  0.10719254958E+04  0.00000000000E+00 0. -1.
          1   -1    0    0  501    0 -0.00000000000E+00 -0.00000000000E+00 -0.31265147488E+02  0.31265147488E+02  0.00000000000E+00 0. -1.
         25    2    1    2    0    0 -0.42552444673E+02 -0.25002905828E+02  0.40781536405E+03  0.42938765299E+03  0.12499811814E+03 0.  0.
          2    1    1    2  501    0  0.19184804159E+01  0.22337372584E+02 -0.13504046716E+02  0.26172467572E+02  0.00000000000E+00 0. -1.
          1    1    1    2  502    0  0.40633964257E+02  0.26655332439E+01  0.64634903103E+03  0.64763052277E+03  0.00000000000E+00 0. -1.
         22    1    3    3    0    0 -0.10753703210E+02 -0.60943959725E+02  0.98186646376E+02  0.11606216389E+03  0.00000000000E+00 0. -1.
         22    1    3    3    0    0 -0.31798741462E+02  0.35941053896E+02  0.30962871768E+03  0.31332548911E+03  0.00000000000E+00 0. -1.
</event>
<event>
 7    1  0.5889087E-006  0.1101298E+03  0.7818608E-02  0.1283411E+00
          2   -1    0    0  502    0  0.00000000000E+00  0.00000000000E+00  0.11514574454E+04  0.11514574454E+04  0.00000000000E+00 0. -1.
          1   -1    0    0  501    0 -0.00000000000E+00 -0.00000000000E+00 -0.18644914252E+03  0.18644914252E+03  0.00000000000E+00 0. -1.
         25    2    1    2    0    0 -0.14913850021E+03 -0.12194092031E+03  0.27330559075E+03  0.35697785973E+03  0.12500146445E+03 0.  0.
          2    1    1    2  501    0  0.76385595317E+02  0.72153826267E+02 -0.12282841024E+03  0.16164081223E+03  0.00000000000E+00 0. -1.
          1    1    1    2  502    0  0.72752904896E+02  0.49787094044E+02  0.81453112238E+03  0.81928791595E+03  0.00000000000E+00 0. -1.
         22    1    3    3    0    0  0.36114421792E+01 -0.45970658536E+02  0.11637522453E+03  0.12517802062E+03  0.00000000000E+00 0. -1.
         22    1    3    3    0    0 -0.15274994239E+03 -0.75970261775E+02  0.15693036621E+03  0.23179983912E+03  0.00000000000E+00 0. -1.
</event>
<event>
 7    1  0.5889087E-006  0.5835840E+02  0.7818608E-02  0.1529208E+00
          2   -1    0    0  502    0  0.00000000000E+00  0.00000000000E+00  0.94936325749E+03  0.94936325749E+03  0.00000000000E+00 0. -1.
          1   -1    0    0  501    0 -0.00000000000E+00 -0.00000000000E+00 -0.74266763519E+03  0.74266763519E+03  0.00000000000E+00 0. -1.
         25    2    1    2    0    0 -0.78361644552E+02 -0.23206743827E+02 -0.76601049820E+02  0.16784382486E+03  0.12499891366E+03 0.  0.
          2    1    1    2  501    0  0.21789716773E+02  0.96218048900E+01 -0.61927963425E+03  0.61973755435E+03  0.00000000000E+00 0. -1.
          1    1    1    2  502    0  0.56571927779E+02  0.13584938937E+02  0.90257630637E+03  0.90444951346E+03  0.00000000000E+00 0. -1.
         22    1    3    3    0    0 -0.10554238627E+03 -0.21553632030E+02 -0.87231659979E+02  0.13861138790E+03  0.00000000000E+00 0.  1.
         22    1    3    3    0    0  0.27180741713E+02 -0.16531117970E+01  0.10630610159E+02  0.29232436967E+02  0.00000000000E+00 0.  1.
</event>
<event>
 7    1  0.5889087E-006  0.9822687E+02  0.7818608E-02  0.1329216E+00
          2   -1    0    0  502    0  0.00000000000E+00  0.00000000000E+00  0.12420851906E+04  0.12420851906E+04  0.00000000000E+00 0. -1.
          1   -1    0    0  501    0 -0.00000000000E+00 -0.00000000000E+00 -0.38517704152E+03  0.38517704152E+03  0.00000000000E+00 0. -1.
         25    2    1    2    0    0  0.86029754029E+02 -0.76610201730E+02  0.28015232232E+03  0.32768749224E+03  0.12499410898E+03 0.  0.
          2    1    1    2  501    0 -0.97478790829E+02  0.12564595970E+02 -0.35357012885E+03  0.36697659292E+03  0.00000000000E+00 0. -1.
          1    1    1    2  502    0  0.11449036801E+02  0.64045605760E+02  0.93032595556E+03  0.93259814693E+03  0.00000000000E+00 0. -1.
         22    1    3    3    0    0 -0.25132122761E+02 -0.20709813521E+02  0.12301791858E+03  0.12725536634E+03  0.00000000000E+00 0. -1.
         22    1    3    3    0    0  0.11116187679E+03 -0.55900388209E+02  0.15713440374E+03  0.20043212590E+03  0.00000000000E+00 0. -1.
</event>
<event>
 7    1  0.5889087E-006  0.5516191E+02  0.7818608E-02  0.1471588E+00
          2   -1    0    0  502    0  0.00000000000E+00  0.00000000000E+00  0.47944413703E+03  0.47944413703E+03  0.00000000000E+00 0. -1.
          1   -1    0    0  501    0 -0.00000000000E+00 -0.00000000000E+00 -0.47833711950E+03  0.47833711950E+03  0.00000000000E+00 0. -1.
         25    2    1    2    0    0 -0.10458999616E+02 -0.44548205922E+02 -0.97160549892E+02  0.16479896718E+03  0.12499837521E+03 0.  0.
          2    1    1    2  501    0 -0.35116087131E+02  0.12980466717E+02 -0.34461527628E+03  0.34664292974E+03  0.00000000000E+00 0. -1.
          1    1    1    2  502    0  0.45575086747E+02  0.31567739205E+02  0.44288284370E+03  0.44633935961E+03  0.00000000000E+00 0. -1.
         22    1    3    3    0    0  0.33899017298E+02  0.21242305072E+02 -0.85213744587E+00  0.40013810575E+02  0.00000000000E+00 0. -1.
         22    1    3    3    0    0 -0.44358016914E+02 -0.65790510993E+02 -0.96308412446E+02  0.12478515661E+03  0.00000000000E+00 0. -1.
</event>
<event>
 7    1  0.5889087E-006  0.1698384E+03  0.7818608E-02  0.1262260E+00
          2   -1    0    0  502    0  0.00000000000E+00  0.00000000000E+00  0.98373971192E+03  0.98373971192E+03  0.00000000000E+00 0. -1.
          1   -1    0    0  501    0 -0.00000000000E+00 -0.00000000000E+00 -0.17273484248E+04  0.17273484248E+04  0.00000000000E+00 0. -1.
         25    2    1    2    0    0  0.23346155008E+03  0.31758680753E+02  0.10740300068E+03  0.28752881708E+03  0.12499802769E+03 0.  0.
          2    1    1    2  501    0 -0.16378734622E+03 -0.39227455008E+02 -0.16313803395E+04  0.16400508834E+04  0.00000000000E+00 0. -1.
          1    1    1    2  502    0 -0.69674203867E+02  0.74687742553E+01  0.78036862595E+03  0.78350843623E+03  0.00000000000E+00 0. -1.
         22    1    3    3    0    0  0.14008843733E+03 -0.29992936278E+02  0.18251368548E+02  0.14442111671E+03  0.00000000000E+00 0.  1.
         22    1    3    3    0    0  0.93373112759E+02  0.61751617031E+02  0.89151632135E+02  0.14310770037E+03  0.00000000000E+00 0.  1.
</event>
<event>
 7    1  0.5889087E-006  0.1334370E+03  0.7818608E-02  0.1303422E+00
          2   -1    0    0  502    0  0.00000000000E+00  0.00000000000E+00  0.17247579788E+04  0.17247579788E+04  0.00000000000E+00 0. -1.
          1   -1    0    0  501    0 -0.00000000000E+00 -0.00000000000E+00 -0.40089531738E+03  0.40089531738E+03  0.00000000000E+00 0. -1.
         25    2    1    2    0    0 -0.40438873144E+02  0.15081420056E+03  0.38937769931E+02  0.20376731979E+03  0.12499898053E+03 0.  0.
          2    1    1    2  501    0 -0.40247640172E+02 -0.45017731046E+02 -0.31282784585E+03  0.31860277743E+03  0.00000000000E+00 0. -1.
          1    1    1    2  502    0  0.80686513316E+02 -0.10579646952E+03  0.15977527374E+04  0.16032831990E+04  0.00000000000E+00 0. -1.
         22    1    3    3    0    0 -0.62935069870E+02  0.15804300993E+03  0.16046142797E+02  0.17086806228E+03  0.00000000000E+00 0.  1.
         22    1    3    3    0    0  0.22496196726E+02 -0.72288093681E+01  0.22891627134E+02  0.32899257512E+02  0.00000000000E+00 0.  1.
</event>
<event>
 7    1  0.5889087E-006  0.1382590E+03  0.7818608E-02  0.1224905E+00
          2   -1    0    0  502    0  0.00000000000E+00  0.00000000000E+00  0.11054039932E+04  0.11054039932E+04  0.00000000000E+00 0. -1.
          1   -1    0    0  501    0 -0.00000000000E+00 -0.00000000000E+00 -0.33129736744E+03  0.33129736744E+03  0.00000000000E+00 0. -1.
         25    2    1    2    0    0  0.17897441726E+03 -0.10029816702E+03  0.67981981439E+03  0.72102073458E+03  0.12499742125E+03 0.  0.
          2    1    1    2  501    0 -0.13648497287E+03 -0.17808308606E+02 -0.28482041209E+03  0.31633518744E+03  0.00000000000E+00 0. -1.
          1    1    1    2  502    0 -0.42489444394E+02  0.11810647562E+03  0.37910722344E+03  0.39934543860E+03  0.00000000000E+00 0. -1.
         22    1    3    3    0    0  0.20294442428E+02 -0.70601294196E+02  0.14782934484E+03  0.16507550494E+03  0.00000000000E+00 0.  1.
         22    1    3    3    0    0  0.15867997484E+03 -0.29696872821E+02  0.53199046955E+03  0.55594522964E+03  0.00000000000E+00 0.  1.
</event>
<event>
 7    1  0.5889087E-006  0.5813803E+02  0.7818608E-02  0.1432030E+00
          2   -1    0    0  502    0  0.00000000000E+00  0.00000000000E+00  0.28815058291E+04  0.28815058291E+04  0.00000000000E+00 0. -1.
          1   -1    0    0  501    0 -0.00000000000E+00 -0.00000000000E+00 -0.42892103112E+03  0.42892103112E+03  0.00000000000E+00 0. -1.
         25    2    1    2    0    0 -0.42330893969E+01  0.10275595706E+03  0.10368264510E+04  0.10493859077E+04  0.12499995232E+03 0.  0.
          2    1    1    2  501    0  0.14173503199E+02 -0.56299966127E+02 -0.42033884230E+03  0.42432925509E+03  0.00000000000E+00 0. -1.
          1    1    1    2  502    0 -0.99404138016E+01 -0.46455990928E+02  0.18360971893E+04  0.18367116974E+04  0.00000000000E+00 0. -1.
         22    1    3    3    0    0  0.45858783939E+01  0.11705566422E+03  0.10155112745E+04  0.10222456688E+04  0.00000000000E+00 0. -1.
         22    1    3    3    0    0 -0.88189677908E+01 -0.14299707169E+02  0.21315176507E+02  0.27140238900E+02  0.00000000000E+00 0. -1.
</event>
<event>
 7    1  0.5889087E-006  0.5025045E+02  0.7818608E-02  0.1472555E+00
          2   -1    0    0  502    0  0.00000000000E+00  0.00000000000E+00  0.65869547980E+03  0.65869547980E+03  0.00000000000E+00 0. -1.
          1   -1    0    0  501    0 -0.00000000000E+00 -0.00000000000E+00 -0.69800253210E+03  0.69800253210E+03  0.00000000000E+00 0. -1.
         25    2    1    2    0    0  0.10053563635E+02 -0.83064295702E+01 -0.22052461032E+02  0.12759977444E+03  0.12500128194E+03 0.  0.
          2    1    1    2  501    0 -0.14765455084E+02  0.48848053075E+02 -0.62144205164E+03  0.62353377975E+03  0.00000000000E+00 0. -1.
          1    1    1    2  502    0  0.47118914489E+01 -0.40541623505E+02  0.60418746037E+03  0.60556445770E+03  0.00000000000E+00 0. -1.
         22    1    3    3    0    0 -0.39680131558E+01  0.49377339435E+02  0.21472049977E+02  0.53989959328E+02  0.00000000000E+00 0.  1.
         22    1    3    3    0    0  0.14021576790E+02 -0.57683769005E+02 -0.43524511008E+02  0.73609815112E+02  0.00000000000E+00 0.  1.
</event>
<event>
 7    1  0.5889087E-006  0.7270072E+02  0.7818608E-02  0.1499997E+00
          2   -1    0    0  502    0  0.00000000000E+00  0.00000000000E+00  0.38415433640E+03  0.38415433640E+03  0.00000000000E+00 0. -1.
          1   -1    0    0  501    0 -0.00000000000E+00 -0.00000000000E+00 -0.21591697054E+03  0.21591697054E+03  0.00000000000E+00 0. -1.
         25    2    1    2    0    0  0.43901000142E+02 -0.27263970548E+02  0.27709422863E+02  0.13806990864E+03  0.12499946261E+03 0.  0.
          2    1    1    2  501    0 -0.64434924508E+02  0.38229773175E+02 -0.15151766030E+03  0.16902951351E+03  0.00000000000E+00 0. -1.
          1    1    1    2  502    0  0.20533924366E+02 -0.10965802627E+02  0.29204560330E+03  0.29297188480E+03  0.00000000000E+00 0. -1.
         22    1    3    3    0    0  0.28710972829E+02 -0.66138182481E+02  0.52804804412E+02  0.89369606197E+02  0.00000000000E+00 0.  1.
         22    1    3    3    0    0  0.15190027314E+02  0.38874211933E+02 -0.25095381549E+02  0.48700302445E+02  0.00000000000E+00 0.  1.
</event>
<event>
 7    1  0.5889087E-006  0.1515882E+03  0.7818608E-02  0.1207625E+00
          2   -1    0    0  502    0  0.00000000000E+00  0.00000000000E+00  0.15024985253E+04  0.15024985253E+04  0.00000000000E+00 0. -1.
          1   -1    0    0  501    0 -0.00000000000E+00 -0.00000000000E+00 -0.84409549645E+02  0.84409549645E+02  0.00000000000E+00 0. -1.
         25    2    1    2    0    0 -0.23394975970E+02 -0.11357394497E+03  0.31156727044E+03  0.35517281704E+03  0.12500880000E+03 0.  0.
          2    1    1    2  501    0  0.13582235947E+03 -0.20825288766E+02  0.29484086618E+02  0.14053724541E+03  0.00000000000E+00 0. -1.
          1    1    1    2  502    0 -0.11242738350E+03  0.13439923374E+03  0.10770376186E+04  0.10911980125E+04  0.00000000000E+00 0. -1.
         22    1    3    3    0    0 -0.17188588917E+02  0.23587136138E+02  0.29683007540E+02  0.41627893494E+02  0.00000000000E+00 0. -1.
         22    1    3    3    0    0 -0.62063870532E+01 -0.13716108111E+03  0.28188426290E+03  0.31354492355E+03  0.00000000000E+00 0. -1.
</event>
<event>
 7    1  0.5889087E-006  0.6815395E+02  0.7818608E-02  0.1393071E+00
          2   -1    0    0  502    0  0.00000000000E+00  0.00000000000E+00  0.33112872259E+04  0.33112872259E+04  0.00000000000E+00 0. -1.
          1   -1    0    0  501    0 -0.00000000000E+00 -0.00000000000E+00 -0.10763910130E+04  0.10763910130E+04  0.00000000000E+00 0. -1.
         25    2    1    2    0    0 -0.31626411434E+02 -0.80674356556E+02  0.18513526674E+04  0.18575908998E+04  0.12501468087E+03 0.  0.
          2    1    1    2  501    0  0.59424402471E+02  0.33373426687E+02 -0.10716724530E+04  0.10738374606E+04  0.00000000000E+00 0. -1.
          1    1    1    2  502    0 -0.27797991037E+02  0.47300929869E+02  0.14552159985E+04  0.14562498785E+04  0.00000000000E+00 0. -1.
         22    1    3    3    0    0  0.33911991865E+02  0.12514714057E+02  0.58877299093E+03  0.58988157804E+03  0.00000000000E+00 0.  1.
         22    1    3    3    0    0 -0.65538403300E+02 -0.93189070614E+02  0.12625796765E+04  0.12677093218E+04  0.00000000000E+00 0.  1.
</event>
<event>
 7    1  0.5889087E-006  0.1653143E+03  0.7818608E-02  0.1261177E+00
          2   -1    0    0  502    0  0.00000000000E+00  0.00000000000E+00  0.68729575286E+03  0.68729575286E+03  0.00000000000E+00 0. -1.
          1   -1    0    0  501    0 -0.00000000000E+00 -0.00000000000E+00 -0.23546176755E+03  0.23546176755E+03  0.00000000000E+00 0. -1.
         25    2    1    2    0    0 -0.18108671610E+03  0.79270555081E+02  0.61119030584E+02  0.24173706429E+03  0.12500021080E+03 0.  0.
          2    1    1    2  501    0  0.15811234249E+03 -0.10233767970E+02 -0.98407380521E+02  0.18651609957E+03  0.00000000000E+00 0. -1.
          1    1    1    2  502    0  0.22974373606E+02 -0.69036787111E+02  0.48912233524E+03  0.49450435655E+03  0.00000000000E+00 0. -1.
         22    1    3    3    0    0 -0.16727798431E+03  0.81759722120E+02  0.75302832649E+01  0.18634184008E+03  0.00000000000E+00 0. -1.
         22    1    3    3    0    0 -0.13808731786E+02 -0.24891670387E+01  0.53588747319E+02  0.55395224210E+02  0.00000000000E+00 0. -1.
</event>
<event>
 7    1  0.5889087E-006  0.8505358E+02  0.7818608E-02  0.1493094E+00
          2   -1    0    0  502    0  0.00000000000E+00  0.00000000000E+00  0.62283571841E+03  0.62283571841E+03  0.00000000000E+00 0. -1.
          1   -1    0    0  501    0 -0.00000000000E+00 -0.00000000000E+00 -0.71528580851E+02  0.71528580851E+02  0.00000000000E+00 0. -1.
         25    2    1    2    0    0  0.11888133578E+02  0.86801836916E+02  0.25967645026E+03  0.30120267161E+03  0.12496120979E+03 0.  0.
          2    1    1    2  501    0  0.19339626353E+02 -0.78415794408E+01 -0.43069287546E+02  0.47858907691E+02  0.00000000000E+00 0. -1.
          1    1    1    2  502    0 -0.31227759931E+02 -0.78960257475E+02  0.33469997484E+03  0.34530271996E+03  0.00000000000E+00 0. -1.
         22    1    3    3    0    0  0.50637206376E+02  0.82454810810E+02  0.10986927465E+03  0.14640416663E+03  0.00000000000E+00 0.  1.
         22    1    3    3    0    0 -0.38749072799E+02  0.43470261063E+01  0.14980717561E+03  0.15479850498E+03  0.00000000000E+00 0.  1.
</event>
<event>
 7    1  0.5889087E-006  0.1241921E+03  0.7818608E-02  0.1338742E+00
          2   -1    0    0  502    0  0.00000000000E+00  0.00000000000E+00  0.78200408558E+03  0.78200408558E+03  0.00000000000E+00 0. -1.
          1   -1    0    0  501    0 -0.00000000000E+00 -0.00000000000E+00 -0.25799631625E+03  0.25799631625E+03  0.00000000000E+00 0. -1.
         25    2    1    2    0    0  0.35146462939E+02 -0.10799027820E+03  0.22312310620E+01  0.16890026069E+03  0.12500058251E+03 0.  0.
          2    1    1    2  501    0  0.74302838397E+01  0.12869986113E+03 -0.14992728113E+03  0.19772974738E+03  0.00000000000E+00 0. -1.
          1    1    1    2  502    0 -0.42576746779E+02 -0.20709582931E+02  0.67170381940E+03  0.67337039376E+03  0.00000000000E+00 0. -1.
         22    1    3    3    0    0 -0.15219466773E+02 -0.11157098808E+03  0.21895499072E+02  0.11471325307E+03  0.00000000000E+00 0. -1.
         22    1    3    3    0    0  0.50365929712E+02  0.35807098789E+01 -0.19664268010E+02  0.54187007625E+02  0.00000000000E+00 0. -1.
</event>
<event>
 7    1  0.5889087E-006  0.7224923E+02  0.7818608E-02  0.1403479E+00
          2   -1    0    0  502    0  0.00000000000E+00  0.00000000000E+00  0.10959078233E+03  0.10959078233E+03  0.00000000000E+00 0. -1.
          1   -1    0    0  501    0 -0.00000000000E+00 -0.00000000000E+00 -0.44176614203E+03  0.44176614203E+03  0.00000000000E+00 0. -1.
         25    2    1    2    0    0 -0.25086178697E+02  0.50040581255E+02 -0.12826841370E+03  0.18765340213E+03  0.12501054852E+03 0.  0.
          2    1    1    2  501    0  0.41356436645E+02  0.23669447462E+02 -0.26334828623E+03  0.26762458305E+03  0.00000000000E+00 0. -1.
          1    1    1    2  502    0 -0.16270257949E+02 -0.73710028717E+02  0.59441340227E+02  0.96078939186E+02  0.00000000000E+00 0. -1.
         22    1    3    3    0    0 -0.17859674843E+02 -0.40278237647E+02 -0.58819927589E+02  0.73492096820E+02  0.00000000000E+00 0. -1.
         22    1    3    3    0    0 -0.72265038540E+01  0.90318818902E+02 -0.69448486113E+02  0.11416130531E+03  0.00000000000E+00 0. -1.
</event>
<event>
 7    1  0.5889087E-006  0.6356137E+02  0.7818608E-02  0.1532544E+00
          2   -1    0    0  502    0  0.00000000000E+00  0.00000000000E+00  0.17739232354E+03  0.17739232354E+03  0.00000000000E+00 0. -1.
          1   -1    0    0  501    0 -0.00000000000E+00 -0.00000000000E+00 -0.20860142667E+04  0.20860142667E+04  0.00000000000E+00 0. -1.
         25    2    1    2    0    0  0.60139790477E+02 -0.22395842526E+00 -0.17127369414E+04  0.17183451808E+04  0.12500194083E+03 0.  0.
          2    1    1    2  501    0 -0.66012920517E+02 -0.20348479440E+02 -0.36657957828E+03  0.37303130365E+03  0.00000000000E+00 0. -1.
          1    1    1    2  502    0  0.58731300397E+01  0.20572437865E+02  0.17069457653E+03  0.17203010583E+03  0.00000000000E+00 0. -1.
         22    1    3    3    0    0  0.60693599528E+02 -0.55587971261E+02 -0.91803421205E+03  0.92171608973E+03  0.00000000000E+00 0.  1.
         22    1    3    3    0    0 -0.55380905124E+00  0.55364012836E+02 -0.79470272937E+03  0.79662909104E+03  0.00000000000E+00 0.  1.
</event>
<event>
 7    1  0.5889087E-006  0.3277876E+02  0.7818608E-02  0.1570892E+00
          2   -1    0    0  502    0  0.00000000000E+00  0.00000000000E+00  0.15495485444E+04  0.15495485444E+04  0.00000000000E+00 0. -1.
          1   -1    0    0  501    0 -0.00000000000E+00 -0.00000000000E+00 -0.21831431176E+04  0.21831431176E+04  0.00000000000E+00 0. -1.
         25    2    1    2    0    0 -0.34617936762E+01  0.22785515940E+01  0.82530225388E+03  0.83472508639E+03  0.12499993509E+03 0.  0.
          2    1    1    2  501    0 -0.31862292956E+02 -0.61256928011E+01 -0.21778721073E+04  0.21781137816E+04  0.00000000000E+00 0. -1.
          1    1    1    2  502    0  0.35324086633E+02  0.38471412071E+01  0.71897528015E+03  0.71985279402E+03  0.00000000000E+00 0. -1.
         22    1    3    3    0    0 -0.28675049394E+02  0.43700348161E+02  0.66982401663E+03  0.67186024747E+03  0.00000000000E+00 0. -1.
         22    1    3    3    0    0  0.25213255718E+02 -0.41421796567E+02  0.15547823725E+03  0.16286483891E+03  0.00000000000E+00 0. -1.
</event>
<event>
 7    1  0.5889087E-006  0.2518256E+03  0.7818608E-02  0.1323977E+00
          2   -1    0    0  502    0  0.00000000000E+00  0.00000000000E+00  0.20771520958E+03  0.20771520958E+03  0.00000000000E+00 0. -1.
          1   -1    0    0  501    0 -0.00000000000E+00 -0.00000000000E+00 -0.52541940765E+03  0.52541940765E+03  0.00000000000E+00 0. -1.
         25    2    1    2    0    0 -0.17586682419E+03 -0.18761639705E+03 -0.21364164584E+03  0.35692697780E+03  0.12500024942E+03 0.  0.
          2    1    1    2  501    0  0.15078009502E+03  0.19640299764E+03 -0.17317742193E+03  0.30215756486E+03  0.00000000000E+00 0. -1.
          1    1    1    2  502    0  0.25086729165E+02 -0.87866005879E+01  0.69114869698E+02  0.74050074567E+02  0.00000000000E+00 0. -1.
         22    1    3    3    0    0 -0.16120518470E+03 -0.11897482117E+03 -0.20424881346E+03  0.28611133750E+03  0.00000000000E+00 0.  1.
         22    1    3    3    0    0 -0.14661639485E+02 -0.68641575874E+02 -0.93928323775E+01  0.70815640299E+02  0.00000000000E+00 0.  1.
</event>
<event>
 7    1  0.5889087E-006  0.1519072E+03  0.7818608E-02  0.1331957E+00
          2   -1    0    0  502    0  0.00000000000E+00  0.00000000000E+00  0.67813627671E+03  0.67813627671E+03  0.00000000000E+00 0. -1.
          1   -1    0    0  501    0 -0.00000000000E+00 -0.00000000000E+00 -0.19662136464E+03  0.19662136464E+03  0.00000000000E+00 0. -1.
         25    2    1    2    0    0 -0.38692207644E+02 -0.16158054265E+03  0.10748642631E+03  0.23406079392E+03  0.12500305882E+03 0.  0.
          2    1    1    2  501    0 -0.29950741437E+02  0.28099596361E+02 -0.11870532397E+03  0.12560886978E+03  0.00000000000E+00 0. -1.
          1    1    1    2  502    0  0.68642949081E+02  0.13348094628E+03  0.49273380972E+03  0.51508797765E+03  0.00000000000E+00 0. -1.
         22    1    3    3    0    0 -0.58670294555E+02 -0.38049164240E+02  0.79415076227E+02  0.10581444464E+03  0.00000000000E+00 0. -1.
         22    1    3    3    0    0  0.19978086911E+02 -0.12353137840E+03  0.28071350088E+02  0.12824634928E+03  0.00000000000E+00 0. -1.
</event>
<event>
 7    1  0.5889087E-006  0.5788495E+02  0.7818608E-02  0.1498853E+00
          2   -1    0    0  502    0  0.00000000000E+00  0.00000000000E+00  0.39287979439E+03  0.39287979439E+03  0.00000000000E+00 0. -1.
          1   -1    0    0  501    0 -0.00000000000E+00 -0.00000000000E+00 -0.35500768619E+02  0.35500768619E+02  0.00000000000E+00 0. -1.
         25    2    1    2    0    0  0.15620013321E+02 -0.36684319149E+02  0.26708085777E+03  0.29754299409E+03  0.12493968408E+03 0.  0.
          2    1    1    2  501    0 -0.11233759995E+01  0.62339719947E+02  0.45378713167E+02  0.77115045649E+02  0.00000000000E+00 0. -1.
          1    1    1    2  502    0 -0.14496637321E+02 -0.25655400798E+02  0.44919454839E+02  0.53722523273E+02  0.00000000000E+00 0. -1.
         22    1    3    3    0    0 -0.57270973291E+01 -0.68300416113E+02  0.24288079560E+03  0.25236645450E+03  0.00000000000E+00 0. -1.
         22    1    3    3    0    0  0.21347110650E+02  0.31616096964E+02  0.24200062161E+02  0.45176539586E+02  0.00000000000E+00 0. -1.
</event>
<event>
 7    1  0.5889087E-006  0.5560146E+02  0.7818608E-02  0.1421992E+00
          2   -1    0    0  502    0  0.00000000000E+00  0.00000000000E+00  0.16343810823E+04  0.16343810823E+04  0.00000000000E+00 0. -1.
          1   -1    0    0  501    0 -0.00000000000E+00 -0.00000000000E+00 -0.79168149001E+03  0.79168149001E+03  0.00000000000E+00 0. -1.
         25    2    1    2    0    0  0.39704546417E+01  0.10871102953E+02  0.12911615659E+03  0.18007119664E+03  0.12498283313E+03 0.  0.
          2    1    1    2  501    0  0.52717269872E+02 -0.97964439652E+01 -0.76472177317E+03  0.76659928986E+03  0.00000000000E+00 0. -1.
          1    1    1    2  502    0 -0.56687724513E+02 -0.10746589878E+01  0.14783052088E+04  0.14793920858E+04  0.00000000000E+00 0. -1.
         22    1    3    3    0    0 -0.27992913459E+02 -0.95985556137E+00  0.14116845321E+03  0.14392031375E+03  0.00000000000E+00 0. -1.
         22    1    3    3    0    0  0.31963368101E+02  0.11830958514E+02 -0.12052296624E+02  0.36150882889E+02  0.00000000000E+00 0. -1.
</event>
<event>
 7    1  0.5889087E-006  0.6569679E+02  0.7818608E-02  0.1472430E+00
          2   -1    0    0  502    0  0.00000000000E+00  0.00000000000E+00  0.53234901305E+03  0.53234901305E+03  0.00000000000E+00 0. -1.
          1   -1    0    0  501    0 -0.00000000000E+00 -0.00000000000E+00 -0.12058325493E+04  0.12058325493E+04  0.00000000000E+00 0. -1.
         25    2    1    2    0    0 -0.62510035675E+02  0.16614208832E+02  0.28604185071E+03  0.31879230767E+03  0.12500023430E+03 0.  0.
          2    1    1    2  501    0  0.48380144308E+02 -0.44483178556E+02 -0.11874828997E+04  0.11893002264E+04  0.00000000000E+00 0. -1.
          1    1    1    2  502    0  0.14129891367E+02  0.27868969724E+02  0.22795751274E+03  0.23008902824E+03  0.00000000000E+00 0. -1.
         22    1    3    3    0    0 -0.35164616052E+02  0.23673913112E+02  0.28740786936E+03  0.29051727618E+03  0.00000000000E+00 0.  1.
         22    1    3    3    0    0 -0.27345419623E+02 -0.70597042799E+01 -0.13660186552E+01  0.28275031492E+02  0.00000000000E+00 0.  1.
</event>
<event>
 7    1  0.6517866E-006  0.5313475E+02  0.7818608E-02  0.1473255E+00
          2   -1    0    0  502    0  0.00000000000E+00  0.00000000000E+00  0.10975350076E+04  0.10975350076E+04  0.00000000000E+00 0. -1.
          1   -1    0    0  501    0 -0.00000000000E+00 -0.00000000000E+00 -0.30663481151E+04  0.30663481151E+04  0.00000000000E+00 0. -1.
         25    2    1    2    0    0 -0.20148217744E+02 -0.31564961953E+02 -0.26438676766E+03  0.29483468695E+03  0.12499932886E+03 0.  0.
          2    1    1    2  501    0 -0.32029536572E+02  0.21194462579E+02 -0.27859512360E+04  0.27862159618E+04  0.00000000000E+00 0. -1.
          1    1    1    2  502    0  0.52177754316E+02  0.10370499374E+02  0.10815248962E+04  0.10828324739E+04  0.00000000000E+00 0. -1.
         22    1    3    3    0    0  0.20187207861E+02 -0.61011540825E+02 -0.21577395035E+03  0.22514068740E+03  0.00000000000E+00 0.  1.
         22    1    3    3    0    0 -0.40335425605E+02  0.29446578872E+02 -0.48612817308E+02  0.69693999545E+02  0.00000000000E+00 0.  1.
</event>
<event>
 7    1  0.5889087E-006  0.7497482E+02  0.7818608E-02  0.1386784E+00
          2   -1    0    0  502    0  0.00000000000E+00  0.00000000000E+00  0.97774568188E+03  0.97774568188E+03  0.00000000000E+00 0. -1.
          1   -1    0    0  501    0 -0.00000000000E+00 -0.00000000000E+00 -0.28869587258E+03  0.28869587258E+03  0.00000000000E+00 0. -1.
         25    2    1    2    0    0  0.12008129673E+03 -0.38313844339E+02  0.14607153273E+02  0.17811379095E+03  0.12499474031E+03 0.  0.
          2    1    1    2  501    0 -0.48203014163E+02  0.20695160165E+02 -0.20203351553E+03  0.20873275168E+03  0.00000000000E+00 0. -1.
          1    1    1    2  502    0 -0.71878282571E+02  0.17618684174E+02  0.87647617155E+03  0.87959501183E+03  0.00000000000E+00 0. -1.
         22    1    3    3    0    0  0.39223843034E+02 -0.37503443672E+02 -0.50628970399E+02  0.74217995077E+02  0.00000000000E+00 0. -1.
         22    1    3    3    0    0  0.80857453700E+02 -0.81040066731E+00  0.65236123673E+02  0.10389579587E+03  0.00000000000E+00 0. -1.
</event>
<event>
 7    1  0.5889087E-006  0.5930136E+02  0.7818608E-02  0.1440746E+00
          2   -1    0    0  502    0  0.00000000000E+00  0.00000000000E+00  0.21074019789E+04  0.21074019789E+04  0.00000000000E+00 0. -1.
          1   -1    0    0  501    0 -0.00000000000E+00 -0.00000000000E+00 -0.75432824612E+02  0.75432824612E+02  0.00000000000E+00 0. -1.
         25    2    1    2    0    0 -0.39238812005E+02 -0.13599806684E+01  0.20385799285E+02  0.13254275625E+03  0.12494185651E+03 0.  0.
          2    1    1    2  501    0  0.82670049105E+02  0.54573746404E+01  0.70691762505E+02  0.10891026234E+03  0.00000000000E+00 0. -1.
          1    1    1    2  502    0 -0.43431237100E+02 -0.40973939720E+01  0.19408915925E+04  0.19413817849E+04  0.00000000000E+00 0. -1.
         22    1    3    3    0    0 -0.64745199612E+02 -0.26209025938E+02 -0.25590386807E+02  0.74388989846E+02  0.00000000000E+00 0. -1.
         22    1    3    3    0    0  0.25506387606E+02  0.24849045269E+02  0.45976186092E+02  0.58153766405E+02  0.00000000000E+00 0. -1.
</event>
<event>
 7    1  0.5889087E-006  0.2609299E+03  0.7818608E-02  0.1313050E+00
          2   -1    0    0  502    0  0.00000000000E+00  0.00000000000E+00  0.10291521441E+04  0.10291521441E+04  0.00000000000E+00 0. -1.
          1   -1    0    0  501    0 -0.00000000000E+00 -0.00000000000E+00 -0.21591142946E+03  0.21591142946E+03  0.00000000000E+00 0. -1.
         25    2    1    2    0    0  0.24156416532E+03 -0.14089524347E+03  0.23185239280E+03  0.38416498197E+03  0.12498994248E+03 0.  0.
          2    1    1    2  501    0 -0.22486681588E+03  0.11805774431E+03 -0.23765959034E+02  0.25508339163E+03  0.00000000000E+00 0. -1.
          1    1    1    2  502    0 -0.16697349434E+02  0.22837499163E+02  0.60515428085E+03  0.60581519994E+03  0.00000000000E+00 0. -1.
         22    1    3    3    0    0  0.24287182675E+02  0.13231526576E+02  0.62905304368E+02  0.68716940091E+02  0.00000000000E+00 0.  1.
         22    1    3    3    0    0  0.21727698264E+03 -0.15412677005E+03  0.16894708844E+03  0.31544804188E+03  0.00000000000E+00 0.  1.
</event>
<event>
 7    1  0.5889087E-006  0.8179734E+02  0.7818608E-02  0.1401067E+00
          2   -1    0    0  502    0  0.00000000000E+00  0.00000000000E+00  0.66766730113E+03  0.66766730113E+03  0.00000000000E+00 0. -1.
          1   -1    0    0  501    0 -0.00000000000E+00 -0.00000000000E+00 -0.53731733738E+03  0.53731733738E+03  0.00000000000E+00 0. -1.
         25    2    1    2    0    0 -0.54082914709E+02  0.42597196515E+02  0.31750020678E+03  0.34809559498E+03  0.12499871649E+03 0.  0.
          2    1    1    2  501    0  0.28391890726E+02 -0.76950225619E+02 -0.51740205731E+03  0.52386288816E+03  0.00000000000E+00 0. -1.
          1    1    1    2  502    0  0.25691023983E+02  0.34353029104E+02  0.33025181428E+03  0.33302615537E+03  0.00000000000E+00 0. -1.
         22    1    3    3    0    0  0.35054571767E+02  0.38940975033E+02  0.13890518884E+03  0.14845832420E+03  0.00000000000E+00 0. -1.
         22    1    3    3    0    0 -0.89137486476E+02  0.36562214822E+01  0.17859501794E+03  0.19963727078E+03  0.00000000000E+00 0. -1.
</event>
<event>
 7    1  0.5889087E-006  0.7864676E+02  0.7818608E-02  0.1407387E+00
          2   -1    0    0  502    0  0.00000000000E+00  0.00000000000E+00  0.48494261580E+03  0.48494261580E+03  0.00000000000E+00 0. -1.
          1   -1    0    0  501    0 -0.00000000000E+00 -0.00000000000E+00 -0.95991028650E+03  0.95991028650E+03  0.00000000000E+00 0. -1.
         25    2    1    2    0    0 -0.10694661131E+02 -0.37074314858E+02  0.60024285698E+02  0.14395087809E+03  0.12502023769E+03 0.  0.
          2    1    1    2  501    0  0.51849825589E+01  0.79166249736E+02 -0.91504884859E+03  0.91848166799E+03  0.00000000000E+00 0. -1.
          1    1    1    2  502    0  0.55096785717E+01 -0.42091934878E+02  0.38005689219E+03  0.38242035621E+03  0.00000000000E+00 0. -1.
         22    1    3    3    0    0  0.22675283315E+00  0.37345382633E+02 -0.12581301102E+02  0.39408351377E+02  0.00000000000E+00 0. -1.
         22    1    3    3    0    0 -0.10921413964E+02 -0.74419697491E+02  0.72605586800E+02  0.10454252672E+03  0.00000000000E+00 0. -1.
</event>
<event>
 7    1  0.5889087E-006  0.7523415E+02  0.7818608E-02  0.1461588E+00
          2   -1    0    0  502    0  0.00000000000E+00  0.00000000000E+00  0.42133226125E+03  0.42133226125E+03  0.00000000000E+00 0. -1.
          1   -1    0    0  501    0 -0.00000000000E+00 -0.00000000000E+00 -0.80063683955E+03  0.80063683955E+03  0.00000000000E+00 0. -1.
         25    2    1    2    0    0  0.74397161213E+02  0.52877029242E+02  0.63914754036E+02  0.16746858918E+03  0.12501885762E+03 0.  0.
          2    1    1    2  501    0 -0.45662389496E+02 -0.59545045998E+02 -0.74626222528E+03  0.75002531637E+03  0.00000000000E+00 0. -1.
          1    1    1    2  502    0 -0.28734771717E+02  0.66680167557E+01  0.30304289295E+03  0.30447519524E+03  0.00000000000E+00 0. -1.
         22    1    3    3    0    0 -0.20409558519E+02  0.16304326041E+02  0.60382623929E+02  0.65790899060E+02  0.00000000000E+00 0.  1.
         22    1    3    3    0    0  0.94806719731E+02  0.36572703202E+02  0.35321301073E+01  0.10167769012E+03  0.00000000000E+00 0.  1.
</event>
<event>
 7    1  0.5889087E-006  0.1303436E+03  0.7818608E-02  0.1332221E+00
          2   -1    0    0  502    0  0.00000000000E+00  0.00000000000E+00  0.78806765299E+03  0.78806765299E+03  0.00000000000E+00 0. -1.
          1   -1    0    0  501    0 -0.00000000000E+00 -0.00000000000E+00 -0.58771087957E+03  0.58771087957E+03  0.00000000000E+00 0. -1.
         25    2    1    2    0    0 -0.89924152379E+02 -0.25234184521E+02  0.17893171030E+03  0.23740882354E+03  0.12499310099E+03 0.  0.
          2    1    1    2  501    0  0.13181771191E+03  0.23173453121E+01 -0.54968125563E+03  0.56527052112E+03  0.00000000000E+00 0. -1.
          1    1    1    2  502    0 -0.41893559526E+02  0.22916839209E+02  0.57110631875E+03  0.57309918790E+03  0.00000000000E+00 0. -1.
         22    1    3    3    0    0 -0.19716226089E+02  0.20908706934E+02 -0.10169440367E+02  0.30484768561E+02  0.00000000000E+00 0.  1.
         22    1    3    3    0    0 -0.70207926290E+02 -0.46142891455E+02  0.18910115067E+03  0.20692405498E+03  0.00000000000E+00 0.  1.
</event>
<event>
 7    1  0.5889087E-006  0.4743542E+02  0.7818608E-02  0.1572619E+00
          2   -1    0    0  502    0  0.00000000000E+00  0.00000000000E+00  0.51316788804E+03  0.51316788804E+03  0.00000000000E+00 0. -1.
          1   -1    0    0  501    0 -0.00000000000E+00 -0.00000000000E+00 -0.43729747757E+02  0.43729747757E+02  0.00000000000E+00 0. -1.
         25    2    1    2    0    0 -0.30402478610E+02 -0.50333135687E+02  0.26849908394E+03  0.30195027462E+03  0.12499790003E+03 0.  0.
          2    1    1    2  501    0  0.21625919592E+02  0.49279376430E+01 -0.19607524165E+02  0.29604391084E+02  0.00000000000E+00 0. -1.
          1    1    1    2  502    0  0.87765590184E+01  0.45405198044E+02  0.22054658051E+03  0.22534297010E+03  0.00000000000E+00 0. -1.
         22    1    3    3    0    0  0.46065888982E+02 -0.36318783579E+02  0.92311951501E+02  0.10937374712E+03  0.00000000000E+00 0.  1.
         22    1    3    3    0    0 -0.76468367593E+02 -0.14014352108E+02  0.17618713244E+03  0.19257652750E+03  0.00000000000E+00 0.  1.
</event>
<event>
 7    1  0.5889087E-006  0.5796094E+02  0.7818608E-02  0.1520017E+00
          2   -1    0    0  502    0  0.00000000000E+00  0.00000000000E+00  0.23732588252E+04  0.23732588252E+04  0.00000000000E+00 0. -1.
          1   -1    0    0  501    0 -0.00000000000E+00 -0.00000000000E+00 -0.34263697179E+03  0.34263697179E+03  0.00000000000E+00 0. -1.
         25    2    1    2    0    0 -0.31415343740E+02 -0.58301632348E+02  0.19248084484E+04  0.19299993490E+04  0.12499568002E+03 0.  0.
          2    1    1    2  501    0  0.44889163587E+02  0.36659919974E+02 -0.33720286729E+03  0.34214727889E+03  0.00000000000E+00 0. -1.
          1    1    1    2  502    0 -0.13473819847E+02  0.21641712374E+02  0.44301627233E+03  0.44374916911E+03  0.00000000000E+00 0. -1.
         22    1    3    3    0    0  0.30019661239E+02  0.23650742313E+02  0.62035562589E+03  0.62153168885E+03  0.00000000000E+00 0.  1.
         22    1    3    3    0    0 -0.61435004979E+02 -0.81952374661E+02  0.13044528225E+04  0.13084676601E+04  0.00000000000E+00 0.  1.
</event>
<event>
 7    1  0.5889087E-006  0.1091604E+03  0.7818608E-02  0.1389365E+00
          2   -1    0    0  502    0  0.00000000000E+00  0.00000000000E+00  0.11948648105E+03  0.11948648105E+03  0.00000000000E+00 0. -1.
          1   -1    0    0  501    0 -0.00000000000E+00 -0.00000000000E+00 -0.24319877093E+03  0.24319877093E+03  0.00000000000E+00 0. -1.
         25    2    1    2    0    0  0.10114463971E+03 -0.76256656499E+02 -0.10843277457E+03  0.20839649343E+03  0.12500446421E+03 0.  0.
          2    1    1    2  501    0 -0.65958115727E+02  0.73582946145E+02 -0.44593319168E+02  0.10841350058E+03  0.00000000000E+00 0. -1.
          1    1    1    2  502    0 -0.35186523982E+02  0.26737103536E+01  0.29313803857E+02  0.45875257968E+02  0.00000000000E+00 0. -1.
         22    1    3    3    0    0  0.33560949170E+02 -0.93780914328E+02 -0.31413075945E+02  0.10444126838E+03  0.00000000000E+00 0.  1.
         22    1    3    3    0    0  0.67583690539E+02  0.17524257829E+02 -0.77019698623E+02  0.10395522505E+03  0.00000000000E+00 0.  1.
</event>
<event>
 7    1  0.5889087E-006  0.6417925E+02  0.7818608E-02  0.1470782E+00
          2   -1    0    0  502    0  0.00000000000E+00  0.00000000000E+00  0.11840322979E+04  0.11840322979E+04  0.00000000000E+00 0. -1.
          1   -1    0    0  501    0 -0.00000000000E+00 -0.00000000000E+00 -0.11052577977E+04  0.11052577977E+04  0.00000000000E+00 0. -1.
         25    2    1    2    0    0 -0.53633096445E+02 -0.69194625001E+01  0.38838442779E+02  0.14162316720E+03  0.12499723539E+03 0.  0.
          2    1    1    2  501    0  0.24085764852E+01 -0.32274447477E+02 -0.10526656803E+04  0.10531630812E+04  0.00000000000E+00 0. -1.
          1    1    1    2  502    0  0.51224519959E+02  0.39193909977E+02  0.10926017377E+04  0.10945038471E+04  0.00000000000E+00 0. -1.
         22    1    3    3    0    0  0.27434098818E+02 -0.11968889529E+02  0.51354249455E+02  0.59440247574E+02  0.00000000000E+00 0. -1.
         22    1    3    3    0    0 -0.81067195263E+02  0.50494270284E+01 -0.12515806676E+02  0.82182919623E+02  0.00000000000E+00 0. -1.
</event>
<event>
 7    1  0.5889087E-006  0.1553783E+03  0.7818608E-02  0.1358611E+00
          2   -1    0    0  502    0  0.00000000000E+00  0.00000000000E+00  0.42914239166E+03  0.42914239166E+03  0.00000000000E+00 0. -1.
          1   -1    0    0  501    0 -0.00000000000E+00 -0.00000000000E+00 -0.13295900413E+04  0.13295900413E+04  0.00000000000E+00 0. -1.
         25    2    1    2    0    0  0.57039612612E+02  0.17708749162E+03 -0.87251105681E+03  0.90084167638E+03  0.12500673802E+03 0.  0.
          2    1    1    2  501    0 -0.15626934137E+02 -0.27846474606E+02 -0.42784662811E+03  0.42903655369E+03  0.00000000000E+00 0. -1.
          1    1    1    2  502    0 -0.41412678475E+02 -0.14924101701E+03  0.39991003523E+03  0.42885420293E+03  0.00000000000E+00 0. -1.
         22    1    3    3    0    0  0.33703968957E+02  0.33789161063E+02 -0.66465703117E+02  0.81825146622E+02  0.00000000000E+00 0. -1.
         22    1    3    3    0    0  0.23335643655E+02  0.14329833056E+03 -0.80604535369E+03  0.81901652975E+03  0.00000000000E+00 0. -1.
</event>
<event>
 7    1  0.5889087E-006  0.2040244E+03  0.7818608E-02  0.1202541E+00
          2   -1    0    0  502    0  0.00000000000E+00  0.00000000000E+00  0.75142235386E+03  0.75142235386E+03  0.00000000000E+00 0. -1.
          1   -1    0    0  501    0 -0.00000000000E+00 -0.00000000000E+00 -0.65631485251E+03  0.65631485251E+03  0.00000000000E+00 0. -1.
         25    2    1    2    0    0 -0.24598465420E+03  0.68023876795E+02 -0.19840707711E+03  0.34658878213E+03  0.12499087059E+03 0.  0.
          2    1    1    2  501    0  0.89489857010E+02  0.60172653405E+02 -0.36064487902E+03  0.37642251725E+03  0.00000000000E+00 0. -1.
          1    1    1    2  502    0  0.15649479719E+03 -0.12819653020E+03  0.65415945749E+03  0.68472590700E+03  0.00000000000E+00 0. -1.
         22    1    3    3    0    0 -0.15205085990E+02  0.20503541099E+02 -0.77826629328E+02  0.81905885443E+02  0.00000000000E+00 0. -1.
         22    1    3    3    0    0 -0.23077956821E+03  0.47520335696E+02 -0.12058044778E+03  0.26468289669E+03  0.00000000000E+00 0. -1.
</event>
<event>
 7    1  0.5889087E-006  0.2572726E+03  0.7818608E-02  0.1228826E+00
          2   -1    0    0  502    0  0.00000000000E+00  0.00000000000E+00  0.13584400799E+03  0.13584400799E+03  0.00000000000E+00 0. -1.
          1   -1    0    0  501    0 -0.00000000000E+00 -0.00000000000E+00 -0.16997418116E+04  0.16997418116E+04  0.00000000000E+00 0. -1.
         25    2    1    2    0    0 -0.23116770774E+01 -0.29807640969E+03 -0.53650058857E+03  0.62634896358E+03  0.12500101111E+03 0.  0.
          2    1    1    2  501    0  0.35415080851E+02  0.54222441009E+02 -0.94864403749E+03  0.95085214988E+03  0.00000000000E+00 0. -1.
          1    1    1    2  502    0 -0.33103403773E+02  0.24385396868E+03 -0.78753177524E+02  0.25838470611E+03  0.00000000000E+00 0. -1.
         22    1    3    3    0    0  0.25727101919E+02 -0.29548089842E+02 -0.14901415170E+03  0.15407852152E+03  0.00000000000E+00 0.  1.
         22    1    3    3    0    0 -0.28038778997E+02 -0.26852831984E+03 -0.38748643687E+03  0.47227044206E+03  0.00000000000E+00 0.  1.
</event>
<event>
 7    1  0.5889087E-006  0.1322849E+03  0.7818608E-02  0.1250213E+00
          2   -1    0    0  502    0  0.00000000000E+00  0.00000000000E+00  0.12631070349E+03  0.12631070349E+03  0.00000000000E+00 0. -1.
          1   -1    0    0  501    0 -0.00000000000E+00 -0.00000000000E+00 -0.17791642156E+04  0.17791642156E+04  0.00000000000E+00 0. -1.
         25    2    1    2    0    0  0.16006302287E+03 -0.58827274398E+02 -0.47213090973E+03  0.51731374293E+03  0.12500037280E+03 0.  0.
          2    1    1    2  501    0 -0.33707070050E+02  0.95577524639E+02 -0.12397865129E+04  0.12439219539E+04  0.00000000000E+00 0. -1.
          1    1    1    2  502    0 -0.12635595282E+03 -0.36750250241E+02  0.59063910542E+02  0.14423922225E+03  0.00000000000E+00 0. -1.
         22    1    3    3    0    0  0.19781428490E+02  0.14728666063E+02 -0.20705250770E+03  0.20851613717E+03  0.00000000000E+00 0.  1.
         22    1    3    3    0    0  0.14028159438E+03 -0.73555940460E+02 -0.26507840203E+03  0.30879760576E+03  0.00000000000E+00 0.  1.
</event>
<event>
 7    1  0.5889087E-006  0.6326779E+02  0.7818608E-02  0.1397972E+00
          2   -1    0    0  502    0  0.00000000000E+00  0.00000000000E+00  0.77560268368E+03  0.77560268368E+03  0.00000000000E+00 0. -1.
          1   -1    0    0  501    0 -0.00000000000E+00 -0.00000000000E+00 -0.29534508392E+02  0.29534508392E+02  0.00000000000E+00 0. -1.
         25    2    1    2    0    0 -0.19139636759E+02  0.27325743200E+02  0.56565579714E+03  0.58026499421E+03  0.12501184237E+03 0.  0.
          2    1    1    2  501    0 -0.23639355513E+02 -0.64748805235E+02  0.58677458188E+02  0.90522212787E+02  0.00000000000E+00 0. -1.
          1    1    1    2  502    0  0.42778992272E+02  0.37423062035E+02  0.12173491996E+03  0.13434998508E+03  0.00000000000E+00 0. -1.
         22    1    3    3    0    0 -0.27496974979E+02 -0.17411134319E+01  0.53972029924E+03  0.54042309029E+03  0.00000000000E+00 0.  1.
         22    1    3    3    0    0  0.83573382195E+01  0.29066856632E+02  0.25935497900E+02  0.39841903919E+02  0.00000000000E+00 0.  1.
</event>
<event>
 7    1  0.5889087E-006  0.7365371E+02  0.7818608E-02  0.1439812E+00
          2   -1    0    0  502    0  0.00000000000E+00  0.00000000000E+00  0.29269853705E+04  0.29269853705E+04  0.00000000000E+00 0. -1.
          1   -1    0    0  501    0 -0.00000000000E+00 -0.00000000000E+00 -0.94853242935E+03  0.94853242935E+03  0.00000000000E+00 0. -1.
         25    2    1    2    0    0  0.48533354924E+02  0.96938594654E+02  0.12481254145E+03  0.20725908840E+03  0.12500232618E+03 0.  0.
          2    1    1    2  501    0 -0.12976500021E+02 -0.32902856284E+02 -0.90647843251E+03  0.90716819615E+03  0.00000000000E+00 0. -1.
          1    1    1    2  502    0 -0.35556854903E+02 -0.64035738370E+02  0.27601188322E+04  0.27610905153E+04  0.00000000000E+00 0. -1.
         22    1    3    3    0    0 -0.14034840584E+02  0.49645381915E+02 -0.87917147167E+01  0.52334834894E+02  0.00000000000E+00 0. -1.
         22    1    3    3    0    0  0.62568195508E+02  0.47293212739E+02  0.13360425616E+03  0.15492425351E+03  0.00000000000E+00 0. -1.
</event>
<event>
 7    1  0.5889087E-006  0.1904308E+03  0.7818608E-02  0.1278095E+00
          2   -1    0    0  502    0  0.00000000000E+00  0.00000000000E+00  0.21936759700E+04  0.21936759700E+04  0.00000000000E+00 0. -1.
          1   -1    0    0  501    0 -0.00000000000E+00 -0.00000000000E+00 -0.51819876323E+03  0.51819876323E+03  0.00000000000E+00 0. -1.
         25    2    1    2    0    0  0.14305073818E+03 -0.49118087496E+02  0.10507607983E+03  0.22257499956E+03  0.12499019028E+03 0.  0.
          2    1    1    2  501    0 -0.17121571952E+03  0.94751408706E+02 -0.43823904556E+03  0.47994386455E+03  0.00000000000E+00 0. -1.
          1    1    1    2  502    0  0.28164981348E+02 -0.45633321210E+02  0.20086401725E+04  0.20093558691E+04  0.00000000000E+00 0. -1.
         22    1    3    3    0    0  0.43969637132E+01 -0.50694907087E+02  0.41157579314E+01  0.51051408970E+02  0.00000000000E+00 0. -1.
         22    1    3    3    0    0  0.13865377446E+03  0.15768195909E+01  0.10096032190E+03  0.17152359060E+03  0.00000000000E+00 0. -1.
</event>
<event>
 7    1  0.5889087E-006  0.1020538E+03  0.7818608E-02  0.1332268E+00
          2   -1    0    0  502    0  0.00000000000E+00  0.00000000000E+00  0.31295946260E+03  0.31295946260E+03  0.00000000000E+00 0. -1.
          1   -1    0    0  501    0 -0.00000000000E+00 -0.00000000000E+00 -0.63515797082E+03  0.63515797082E+03  0.00000000000E+00 0. -1.
         25    2    1    2    0    0  0.84891273162E+02  0.24277481390E+02 -0.12518381504E+03  0.19771662167E+03  0.12499980230E+03 0.  0.
          2    1    1    2  501    0 -0.10095003116E+03  0.34533864976E+02 -0.46422304358E+03  0.47632607614E+03  0.00000000000E+00 0. -1.
          1    1    1    2  502    0  0.16058757996E+02 -0.58811346365E+02  0.26720835041E+03  0.27407473561E+03  0.00000000000E+00 0. -1.
         22    1    3    3    0    0  0.11196058173E+03 -0.38809506751E+01 -0.78221966991E+02  0.13663421884E+03  0.00000000000E+00 0.  1.
         22    1    3    3    0    0 -0.27069308568E+02  0.28158432065E+02 -0.46961848051E+02  0.61082402826E+02  0.00000000000E+00 0.  1.
</event>
<event>
 7    1  0.5889087E-006  0.3897570E+03  0.7818608E-02  0.1196792E+00
          2   -1    0    0  502    0  0.00000000000E+00  0.00000000000E+00  0.38568017560E+03  0.38568017560E+03  0.00000000000E+00 0. -1.
          1   -1    0    0  501    0 -0.00000000000E+00 -0.00000000000E+00 -0.10619968044E+04  0.10619968044E+04  0.00000000000E+00 0. -1.
         25    2    1    2    0    0  0.11251097562E+03 -0.33576977391E+03 -0.33855410539E+03  0.50561255310E+03  0.12500044348E+03 0.  0.
          2    1    1    2  501    0  0.51699233927E+02 -0.30623305754E+02 -0.50395167295E+03  0.50752131612E+03  0.00000000000E+00 0. -1.
          1    1    1    2  502    0 -0.16421020955E+03  0.36639307966E+03  0.16618914950E+03  0.43454311082E+03  0.00000000000E+00 0. -1.
         22    1    3    3    0    0  0.99860366814E+02 -0.11455515227E+03 -0.11254662250E+03  0.18910768892E+03  0.00000000000E+00 0. -1.
         22    1    3    3    0    0  0.12650608811E+02 -0.22121462164E+03 -0.22600748288E+03  0.31650486418E+03  0.00000000000E+00 0. -1.
</event>
<event>
 7    1  0.5889087E-006  0.8239420E+02  0.7818608E-02  0.1346295E+00
          2   -1    0    0  502    0  0.00000000000E+00  0.00000000000E+00  0.71690916075E+03  0.71690916075E+03  0.00000000000E+00 0. -1.
          1   -1    0    0  501    0 -0.00000000000E+00 -0.00000000000E+00 -0.20895397179E+03  0.20895397179E+03  0.00000000000E+00 0. -1.
         25    2    1    2    0    0 -0.50525439382E+02 -0.13588683130E+03  0.13223837513E+03  0.23266412151E+03  0.12501021813E+03 0.  0.
          2    1    1    2  501    0  0.29567001161E+02  0.59969075659E+02 -0.14862675293E+03  0.16297364597E+03  0.00000000000E+00 0. -1.
          1    1    1    2  502    0  0.20958438221E+02  0.75917755637E+02  0.52434356676E+03  0.53022536506E+03  0.00000000000E+00 0. -1.
         22    1    3    3    0    0  0.30801548294E+02 -0.95338615004E+01  0.54894477917E+02  0.63663440044E+02  0.00000000000E+00 0. -1.
         22    1    3    3    0    0 -0.81326987676E+02 -0.12635296980E+03  0.77343897210E+02  0.16900068147E+03  0.00000000000E+00 0. -1.
</event>
<event>
 7    1  0.5889087E-006  0.1131178E+03  0.7818608E-02  0.1442147E+00
          2   -1    0    0  502    0  0.00000000000E+00  0.00000000000E+00  0.16633283399E+04  0.16633283399E+04  0.00000000000E+00 0. -1.
          1   -1    0    0  501    0 -0.00000000000E+00 -0.00000000000E+00 -0.18726597116E+02  0.18726597116E+02  0.00000000000E+00 0. -1.
         25    2    1    2    0    0 -0.11168262936E+03  0.55723952734E+02  0.76230221053E+03  0.78250055235E+03  0.12499714256E+03 0.  0.
          2    1    1    2  501    0  0.89584858923E+02 -0.60612038432E+02  0.34016075791E+03  0.35694342321E+03  0.00000000000E+00 0. -1.
          1    1    1    2  502    0  0.22097770434E+02  0.48880856983E+01  0.54213877437E+03  0.54261096147E+03  0.00000000000E+00 0. -1.
         22    1    3    3    0    0 -0.11386780230E+03  0.64268026141E+02  0.76254928419E+03  0.77367801209E+03  0.00000000000E+00 0. -1.
         22    1    3    3    0    0  0.21851729464E+01 -0.85440734067E+01 -0.24707365945E+00  0.88225402566E+01  0.00000000000E+00 0. -1.
</event>
<event>
 7    1  0.5889087E-006  0.5223426E+02  0.7818608E-02  0.1436666E+00
          2   -1    0    0  502    0  0.00000000000E+00  0.00000000000E+00  0.39445181510E+04  0.39445181510E+04  0.00000000000E+00 0. -1.
          1   -1    0    0  501    0 -0.00000000000E+00 -0.00000000000E+00 -0.75134945472E+02  0.75134945472E+02  0.00000000000E+00 0. -1.
         25    2    1    2    0    0  0.13786971928E+02  0.11854960340E+02  0.30363988489E+03  0.32886772572E+03  0.12500472249E+03 0.  0.
          2    1    1    2  501    0 -0.35984528161E+02  0.36228146490E+02 -0.51868838873E+02  0.72785584501E+02  0.00000000000E+00 0. -1.
          1    1    1    2  502    0  0.22197556234E+02 -0.48083106830E+02  0.36176121596E+04  0.36179997863E+04  0.00000000000E+00 0. -1.
         22    1    3    3    0    0 -0.33655958858E+02 -0.42366010153E+02  0.12194358722E+03  0.13340854863E+03  0.00000000000E+00 0. -1.
         22    1    3    3    0    0  0.47442930786E+02  0.54220970493E+02  0.18169629767E+03  0.19545917709E+03  0.00000000000E+00 0. -1.
</event>
<event>
 7    1  0.5889087E-006  0.7747914E+02  0.7818608E-02  0.1351844E+00
          2   -1    0    0  502    0  0.00000000000E+00  0.00000000000E+00  0.14042489800E+04  0.14042489800E+04  0.00000000000E+00 0. -1.
          1   -1    0    0  501    0 -0.00000000000E+00 -0.00000000000E+00 -0.31565048084E+02  0.31565048084E+02  0.00000000000E+00 0. -1.
         25    2    1    2    0    0  0.56636851800E+02  0.62140339638E+02  0.25873426127E+03  0.29939504185E+03  0.12499927335E+03 0.  0.
          2    1    1    2  501    0  0.22383757625E+02 -0.64010257685E+02  0.10904253742E+03  0.12840802413E+03  0.00000000000E+00 0. -1.
          1    1    1    2  502    0 -0.79020609425E+02  0.18699180472E+01  0.10049071333E+04  0.10080109621E+04  0.00000000000E+00 0. -1.
         22    1    3    3    0    0  0.57512977768E+02 -0.77823282849E+01  0.19943775509E+03  0.20771067715E+03  0.00000000000E+00 0.  1.
         22    1    3    3    0    0 -0.87612596709E+00  0.69922667923E+02  0.59296506178E+02  0.91684364704E+02  0.00000000000E+00 0.  1.
</event>
<event>
 7    1  0.5889087E-006  0.4939379E+02  0.7818608E-02  0.1539490E+00
          2   -1    0    0  502    0  0.00000000000E+00  0.00000000000E+00  0.55178328209E+03  0.55178328209E+03  0.00000000000E+00 0. -1.
          1   -1    0    0  501    0 -0.00000000000E+00 -0.00000000000E+00 -0.61350334054E+03  0.61350334054E+03  0.00000000000E+00 0. -1.
         25    2    1    2    0    0  0.33307595961E+02  0.56539119930E+02 -0.34006290208E+03  0.36819370699E+03  0.12497103849E+03 0.  0.
          2    1    1    2  501    0  0.52840994583E+01 -0.25771281131E+02 -0.25757107400E+03  0.25891106349E+03  0.00000000000E+00 0. -1.
          1    1    1    2  502    0 -0.38591695419E+02 -0.30767838800E+02  0.53591391764E+03  0.53818185215E+03  0.00000000000E+00 0. -1.
         22    1    3    3    0    0  0.38996769219E+02 -0.11045828633E+02 -0.29037507725E+02  0.49859153569E+02  0.00000000000E+00 0.  1.
         22    1    3    3    0    0 -0.56891732583E+01  0.67584948564E+02 -0.31102539436E+03  0.31833455342E+03  0.00000000000E+00 0.  1.
</event>
<event>
 7    1  0.5889087E-006  0.4108128E+02  0.7818608E-02  0.1505258E+00
          2   -1    0    0  502    0  0.00000000000E+00  0.00000000000E+00  0.31502762690E+02  0.31502762690E+02  0.00000000000E+00 0. -1.
          1   -1    0    0  501    0 -0.00000000000E+00 -0.00000000000E+00 -0.84231236186E+03  0.84231236186E+03  0.00000000000E+00 0. -1.
         25    2    1    2    0    0 -0.63337993920E+01 -0.28924471740E+02 -0.64750242418E+03  0.66012144989E+03  0.12499678877E+03 0.  0.
          2    1    1    2  501    0 -0.33374887168E+02  0.39454982846E+02 -0.16467132169E+03  0.17258975332E+03  0.00000000000E+00 0. -1.
          1    1    1    2  502    0  0.39708686560E+02 -0.10530511106E+02  0.13641467110E+01  0.41103921330E+02  0.00000000000E+00 0. -1.
         22    1    3    3    0    0  0.14289532170E+02  0.34119835644E+01 -0.36634034972E+01  0.15141099256E+02  0.00000000000E+00 0. -1.
         22    1    3    3    0    0 -0.20623331562E+02 -0.32336455305E+02 -0.64383902069E+03  0.64498035064E+03  0.00000000000E+00 0. -1.
</event>
<event>
 7    1  0.5889087E-006  0.4889914E+02  0.7818608E-02  0.1460748E+00
          2   -1    0    0  502    0  0.00000000000E+00  0.00000000000E+00  0.11115247773E+04  0.11115247773E+04  0.00000000000E+00 0. -1.
          1   -1    0    0  501    0 -0.00000000000E+00 -0.00000000000E+00 -0.31794395723E+03  0.31794395723E+03  0.00000000000E+00 0. -1.
         25    2    1    2    0    0 -0.66649760170E+02  0.64175587201E+02 -0.36969937286E+02  0.15985000647E+03  0.12499820711E+03 0.  0.
          2    1    1    2  501    0  0.36196836954E+02 -0.30151504219E+02 -0.21650333786E+03  0.22156944626E+03  0.00000000000E+00 0. -1.
          1    1    1    2  502    0  0.30452923216E+02 -0.34024082983E+02  0.10470540952E+04  0.10480492818E+04  0.00000000000E+00 0. -1.
         22    1    3    3    0    0 -0.93631485383E+02  0.71217813395E+02 -0.54490434011E+01  0.11776469791E+03  0.00000000000E+00 0. -1.
         22    1    3    3    0    0  0.26981725213E+02 -0.70422261934E+01 -0.31520893885E+02  0.42085308559E+02  0.00000000000E+00 0. -1.
</event>
<event>
 7    1  0.5889087E-006  0.1350128E+03  0.7818608E-02  0.1421052E+00
          2   -1    0    0  502    0  0.00000000000E+00  0.00000000000E+00  0.75550028289E+03  0.75550028289E+03  0.00000000000E+00 0. -1.
          1   -1    0    0  501    0 -0.00000000000E+00 -0.00000000000E+00 -0.80556213487E+03  0.80556213487E+03  0.00000000000E+00 0. -1.
         25    2    1    2    0    0  0.50759922632E+02 -0.10266514199E+03 -0.33424034283E+03  0.37477740400E+03  0.12499917859E+03 0.  0.
          2    1    1    2  501    0  0.16671544876E+02 -0.14722648702E+02 -0.44454119827E+03  0.44509726325E+03  0.00000000000E+00 0. -1.
          1    1    1    2  502    0 -0.67431467508E+02  0.11738779069E+03  0.72871968911E+03  0.74118775052E+03  0.00000000000E+00 0. -1.
         22    1    3    3    0    0 -0.41658304384E+02 -0.37953479016E+02 -0.10012095285E+03  0.11489162761E+03  0.00000000000E+00 0.  1.
         22    1    3    3    0    0  0.92418227016E+02 -0.64711662973E+02 -0.23411938998E+03  0.25988577639E+03  0.00000000000E+00 0.  1.
</event>
<event>
 7    1  0.5889087E-006  0.5221604E+02  0.7818608E-02  0.1479445E+00
          2   -1    0    0  502    0  0.00000000000E+00  0.00000000000E+00  0.13489774425E+03  0.13489774425E+03  0.00000000000E+00 0. -1.
          1   -1    0    0  501    0 -0.00000000000E+00 -0.00000000000E+00 -0.20294196829E+04  0.20294196829E+04  0.00000000000E+00 0. -1.
         25    2    1    2    0    0 -0.48736678416E+02  0.47844036971E+02 -0.87771433593E+02  0.16731025031E+03  0.12499831842E+03 0.  0.
          2    1    1    2  501    0  0.37299523567E+02  0.27687768825E+01 -0.18946046339E+04  0.18949737833E+04  0.00000000000E+00 0. -1.
          1    1    1    2  502    0  0.11437154849E+02 -0.50612813854E+02  0.87854128854E+02  0.10203339352E+03  0.00000000000E+00 0. -1.
         22    1    3    3    0    0 -0.57775827429E+02  0.85655994303E+02 -0.59361252026E+02  0.11915852398E+03  0.00000000000E+00 0. -1.
         22    1    3    3    0    0  0.90391490128E+01 -0.37811957332E+02 -0.28410181567E+02  0.48151726333E+02  0.00000000000E+00 0. -1.
</event>
<event>
 7    1  0.5889087E-006  0.6955232E+02  0.7818608E-02  0.1368812E+00
          2   -1    0    0  502    0  0.00000000000E+00  0.00000000000E+00  0.26564486645E+04  0.26564486645E+04  0.00000000000E+00 0. -1.
          1   -1    0    0  501    0 -0.00000000000E+00 -0.00000000000E+00 -0.13849812365E+03  0.13849812365E+03  0.00000000000E+00 0. -1.
         25    2    1    2    0    0  0.54188761938E+02  0.24232841483E+01  0.12806758922E+04  0.12879044904E+04  0.12499976553E+03 0.  0.
          2    1    1    2  501    0 -0.21370280489E+02  0.66187884750E+02 -0.12478574839E+03  0.14286009932E+03  0.00000000000E+00 0. -1.
          1    1    1    2  502    0 -0.32818481449E+02 -0.68611168899E+02  0.13620603971E+04  0.13641821984E+04  0.00000000000E+00 0. -1.
         22    1    3    3    0    0  0.60430990167E+02 -0.25423419411E+02  0.12087114958E+04  0.12104882218E+04  0.00000000000E+00 0. -1.
         22    1    3    3    0    0 -0.62422282292E+01  0.27846703560E+02  0.71964396357E+02  0.77416268675E+02  0.00000000000E+00 0. -1.
</event>
<event>
 7    1  0.5889087E-006  0.6488599E+02  0.7818608E-02  0.1391753E+00
          2   -1    0    0  502    0  0.00000000000E+00  0.00000000000E+00  0.64742591988E+03  0.64742591988E+03  0.00000000000E+00 0. -1.
          1   -1    0    0  501    0 -0.00000000000E+00 -0.00000000000E+00 -0.10364774820E+04  0.10364774820E+04  0.00000000000E+00 0. -1.
         25    2    1    2    0    0  0.13997401918E+02 -0.63091092784E+02  0.74524015704E+02  0.15923420942E+03  0.12500116513E+03 0.  0.
          2    1    1    2  501    0 -0.59423839006E+02  0.26646368069E+02 -0.99145261830E+03  0.99358920883E+03  0.00000000000E+00 0. -1.
          1    1    1    2  502    0  0.45426437088E+02  0.36444724715E+02  0.52787704048E+03  0.53107998363E+03  0.00000000000E+00 0. -1.
         22    1    3    3    0    0  0.39966298060E+02  0.19480291400E+02  0.54598764900E+02  0.70411730999E+02  0.00000000000E+00 0.  1.
         22    1    3    3    0    0 -0.25968896142E+02 -0.82571384184E+02  0.19925250804E+02  0.88822478419E+02  0.00000000000E+00 0.  1.
</event>
<event>
 7    1  0.5889087E-006  0.1098198E+03  0.7818608E-02  0.1292089E+00
          2   -1    0    0  502    0  0.00000000000E+00  0.00000000000E+00  0.40550375799E+03  0.40550375799E+03  0.00000000000E+00 0. -1.
          1   -1    0    0  501    0 -0.00000000000E+00 -0.00000000000E+00 -0.90903123400E+03  0.90903123400E+03  0.00000000000E+00 0. -1.
         25    2    1    2    0    0 -0.59613176848E+02  0.48552374427E+02  0.35367004568E+02  0.15095165453E+03  0.12499805229E+03 0.  0.
          2    1    1    2  501    0 -0.60242091842E+02 -0.54865711985E+02 -0.83765875955E+03  0.84161247224E+03  0.00000000000E+00 0. -1.
          1    1    1    2  502    0  0.11985526869E+03  0.63133375576E+01  0.29876427897E+03  0.32197086522E+03  0.00000000000E+00 0. -1.
         22    1    3    3    0    0 -0.41976624532E+02  0.57177646537E+02  0.77140335991E+02  0.10479480764E+03  0.00000000000E+00 0.  1.
         22    1    3    3    0    0 -0.17636552316E+02 -0.86252721100E+01 -0.41773331423E+02  0.46156846889E+02  0.00000000000E+00 0.  1.
</event>
<event>
 7    1  0.5889087E-006  0.6155635E+02  0.7818608E-02  0.1499695E+00
          2   -1    0    0  502    0  0.00000000000E+00  0.00000000000E+00  0.16918914841E+03  0.16918914841E+03  0.00000000000E+00 0. -1.
          1   -1    0    0  501    0 -0.00000000000E+00 -0.00000000000E+00 -0.16732993310E+04  0.16732993310E+04  0.00000000000E+00 0. -1.
         25    2    1    2    0    0  0.83234841655E+02 -0.22697925163E+02 -0.25364506092E+03  0.29564055609E+03  0.12499714718E+03 0.  0.
          2    1    1    2  501    0 -0.55732179880E+02  0.24314167448E+02 -0.13967088617E+04  0.13980317947E+04  0.00000000000E+00 0. -1.
          1    1    1    2  502    0 -0.27502661774E+02 -0.16162422850E+01  0.14624374003E+03  0.14881612863E+03  0.00000000000E+00 0. -1.
         22    1    3    3    0    0 -0.33374351430E+02 -0.72732960025E+01 -0.61591222218E+02  0.70428877759E+02  0.00000000000E+00 0.  1.
         22    1    3    3    0    0  0.11660919308E+03 -0.15424629160E+02 -0.19205383870E+03  0.22521167833E+03  0.00000000000E+00 0.  1.
</event>
<event>
 7    1  0.5889087E-006  0.7770144E+02  0.7818608E-02  0.1373928E+00
          2   -1    0    0  502    0  0.00000000000E+00  0.00000000000E+00  0.47966415666E+03  0.47966415666E+03  0.00000000000E+00 0. -1.
          1   -1    0    0  501    0 -0.00000000000E+00 -0.00000000000E+00 -0.67174187141E+03  0.67174187141E+03  0.00000000000E+00 0. -1.
         25    2    1    2    0    0 -0.50137559308E+02 -0.71162250616E+01 -0.21051935313E+03  0.25001596141E+03  0.12500066961E+03 0.  0.
          2    1    1    2  501    0 -0.11880512911E+02  0.54939030091E+02 -0.43632437793E+03  0.43993000169E+03  0.00000000000E+00 0. -1.
          1    1    1    2  502    0  0.62018072219E+02 -0.47822805029E+02  0.45476601632E+03  0.46146006497E+03  0.00000000000E+00 0. -1.
         22    1    3    3    0    0 -0.23743922366E+02 -0.38735885522E+02 -0.11619329222E+02  0.46896177756E+02  0.00000000000E+00 0. -1.
         22    1    3    3    0    0 -0.26393636942E+02  0.31619660461E+02 -0.19890002391E+03  0.20311978365E+03  0.00000000000E+00 0. -1.
</event>
<event>
 7    1  0.5889087E-006  0.1528324E+03  0.7818608E-02  0.1301099E+00
          2   -1    0    0  502    0  0.00000000000E+00  0.00000000000E+00  0.33055135016E+03  0.33055135016E+03  0.00000000000E+00 0. -1.
          1   -1    0    0  501    0 -0.00000000000E+00 -0.00000000000E+00 -0.13875467687E+04  0.13875467687E+04  0.00000000000E+00 0. -1.
         25    2    1    2    0    0  0.72539284438E+02 -0.89937776432E+02 -0.68826766404E+01  0.17036894246E+03  0.12500981522E+03 0.  0.
          2    1    1    2  501    0  0.91459464845E+01 -0.53077374642E+02 -0.12710322833E+04  0.12721729132E+04  0.00000000000E+00 0. -1.
          1    1    1    2  502    0 -0.81685230922E+02  0.14301515107E+03  0.22091954140E+03  0.27555626315E+03  0.00000000000E+00 0. -1.
         22    1    3    3    0    0  0.23565284764E+02 -0.13791416278E+02 -0.59632974581E+02  0.65586717149E+02  0.00000000000E+00 0. -1.
         22    1    3    3    0    0  0.48973999674E+02 -0.76146360154E+02  0.52750297941E+02  0.10478222531E+03  0.00000000000E+00 0. -1.
</event>
<event>
 7    1  0.5889087E-006  0.3055542E+02  0.7818608E-02  0.1642922E+00
          2   -1    0    0  502    0  0.00000000000E+00  0.00000000000E+00  0.19891711718E+03  0.19891711718E+03  0.00000000000E+00 0. -1.
          1   -1    0    0  501    0 -0.00000000000E+00 -0.00000000000E+00 -0.18309331112E+03  0.18309331112E+03  0.00000000000E+00 0. -1.
         25    2    1    2    0    0  0.78451985224E+01 -0.44420803350E+02  0.47377659597E+02  0.14108611382E+03  0.12500357584E+03 0.  0.
          2    1    1    2  501    0  0.10098850998E+02  0.20271383981E+02 -0.13310094933E+03  0.13501399377E+03  0.00000000000E+00 0. -1.
          1    1    1    2  502    0 -0.17944049521E+02  0.24149419368E+02  0.10154709579E+03  0.10591032071E+03  0.00000000000E+00 0. -1.
         22    1    3    3    0    0 -0.15413265080E+02 -0.80437176334E+02  0.70116219076E+01  0.82200188070E+02  0.00000000000E+00 0.  1.
         22    1    3    3    0    0  0.23258463602E+02  0.36016372984E+02  0.40366037690E+02  0.58885925745E+02  0.00000000000E+00 0.  1.
</event>
<event>
 7    1  0.5889087E-006  0.7713240E+02  0.7818608E-02  0.1361082E+00
          2   -1    0    0  502    0  0.00000000000E+00  0.00000000000E+00  0.10520540913E+03  0.10520540913E+03  0.00000000000E+00 0. -1.
          1   -1    0    0  501    0 -0.00000000000E+00 -0.00000000000E+00 -0.92532547038E+03  0.92532547038E+03  0.00000000000E+00 0. -1.
         25    2    1    2    0    0  0.89968914288E+02  0.61961316303E+02 -0.37344827067E+03  0.40868572455E+03  0.12500720110E+03 0.  0.
          2    1    1    2  501    0 -0.13457777244E+02 -0.61547566815E+02 -0.51525601061E+03  0.51909341281E+03  0.00000000000E+00 0. -1.
          1    1    1    2  502    0 -0.76511137045E+02 -0.41374948780E+00  0.68584220023E+02  0.10275174216E+03  0.00000000000E+00 0. -1.
         22    1    3    3    0    0  0.83382790083E+02  0.11009215120E+01 -0.10897583014E+03  0.13722111086E+03  0.00000000000E+00 0.  1.
         22    1    3    3    0    0  0.65861242053E+01  0.60860394791E+02 -0.26447244053E+03  0.27146461369E+03  0.00000000000E+00 0.  1.
</event>
<event>
 7    1  0.1133855E-005  0.1335059E+03  0.7818608E-02  0.1302100E+00
          2   -1    0    0  502    0  0.00000000000E+00  0.00000000000E+00  0.23845084082E+04  0.23845084082E+04  0.00000000000E+00 0. -1.
          1   -1    0    0  501    0 -0.00000000000E+00 -0.00000000000E+00 -0.14037671777E+04  0.14037671777E+04  0.00000000000E+00 0. -1.
         25    2    1    2    0    0 -0.25701259910E+02 -0.68626246079E+02 -0.12760187831E+03  0.19307276949E+03  0.12499895423E+03 0.  0.
          2    1    1    2  501    0 -0.15972249894E+02 -0.58966897288E+02 -0.12407624736E+04  0.12422655608E+04  0.00000000000E+00 0. -1.
          1    1    1    2  502    0  0.41673509804E+02  0.12759314337E+03  0.23491055824E+04  0.23529372556E+04  0.00000000000E+00 0. -1.
         22    1    3    3    0    0 -0.11087235882E+02 -0.97275471667E+02 -0.51874536754E+02  0.11079896999E+03  0.00000000000E+00 0. -1.
         22    1    3    3    0    0 -0.14614024027E+02  0.28649225588E+02 -0.75727341557E+02  0.82273799502E+02  0.00000000000E+00 0. -1.
</event>
<event>
 7    1  0.5889087E-006  0.2318365E+03  0.7818608E-02  0.1228729E+00
          2   -1    0    0  502    0  0.00000000000E+00  0.00000000000E+00  0.78444510955E+03  0.78444510955E+03  0.00000000000E+00 0. -1.
          1   -1    0    0  501    0 -0.00000000000E+00 -0.00000000000E+00 -0.92998804543E+03  0.92998804543E+03  0.00000000000E+00 0. -1.
         25    2    1    2    0    0  0.17871510048E+03 -0.76203421684E+02 -0.30810147472E+03  0.38509419357E+03  0.12499988233E+03 0.  0.
          2    1    1    2  501    0  0.53779039487E+02  0.47784669355E+02 -0.56265693395E+03  0.56723750320E+03  0.00000000000E+00 0. -1.
          1    1    1    2  502    0 -0.23249413997E+03  0.28418752329E+02  0.72521547279E+03  0.76210145820E+03  0.00000000000E+00 0. -1.
         22    1    3    3    0    0  0.62223009232E+01 -0.42119122241E+02 -0.12131793952E+03  0.12857208071E+03  0.00000000000E+00 0. -1.
         22    1    3    3    0    0  0.17249279956E+03 -0.34084299443E+02 -0.18678353519E+03  0.25652211287E+03  0.00000000000E+00 0. -1.
</event>
<event>
 7    1  0.5889087E-006  0.8863999E+02  0.7818608E-02  0.1332655E+00
          2   -1    0    0  502    0  0.00000000000E+00  0.00000000000E+00  0.59499480828E+03  0.59499480828E+03  0.00000000000E+00 0. -1.
          1   -1    0    0  501    0 -0.00000000000E+00 -0.00000000000E+00 -0.16911732848E+04  0.16911732848E+04  0.00000000000E+00 0. -1.
         25    2    1    2    0    0 -0.12137802169E+03  0.77163783323E+02 -0.69968061151E+03  0.72516483571E+03  0.12499682881E+03 0.  0.
          2    1    1    2  501    0  0.52988317954E+02 -0.62460235549E+02 -0.97492593245E+03  0.97836067819E+03  0.00000000000E+00 0. -1.
          1    1    1    2  502    0  0.68389703732E+02 -0.14703547774E+02  0.57842806744E+03  0.58264257920E+03  0.00000000000E+00 0. -1.
         22    1    3    3    0    0 -0.21338051966E+02  0.11054867507E+01 -0.90678015933E+01  0.23211195324E+02  0.00000000000E+00 0.  1.
         22    1    3    3    0    0 -0.10003996972E+03  0.76058296572E+02 -0.69061280992E+03  0.70195364038E+03  0.00000000000E+00 0.  1.
</event>
<event>
 7    1  0.5889087E-006  0.1869203E+03  0.7818608E-02  0.1224156E+00
          2   -1    0    0  502    0  0.00000000000E+00  0.00000000000E+00  0.86819661214E+03  0.86819661214E+03  0.00000000000E+00 0. -1.
          1   -1    0    0  501    0 -0.00000000000E+00 -0.00000000000E+00 -0.18979515174E+04  0.18979515174E+04  0.00000000000E+00 0. -1.
         25    2    1    2    0    0 -0.63821056950E+02 -0.18691753644E+03  0.41933197462E+02  0.23747344759E+03  0.12499581001E+03 0.  0.
          2    1    1    2  501    0 -0.29726825827E+02  0.18495629220E+03 -0.17922749445E+04  0.18020382878E+04  0.00000000000E+00 0. -1.
          1    1    1    2  502    0  0.93547882777E+02  0.19612442405E+01  0.72058684172E+03  0.72663639415E+03  0.00000000000E+00 0. -1.
         22    1    3    3    0    0  0.14451563909E+02  0.12226695484E+02 -0.20007704183E+01  0.19035305727E+02  0.00000000000E+00 0.  1.
         22    1    3    3    0    0 -0.78272620859E+02 -0.19914423193E+03  0.43933967880E+02  0.21843814186E+03  0.00000000000E+00 0.  1.
</event>
<event>
 7    1  0.5889087E-006  0.6611212E+02  0.7818608E-02  0.1378541E+00
          2   -1    0    0  502    0  0.00000000000E+00  0.00000000000E+00  0.17515258134E+04  0.17515258134E+04  0.00000000000E+00 0. -1.
          1   -1    0    0  501    0 -0.00000000000E+00 -0.00000000000E+00 -0.13408070599E+02  0.13408070599E+02  0.00000000000E+00 0. -1.
         25    2    1    2    0    0  0.39625866841E+02  0.27914854109E+02  0.62709339207E+03  0.64126422789E+03  0.12499695672E+03 0.  0.
          2    1    1    2  501    0  0.12454823631E+01 -0.79879702885E+02  0.31752373108E+03  0.32741966642E+03  0.00000000000E+00 0. -1.
          1    1    1    2  502    0 -0.40871349204E+02  0.51964848777E+02  0.79350061962E+03  0.79624998966E+03  0.00000000000E+00 0. -1.
         22    1    3    3    0    0 -0.42255368558E+01  0.71288800933E+02  0.29768255489E+03  0.30612881568E+03  0.00000000000E+00 0. -1.
         22    1    3    3    0    0  0.43851403696E+02 -0.43373946825E+02  0.32941083718E+03  0.33513541221E+03  0.00000000000E+00 0. -1.
</event>
<event>
 7    1  0.5889087E-006  0.1169847E+03  0.7818608E-02  0.1297141E+00
          2   -1    0    0  502    0  0.00000000000E+00  0.00000000000E+00  0.67109852391E+03  0.67109852391E+03  0.00000000000E+00 0. -1.
          1   -1    0    0  501    0 -0.00000000000E+00 -0.00000000000E+00 -0.44549541657E+03  0.44549541657E+03  0.00000000000E+00 0. -1.
         25    2    1    2    0    0 -0.51036372152E+02  0.17918209725E+03 -0.10252316471E+03  0.24667276021E+03  0.12500206426E+03 0.  0.
          2    1    1    2  501    0  0.30784406844E+02 -0.66172206924E+02 -0.26033146674E+03  0.27036810693E+03  0.00000000000E+00 0. -1.
          1    1    1    2  502    0  0.20251965308E+02 -0.11300989033E+03  0.58845773878E+03  0.59955307333E+03  0.00000000000E+00 0. -1.
         22    1    3    3    0    0  0.30427992750E+02  0.85414734397E+01 -0.54434616249E-01  0.31604152804E+02  0.00000000000E+00 0. -1.
         22    1    3    3    0    0 -0.81464364902E+02  0.17064062381E+03 -0.10246873009E+03  0.21506860740E+03  0.00000000000E+00 0. -1.
</event>
<event>
 7    1  0.5889087E-006  0.8127886E+02  0.7818608E-02  0.1478400E+00
          2   -1    0    0  502    0  0.00000000000E+00  0.00000000000E+00  0.11329298523E+03  0.11329298523E+03  0.00000000000E+00 0. -1.
          1   -1    0    0  501    0 -0.00000000000E+00 -0.00000000000E+00 -0.57437128783E+03  0.57437128783E+03  0.00000000000E+00 0. -1.
         25    2    1    2    0    0  0.75454737296E+02 -0.59127800317E+02 -0.50173505828E+03  0.52588229669E+03  0.12499842844E+03 0.  0.
          2    1    1    2  501    0 -0.23986596909E+02 -0.32560413676E+01 -0.40516315843E+02  0.47196721137E+02  0.00000000000E+00 0. -1.
          1    1    1    2  502    0 -0.51468140387E+02  0.62383841685E+02  0.81173071517E+02  0.11458525524E+03  0.00000000000E+00 0. -1.
         22    1    3    3    0    0  0.13514428208E+02 -0.12484619760E+02 -0.38680366198E+03  0.38724098237E+03  0.00000000000E+00 0.  1.
         22    1    3    3    0    0  0.61940309088E+02 -0.46643180558E+02 -0.11493139629E+03  0.13864131432E+03  0.00000000000E+00 0.  1.
</event>
<event>
 7    1  0.5889087E-006  0.1119069E+03  0.7818608E-02  0.1354876E+00
          2   -1    0    0  502    0  0.00000000000E+00  0.00000000000E+00  0.12885176463E+04  0.12885176463E+04  0.00000000000E+00 0. -1.
          1   -1    0    0  501    0 -0.00000000000E+00 -0.00000000000E+00 -0.59054522839E+03  0.59054522839E+03  0.00000000000E+00 0. -1.
         25    2    1    2    0    0  0.33918760180E+02  0.80583811741E+02  0.70711664608E+03  0.72338349784E+03  0.12500200310E+03 0.  0.
          2    1    1    2  501    0 -0.78411892225E+00 -0.11213891771E+03 -0.57608339282E+03  0.58689677728E+03  0.00000000000E+00 0. -1.
          1    1    1    2  502    0 -0.33134641258E+02  0.31555105971E+02  0.56693916464E+03  0.56878259956E+03  0.00000000000E+00 0. -1.
         22    1    3    3    0    0  0.17980504891E+02  0.50728721950E+02  0.67361934308E+03  0.67576602546E+03  0.00000000000E+00 0.  1.
         22    1    3    3    0    0  0.15938255289E+02  0.29855089791E+02  0.33497302996E+02  0.47617472383E+02  0.00000000000E+00 0.  1.
</event>
<event>
 7    1  0.5889087E-006  0.1562603E+03  0.7818608E-02  0.1267750E+00
          2   -1    0    0  502    0  0.00000000000E+00  0.00000000000E+00  0.10058378068E+04  0.10058378068E+04  0.00000000000E+00 0. -1.
          1   -1    0    0  501    0 -0.00000000000E+00 -0.00000000000E+00 -0.17408476506E+04  0.17408476506E+04  0.00000000000E+00 0. -1.
         25    2    1    2    0    0 -0.20396171534E+03 -0.97003624601E+02  0.52293985449E+02  0.26338054679E+03  0.12499826798E+03 0.  0.
          2    1    1    2  501    0  0.13513407993E+03  0.75216479349E+02 -0.16301011038E+04  0.16374212491E+04  0.00000000000E+00 0. -1.
          1    1    1    2  502    0  0.68827635413E+02  0.21787145251E+02  0.84279727443E+03  0.84588366155E+03  0.00000000000E+00 0. -1.
         22    1    3    3    0    0 -0.20209595789E+03 -0.11428166522E+03  0.28495877589E+02  0.23391256965E+03  0.00000000000E+00 0.  1.
         22    1    3    3    0    0 -0.18657574551E+01  0.17278040623E+02  0.23798107860E+02  0.29467977134E+02  0.00000000000E+00 0.  1.
</event>
<event>
 7    1  0.5889087E-006  0.2018545E+02  0.7818608E-02  0.1742950E+00
          2   -1    0    0  502    0  0.00000000000E+00  0.00000000000E+00  0.22723236267E+03  0.22723236267E+03  0.00000000000E+00 0. -1.
          1   -1    0    0  501    0 -0.00000000000E+00 -0.00000000000E+00 -0.10055609815E+03  0.10055609815E+03  0.00000000000E+00 0. -1.
         25    2    1    2    0    0 -0.18356775896E+01  0.14408642142E+02 -0.27055242582E+02  0.12871443805E+03  0.12499776690E+03 0.  0.
          2    1    1    2  501    0 -0.18130538581E+02 -0.11441751161E+02 -0.16871227622E+02  0.27281283334E+02  0.00000000000E+00 0. -1.
          1    1    1    2  502    0  0.19966216171E+02 -0.29668909809E+01  0.17060273472E+03  0.17179273944E+03  0.00000000000E+00 0. -1.
         22    1    3    3    0    0 -0.50723239058E+02 -0.20216367430E+02 -0.39670932578E+02  0.67493195096E+02  0.00000000000E+00 0.  1.
         22    1    3    3    0    0  0.48887561469E+02  0.34625009571E+02  0.12615689996E+02  0.61221242949E+02  0.00000000000E+00 0.  1.
</event>
<event>
 7    1  0.5889087E-006  0.4220917E+02  0.7818608E-02  0.1512495E+00
          2   -1    0    0  502    0  0.00000000000E+00  0.00000000000E+00  0.20359669982E+03  0.20359669982E+03  0.00000000000E+00 0. -1.
          1   -1    0    0  501    0 -0.00000000000E+00 -0.00000000000E+00 -0.25558354415E+03  0.25558354415E+03  0.00000000000E+00 0. -1.
         25    2    1    2    0    0  0.59296944014E+02  0.91396802379E+01 -0.34450516030E+02  0.14287096987E+03  0.12500245859E+03 0.  0.
          2    1    1    2  501    0 -0.22402938067E+02 -0.29223041045E+02 -0.16186063776E+03  0.16599621627E+03  0.00000000000E+00 0. -1.
          1    1    1    2  502    0 -0.36894005947E+02  0.20083360807E+02  0.14432430945E+03  0.15031305783E+03  0.00000000000E+00 0. -1.
         22    1    3    3    0    0  0.68904190587E+02 -0.45765857846E+02 -0.16835247798E+02  0.84414020122E+02  0.00000000000E+00 0. -1.
         22    1    3    3    0    0 -0.96072465729E+01  0.54905538084E+02 -0.17615268232E+02  0.58456949748E+02  0.00000000000E+00 0. -1.
</event>
<event>
 7    1  0.5889087E-006  0.8672229E+02  0.7818608E-02  0.1314241E+00
          2   -1    0    0  502    0  0.00000000000E+00  0.00000000000E+00  0.36545447404E+03  0.36545447404E+03  0.00000000000E+00 0. -1.
          1   -1    0    0  501    0 -0.00000000000E+00 -0.00000000000E+00 -0.80461034356E+03  0.80461034356E+03  0.00000000000E+00 0. -1.
         25    2    1    2    0    0  0.37664464559E+02  0.22901150102E+02 -0.16019476217E+03  0.20791871150E+03  0.12499901680E+03 0.  0.
          2    1    1    2  501    0 -0.76661553864E+02  0.54558404053E+02 -0.61139172580E+03  0.61858989296E+03  0.00000000000E+00 0. -1.
          1    1    1    2  502    0  0.38997089305E+02 -0.77459554155E+02  0.33243061845E+03  0.34355621314E+03  0.00000000000E+00 0. -1.
         22    1    3    3    0    0  0.58766599979E+02  0.59169093933E+02 -0.13585943647E+03  0.15941230011E+03  0.00000000000E+00 0. -1.
         22    1    3    3    0    0 -0.21102135420E+02 -0.36267943831E+02 -0.24335325703E+02  0.48506411392E+02  0.00000000000E+00 0. -1.
</event>
<event>
 7    1  0.5889087E-006  0.8050676E+02  0.7818608E-02  0.1365171E+00
          2   -1    0    0  502    0  0.00000000000E+00  0.00000000000E+00  0.12220375969E+04  0.12220375969E+04  0.00000000000E+00 0. -1.
          1   -1    0    0  501    0 -0.00000000000E+00 -0.00000000000E+00 -0.71394350813E+02  0.71394350813E+02  0.00000000000E+00 0. -1.
         25    2    1    2    0    0 -0.74374496858E+01  0.34720912059E+02  0.22961069775E+03  0.26383070026E+03  0.12499883394E+03 0.  0.
          2    1    1    2  501    0  0.34498423328E+02  0.47036987133E+02 -0.36102003638E+02  0.68600102313E+02  0.00000000000E+00 0. -1.
          1    1    1    2  502    0 -0.27060973642E+02 -0.81757899192E+02  0.95713455202E+03  0.96100114519E+03  0.00000000000E+00 0. -1.
         22    1    3    3    0    0  0.78596654582E+01  0.77791528377E+02  0.10364485491E+03  0.12982893429E+03  0.00000000000E+00 0.  1.
         22    1    3    3    0    0 -0.15297115144E+02 -0.43070616319E+02  0.12596584284E+03  0.13400176597E+03  0.00000000000E+00 0.  1.
</event>
<event>
 7    1  0.5889087E-006  0.2501959E+03  0.7818608E-02  0.1218360E+00
          2   -1    0    0  502    0  0.00000000000E+00  0.00000000000E+00  0.16133096761E+04  0.16133096761E+04  0.00000000000E+00 0. -1.
          1   -1    0    0  501    0 -0.00000000000E+00 -0.00000000000E+00 -0.22641930614E+04  0.22641930614E+04  0.00000000000E+00 0. -1.
         25    2    1    2    0    0 -0.20789656998E+03  0.74748016130E+01 -0.44546554296E+03  0.50728816026E+03  0.12499948443E+03 0.  0.
          2    1    1    2  501    0 -0.36764107885E+02 -0.64544411692E+02 -0.17770638964E+04  0.17786156619E+04  0.00000000000E+00 0. -1.
          1    1    1    2  502    0  0.24466067786E+03  0.57069610079E+02  0.15716460541E+04  0.15915989153E+04  0.00000000000E+00 0. -1.
         22    1    3    3    0    0 -0.14309142872E+02  0.40504495839E+02 -0.51311611274E+02  0.66919707146E+02  0.00000000000E+00 0. -1.
         22    1    3    3    0    0 -0.19358742711E+03 -0.33029694226E+02 -0.39415393169E+03  0.44036845312E+03  0.00000000000E+00 0. -1.
</event>
<event>
 7    1  0.6854854E-006  0.9559677E+02  0.7818608E-02  0.1299383E+00
          2   -1    0    0  502    0  0.00000000000E+00  0.00000000000E+00  0.64873281033E+03  0.64873281033E+03  0.00000000000E+00 0. -1.
          1   -1    0    0  501    0 -0.00000000000E+00 -0.00000000000E+00 -0.74061435185E+03  0.74061435185E+03  0.00000000000E+00 0. -1.
         25    2    1    2    0    0 -0.28053607983E+02  0.27236318221E+01 -0.22967889905E+03  0.26302066488E+03  0.12503219743E+03 0.  0.
          2    1    1    2  501    0  0.73921847234E+02 -0.86597628924E+02 -0.48400590954E+03  0.49721756737E+03  0.00000000000E+00 0. -1.
          1    1    1    2  502    0 -0.45868239252E+02  0.83873997102E+02  0.62180326708E+03  0.62910892992E+03  0.00000000000E+00 0. -1.
         22    1    3    3    0    0 -0.73703512402E+02 -0.10039127726E+02 -0.97739657400E+02  0.12282521099E+03  0.00000000000E+00 0. -1.
         22    1    3    3    0    0  0.45649904419E+02  0.12762759548E+02 -0.13193924165E+03  0.14019545389E+03  0.00000000000E+00 0. -1.
</event>
<event>
 7    1  0.5889087E-006  0.1224750E+03  0.7818608E-02  0.1248290E+00
          2   -1    0    0  502    0  0.00000000000E+00  0.00000000000E+00  0.41861854358E+03  0.41861854358E+03  0.00000000000E+00 0. -1.
          1   -1    0    0  501    0 -0.00000000000E+00 -0.00000000000E+00 -0.81838436226E+03  0.81838436226E+03  0.00000000000E+00 0. -1.
         25    2    1    2    0    0 -0.30129718911E+00  0.21031058155E+02 -0.50256892946E+02  0.13637797699E+03  0.12502320238E+03 0.  0.
          2    1    1    2  501    0  0.12245332583E+03 -0.23040499674E+01 -0.70951022474E+03  0.72000339212E+03  0.00000000000E+00 0. -1.
          1    1    1    2  502    0 -0.12215202864E+03 -0.18727008188E+02  0.36000129901E+03  0.38062153673E+03  0.00000000000E+00 0. -1.
         22    1    3    3    0    0  0.47165217482E+02  0.51636414848E+02 -0.22629970374E+02  0.73505051783E+02  0.00000000000E+00 0.  1.
         22    1    3    3    0    0 -0.47466514672E+02 -0.30605356692E+02 -0.27626922571E+02  0.62872925207E+02  0.00000000000E+00 0.  1.
</event>
<event>
 7    1  0.5889087E-006  0.6884899E+02  0.7818608E-02  0.1387664E+00
          2   -1    0    0  502    0  0.00000000000E+00  0.00000000000E+00  0.10548972633E+04  0.10548972633E+04  0.00000000000E+00 0. -1.
          1   -1    0    0  501    0 -0.00000000000E+00 -0.00000000000E+00 -0.48762019711E+02  0.48762019711E+02  0.00000000000E+00 0. -1.
         25    2    1    2    0    0 -0.11900694746E+02  0.71912702941E+02  0.15038281821E+03  0.20869419022E+03  0.12500083855E+03 0.  0.
          2    1    1    2  501    0 -0.43461381749E+02 -0.59571626184E+02  0.54468213328E+02  0.91675823492E+02  0.00000000000E+00 0. -1.
          1    1    1    2  502    0  0.55362076495E+02 -0.12341076757E+02  0.80128421207E+03  0.80328926932E+03  0.00000000000E+00 0. -1.
         22    1    3    3    0    0 -0.66683717593E+01 -0.34528097669E+02  0.57127255867E+02  0.67083381500E+02  0.00000000000E+00 0. -1.
         22    1    3    3    0    0 -0.52323229870E+01  0.10644080061E+03  0.93255562342E+02  0.14161080872E+03  0.00000000000E+00 0. -1.
</event>
<event>
 7    1  0.5889087E-006  0.9708716E+02  0.7818608E-02  0.1449086E+00
          2   -1    0    0  502    0  0.00000000000E+00  0.00000000000E+00  0.77050136590E+03  0.77050136590E+03  0.00000000000E+00 0. -1.
          1   -1    0    0  501    0 -0.00000000000E+00 -0.00000000000E+00 -0.75283372082E+03  0.75283372082E+03  0.00000000000E+00 0. -1.
         25    2    1    2    0    0  0.87388033748E+01  0.99359441304E+02  0.12400528637E+03  0.20236615373E+03  0.12500433540E+03 0.  0.
          2    1    1    2  501    0 -0.24789016072E+02 -0.35833105714E+01 -0.70954879482E+03  0.70999072365E+03  0.00000000000E+00 0. -1.
          1    1    1    2  502    0  0.16050212697E+02 -0.95776130733E+02  0.60321115353E+03  0.61097820934E+03  0.00000000000E+00 0. -1.
         22    1    3    3    0    0 -0.18488562439E+02  0.31512946387E+02 -0.19425305073E+02  0.41379163938E+02  0.00000000000E+00 0.  1.
         22    1    3    3    0    0  0.27227365814E+02  0.67846494917E+02  0.14343059144E+03  0.16098698979E+03  0.00000000000E+00 0.  1.
</event>
<event>
 7    1  0.5889087E-006  0.2588102E+03  0.7818608E-02  0.1291058E+00
          2   -1    0    0  502    0  0.00000000000E+00  0.00000000000E+00  0.10312292833E+04  0.10312292833E+04  0.00000000000E+00 0. -1.
          1   -1    0    0  501    0 -0.00000000000E+00 -0.00000000000E+00 -0.50039927279E+03  0.50039927279E+03  0.00000000000E+00 0. -1.
         25    2    1    2    0    0 -0.15873650835E+03  0.22590803648E+03  0.12435246430E+03  0.32759724838E+03  0.12499880695E+03 0.  0.
          2    1    1    2  501    0  0.12388352538E+03 -0.22392201878E+03 -0.35728142945E+03  0.43947493465E+03  0.00000000000E+00 0. -1.
          1    1    1    2  502    0  0.34852982971E+02 -0.19860176965E+01  0.76375897563E+03  0.76455637303E+03  0.00000000000E+00 0. -1.
         22    1    3    3    0    0 -0.57742057777E+02  0.18518308934E+03  0.85404951739E+02  0.21194557697E+03  0.00000000000E+00 0. -1.
         22    1    3    3    0    0 -0.10099445057E+03  0.40724947135E+02  0.38947512556E+02  0.11565167141E+03  0.00000000000E+00 0. -1.
</event>
<event>
 7    1  0.5889087E-006  0.2412964E+03  0.7818608E-02  0.1248959E+00
          2   -1    0    0  502    0  0.00000000000E+00  0.00000000000E+00  0.89329765146E+03  0.89329765146E+03  0.00000000000E+00 0. -1.
          1   -1    0    0  501    0 -0.00000000000E+00 -0.00000000000E+00 -0.60078990459E+03  0.60078990459E+03  0.00000000000E+00 0. -1.
         25    2    1    2    0    0  0.19504132338E+03  0.19867383571E+03 -0.22710397696E+03  0.38041420228E+03  0.12500535239E+03 0.  0.
          2    1    1    2  501    0 -0.27399930802E+01 -0.56195381336E+02 -0.27660261517E+03  0.28226660300E+03  0.00000000000E+00 0. -1.
          1    1    1    2  502    0 -0.19230133030E+03 -0.14247845438E+03  0.79621433900E+03  0.83140675077E+03  0.00000000000E+00 0. -1.
         22    1    3    3    0    0  0.15056825855E+03  0.90659755179E+02 -0.81465102028E+02  0.19371771871E+03  0.00000000000E+00 0.  1.
         22    1    3    3    0    0  0.44473064824E+02  0.10801408053E+03 -0.14563887493E+03  0.18669648358E+03  0.00000000000E+00 0.  1.
</event>
<event>
 7    1  0.5889087E-006  0.9009243E+02  0.7818608E-02  0.1319058E+00
          2   -1    0    0  502    0  0.00000000000E+00  0.00000000000E+00  0.10926009783E+04  0.10926009783E+04  0.00000000000E+00 0. -1.
          1   -1    0    0  501    0 -0.00000000000E+00 -0.00000000000E+00 -0.44427312112E+03  0.44427312112E+03  0.00000000000E+00 0. -1.
         25    2    1    2    0    0 -0.78714960671E+02 -0.85812284021E+02  0.27066910675E+03  0.32007193654E+03  0.12499794435E+03 0.  0.
          2    1    1    2  501    0  0.89690044034E+02  0.89630229538E+01 -0.41280728983E+03  0.42253342864E+03  0.00000000000E+00 0. -1.
          1    1    1    2  502    0 -0.10975083363E+02  0.76849261067E+02  0.79046604029E+03  0.79426873426E+03  0.00000000000E+00 0. -1.
         22    1    3    3    0    0  0.13952997213E+02  0.85434234795E+01  0.11345872942E+03  0.11463227947E+03  0.00000000000E+00 0.  1.
         22    1    3    3    0    0 -0.92667957883E+02 -0.94355707501E+02  0.15721037733E+03  0.20543965707E+03  0.00000000000E+00 0.  1.
</event>
<event>
 7    1  0.5889087E-006  0.1131364E+03  0.7818608E-02  0.1264330E+00
          2   -1    0    0  502    0  0.00000000000E+00  0.00000000000E+00  0.52676333553E+03  0.52676333553E+03  0.00000000000E+00 0. -1.
          1   -1    0    0  501    0 -0.00000000000E+00 -0.00000000000E+00 -0.15787552045E+04  0.15787552045E+04  0.00000000000E+00 0. -1.
         25    2    1    2    0    0 -0.83057193026E+02  0.59112628972E+02 -0.67245232316E+03  0.69152715259E+03  0.12499950252E+03 0.  0.
          2    1    1    2  501    0 -0.22787639659E+02 -0.10053562925E+03 -0.88750147312E+03  0.89346827256E+03  0.00000000000E+00 0. -1.
          1    1    1    2  502    0  0.10584483269E+03  0.41423000277E+02  0.50796192730E+03  0.52052311490E+03  0.00000000000E+00 0. -1.
         22    1    3    3    0    0  0.33486516722E+02  0.14408448232E+02 -0.15679419107E+03  0.16097629805E+03  0.00000000000E+00 0.  1.
         22    1    3    3    0    0 -0.11654370975E+03  0.44704180740E+02 -0.51565813209E+03  0.53055085454E+03  0.00000000000E+00 0.  1.
</event>
<event>
 7    1  0.5889087E-006  0.8503191E+02  0.7818608E-02  0.1373787E+00
          2   -1    0    0  502    0  0.00000000000E+00  0.00000000000E+00  0.18375660105E+04  0.18375660105E+04  0.00000000000E+00 0. -1.
          1   -1    0    0  501    0 -0.00000000000E+00 -0.00000000000E+00 -0.26950465353E+02  0.26950465353E+02  0.00000000000E+00 0. -1.
         25    2    1    2    0    0  0.24373691843E+02 -0.37123976699E+02  0.57321210529E+03  0.58836149100E+03  0.12499943977E+03 0.  0.
          2    1    1    2  501    0  0.16483875891E+02 -0.48709127818E+02  0.20204487778E+02  0.55249602927E+02  0.00000000000E+00 0. -1.
          1    1    1    2  502    0 -0.40857567735E+02  0.85833104518E+02  0.12171989521E+04  0.12209053820E+04  0.00000000000E+00 0. -1.
         22    1    3    3    0    0  0.53298320848E+02 -0.33630603053E+02  0.54204890911E+03  0.54570023670E+03  0.00000000000E+00 0. -1.
         22    1    3    3    0    0 -0.28924629004E+02 -0.34933736469E+01  0.31163196181E+02  0.42661254303E+02  0.00000000000E+00 0. -1.
</event>
<event>
 7    1  0.5889087E-006  0.5979760E+02  0.7818608E-02  0.1505554E+00
          2   -1    0    0  502    0  0.00000000000E+00  0.00000000000E+00  0.13493005815E+03  0.13493005815E+03  0.00000000000E+00 0. -1.
          1   -1    0    0  501    0 -0.00000000000E+00 -0.00000000000E+00 -0.99503030198E+03  0.99503030198E+03  0.00000000000E+00 0. -1.
         25    2    1    2    0    0 -0.29189069082E+02  0.27993351649E+02  0.18232398828E+02  0.13265974944E+03  0.12502223508E+03 0.  0.
          2    1    1    2  501    0  0.55818349870E+02 -0.22232303325E+02 -0.93367976873E+03  0.93561096297E+03  0.00000000000E+00 0. -1.
          1    1    1    2  502    0 -0.26629280788E+02 -0.57610483246E+01  0.55347126062E+02  0.61689647724E+02  0.00000000000E+00 0. -1.
         22    1    3    3    0    0 -0.25889732443E+01 -0.32274233351E+02 -0.35208290246E+02  0.47832547735E+02  0.00000000000E+00 0. -1.
         22    1    3    3    0    0 -0.26600095838E+02  0.60267585000E+02  0.53440689074E+02  0.84827201704E+02  0.00000000000E+00 0. -1.
</event>
<event>
 7    1  0.5889087E-006  0.1206173E+03  0.7818608E-02  0.1255607E+00
          2   -1    0    0  502    0  0.00000000000E+00  0.00000000000E+00  0.14620436393E+04  0.14620436393E+04  0.00000000000E+00 0. -1.
          1   -1    0    0  501    0 -0.00000000000E+00 -0.00000000000E+00 -0.82382495463E+03  0.82382495463E+03  0.00000000000E+00 0. -1.
         25    2    1    2    0    0 -0.18342572850E+01  0.10457812574E+03  0.71150496072E+03  0.72993454929E+03  0.12500075296E+03 0.  0.
          2    1    1    2  501    0 -0.10534473172E+03  0.73504061290E+00 -0.80352230722E+03  0.81039876048E+03  0.00000000000E+00 0. -1.
          1    1    1    2  502    0  0.10717898900E+03 -0.10531316635E+03  0.73023603120E+03  0.74553528418E+03  0.00000000000E+00 0. -1.
         22    1    3    3    0    0  0.47592668744E+02  0.88516309454E+02  0.33171073574E+03  0.34660093965E+03  0.00000000000E+00 0. -1.
         22    1    3    3    0    0 -0.49426926029E+02  0.16061816288E+02  0.37979422497E+03  0.38333360964E+03  0.00000000000E+00 0. -1.
</event>
<event>
 7    1  0.5889087E-006  0.1145274E+03  0.7818608E-02  0.1339087E+00
          2   -1    0    0  502    0  0.00000000000E+00  0.00000000000E+00  0.11499047752E+04  0.11499047752E+04  0.00000000000E+00 0. -1.
          1   -1    0    0  501    0 -0.00000000000E+00 -0.00000000000E+00 -0.19831027311E+03  0.19831027311E+03  0.00000000000E+00 0. -1.
         25    2    1    2    0    0 -0.66030777085E+02  0.12433971022E+03  0.75425386386E+03  0.77739565846E+03  0.12499876635E+03 0.  0.
          2    1    1    2  501    0  0.16122048172E+02 -0.11296633819E+03 -0.16735099463E+03  0.20255288052E+03  0.00000000000E+00 0. -1.
          1    1    1    2  502    0  0.49908728913E+02 -0.11373372027E+02  0.36469163283E+03  0.36826650930E+03  0.00000000000E+00 0. -1.
         22    1    3    3    0    0  0.36265120116E+02  0.19931949686E+02  0.19619804309E+03  0.20051462208E+03  0.00000000000E+00 0.  1.
         22    1    3    3    0    0 -0.10229589720E+03  0.10440776053E+03  0.55805582077E+03  0.57688103638E+03  0.00000000000E+00 0.  1.
</event>
<event>
 7    1  0.5889087E-006  0.1028327E+03  0.7818608E-02  0.1348994E+00
          2   -1    0    0  502    0  0.00000000000E+00  0.00000000000E+00  0.14935447894E+03  0.14935447894E+03  0.00000000000E+00 0. -1.
          1   -1    0    0  501    0 -0.00000000000E+00 -0.00000000000E+00 -0.27403719995E+04  0.27403719995E+04  0.00000000000E+00 0. -1.
         25    2    1    2    0    0  0.92631460484E+02 -0.89133420500E+02 -0.12122367862E+03  0.21642593693E+03  0.12497860535E+03 0.  0.
          2    1    1    2  501    0 -0.95628612746E+02  0.36870446083E+02 -0.25637218917E+04  0.25657697089E+04  0.00000000000E+00 0. -1.
          1    1    1    2  502    0  0.29971522616E+01  0.52262974417E+02  0.93928049773E+02  0.10753083256E+03  0.00000000000E+00 0. -1.
         22    1    3    3    0    0  0.73730685608E+02 -0.25457940899E+02 -0.12775390591E+03  0.14968427182E+03  0.00000000000E+00 0.  1.
         22    1    3    3    0    0  0.18900774876E+02 -0.63675479601E+02  0.65302272851E+01  0.66741665111E+02  0.00000000000E+00 0.  1.
</event>
<event>
 7    1  0.5889087E-006  0.9666527E+02  0.7818608E-02  0.1353510E+00
          2   -1    0    0  502    0  0.00000000000E+00  0.00000000000E+00  0.71945571528E+03  0.71945571528E+03  0.00000000000E+00 0. -1.
          1   -1    0    0  501    0 -0.00000000000E+00 -0.00000000000E+00 -0.28448849477E+04  0.28448849477E+04  0.00000000000E+00 0. -1.
         25    2    1    2    0    0  0.10172853944E+03 -0.67998112054E+02 -0.21421476019E+03  0.27655954898E+03  0.12499912669E+03 0.  0.
          2    1    1    2  501    0 -0.50057530837E+02  0.82202951295E+02 -0.25975621743E+04  0.25993445964E+04  0.00000000000E+00 0. -1.
          1    1    1    2  502    0 -0.51671008600E+02 -0.14204839241E+02  0.68634770207E+03  0.68843651757E+03  0.00000000000E+00 0. -1.
         22    1    3    3    0    0 -0.18587618586E+02  0.17732610690E+02 -0.45942503524E+02  0.52637046617E+02  0.00000000000E+00 0. -1.
         22    1    3    3    0    0  0.12031615802E+03 -0.85730722744E+02 -0.16827225666E+03  0.22392250237E+03  0.00000000000E+00 0. -1.
</event>
<event>
 7    1  0.5889087E-006  0.1660869E+03  0.7818608E-02  0.1305884E+00
          2   -1    0    0  502    0  0.00000000000E+00  0.00000000000E+00  0.26531914365E+03  0.26531914365E+03  0.00000000000E+00 0. -1.
          1   -1    0    0  501    0 -0.00000000000E+00 -0.00000000000E+00 -0.39041104819E+03  0.39041104819E+03  0.00000000000E+00 0. -1.
         25    2    1    2    0    0 -0.15242572201E+03  0.57040544627E+01 -0.23694864322E+03  0.30827768056E+03  0.12499732734E+03 0.  0.
          2    1    1    2  501    0  0.19874456389E+03 -0.15930301965E+02 -0.26551102191E+02  0.20114208218E+03  0.00000000000E+00 0. -1.
          1    1    1    2  502    0 -0.46318841876E+02  0.10226247503E+02  0.13840784086E+03  0.14631042910E+03  0.00000000000E+00 0. -1.
         22    1    3    3    0    0 -0.68538149833E+02 -0.51069932121E+02 -0.15880066682E+03  0.18034208530E+03  0.00000000000E+00 0. -1.
         22    1    3    3    0    0 -0.83887572180E+02  0.56773986584E+02 -0.78147976398E+02  0.12793559526E+03  0.00000000000E+00 0. -1.
</event>
<event>
 7    1  0.5889087E-006  0.1031799E+03  0.7818608E-02  0.1293485E+00
          2   -1    0    0  502    0  0.00000000000E+00  0.00000000000E+00  0.21049081117E+03  0.21049081117E+03  0.00000000000E+00 0. -1.
          1   -1    0    0  501    0 -0.00000000000E+00 -0.00000000000E+00 -0.14673579031E+04  0.14673579031E+04  0.00000000000E+00 0. -1.
         25    2    1    2    0    0 -0.54944654695E+02  0.55179751760E+01 -0.10594377112E+03  0.17291398062E+03  0.12500319567E+03 0.  0.
          2    1    1    2  501    0  0.74416155045E+02  0.77842943198E+02 -0.13152478074E+04  0.13196492272E+04  0.00000000000E+00 0. -1.
          1    1    1    2  502    0 -0.19471500350E+02 -0.83360918374E+02  0.16432448655E+03  0.18528550650E+03  0.00000000000E+00 0. -1.
         22    1    3    3    0    0  0.20986459617E+02  0.57418168608E+01 -0.93464856169E+02  0.95963947849E+02  0.00000000000E+00 0. -1.
         22    1    3    3    0    0 -0.75931114312E+02 -0.22384168474E+00 -0.12478914946E+02  0.76950032774E+02  0.00000000000E+00 0. -1.
</event>
<event>
 7    1  0.5889087E-006  0.8526993E+02  0.7818608E-02  0.1358803E+00
          2   -1    0    0  502    0  0.00000000000E+00  0.00000000000E+00  0.18469949799E+04  0.18469949799E+04  0.00000000000E+00 0. -1.
          1   -1    0    0  501    0 -0.00000000000E+00 -0.00000000000E+00 -0.22299047992E+03  0.22299047992E+03  0.00000000000E+00 0. -1.
         25    2    1    2    0    0  0.25775589715E+02 -0.18817076558E+02  0.16484826181E+03  0.20932842353E+03  0.12499990433E+03 0.  0.
          2    1    1    2  501    0 -0.54067265019E+02  0.69553502607E+02 -0.19054955107E+03  0.20992877431E+03  0.00000000000E+00 0. -1.
          1    1    1    2  502    0  0.28291675304E+02 -0.50736426048E+02  0.16497057893E+04  0.16507282620E+04  0.00000000000E+00 0. -1.
         22    1    3    3    0    0  0.83120172791E+01 -0.22979276831E+02 -0.14942945201E+02  0.28643121446E+02  0.00000000000E+00 0. -1.
         22    1    3    3    0    0  0.17463572436E+02  0.41622002723E+01  0.17979120701E+03  0.18068530209E+03  0.00000000000E+00 0. -1.
</event>
<event>
 7    1  0.5889087E-006  0.5012034E+03  0.7818608E-02  0.1107912E+00
          2   -1    0    0  502    0  0.00000000000E+00  0.00000000000E+00  0.27687788390E+04  0.27687788390E+04  0.00000000000E+00 0. -1.
          1   -1    0    0  501    0 -0.00000000000E+00 -0.00000000000E+00 -0.41784768503E+03  0.41784768503E+03  0.00000000000E+00 0. -1.
         25    2    1    2    0    0 -0.47933801655E+03  0.13368539568E+03  0.14295995133E+04  0.15188868482E+04  0.12500308055E+03 0.  0.
          2    1    1    2  501    0  0.36423360567E+02  0.12849297593E+03 -0.30761984368E+03  0.33536111027E+03  0.00000000000E+00 0. -1.
          1    1    1    2  502    0  0.44291465598E+03 -0.26217837161E+03  0.12289514844E+04  0.13323785656E+04  0.00000000000E+00 0. -1.
         22    1    3    3    0    0 -0.41969346992E+03  0.11439509553E+03  0.10908503457E+04  0.11743863604E+04  0.00000000000E+00 0.  1.
         22    1    3    3    0    0 -0.59644546631E+02  0.19290300152E+02  0.33874916753E+03  0.34450048785E+03  0.00000000000E+00 0.  1.
</event>
<event>
 7    1  0.5889087E-006  0.6781729E+02  0.7818608E-02  0.1430952E+00
          2   -1    0    0  502    0  0.00000000000E+00  0.00000000000E+00  0.56518233706E+03  0.56518233706E+03  0.00000000000E+00 0. -1.
          1   -1    0    0  501    0 -0.00000000000E+00 -0.00000000000E+00 -0.11156531926E+03  0.11156531926E+03  0.00000000000E+00 0. -1.
         25    2    1    2    0    0  0.69462842704E+02 -0.36483564306E+02  0.44203210703E+02  0.15406298062E+03  0.12500136472E+03 0.  0.
          2    1    1    2  501    0 -0.34783948256E+02 -0.21818123240E+02 -0.46337706470E+02  0.61912329942E+02  0.00000000000E+00 0. -1.
          1    1    1    2  502    0 -0.34678894448E+02  0.58301687546E+02  0.45575151357E+03  0.46077234576E+03  0.00000000000E+00 0. -1.
         22    1    3    3    0    0  0.54262405922E+02  0.28518301145E+02  0.59661975259E+02  0.85540946268E+02  0.00000000000E+00 0. -1.
         22    1    3    3    0    0  0.15200436782E+02 -0.65001865451E+02 -0.15458764557E+02  0.68522034354E+02  0.00000000000E+00 0. -1.
</event>
<event>
 7    1  0.5889087E-006  0.1484723E+03  0.7818608E-02  0.1305579E+00
          2   -1    0    0  502    0  0.00000000000E+00  0.00000000000E+00  0.35776356029E+03  0.35776356029E+03  0.00000000000E+00 0. -1.
          1   -1    0    0  501    0 -0.00000000000E+00 -0.00000000000E+00 -0.25935312933E+03  0.25935312933E+03  0.00000000000E+00 0. -1.
         25    2    1    2    0    0 -0.24376466067E+02 -0.14383534497E+03  0.24929756982E+02  0.19372382734E+03  0.12499843973E+03 0.  0.
          2    1    1    2  501    0 -0.51582095847E+02  0.13062021973E+02 -0.14682751886E+03  0.15617185830E+03  0.00000000000E+00 0. -1.
          1    1    1    2  502    0  0.75958561914E+02  0.13077332300E+03  0.22030819285E+03  0.26722100399E+03  0.00000000000E+00 0. -1.
         22    1    3    3    0    0  0.50314117296E+02 -0.59647875044E+02  0.22262300685E+02  0.81147947777E+02  0.00000000000E+00 0.  1.
         22    1    3    3    0    0 -0.74690583363E+02 -0.84187469927E+02  0.26674562970E+01  0.11257587956E+03  0.00000000000E+00 0.  1.
</event>
<event>
 7    1  0.5889087E-006  0.4286975E+02  0.7818608E-02  0.1562089E+00
          2   -1    0    0  502    0  0.00000000000E+00  0.00000000000E+00  0.11592108661E+04  0.11592108661E+04  0.00000000000E+00 0. -1.
          1   -1    0    0  501    0 -0.00000000000E+00 -0.00000000000E+00 -0.41305153397E+03  0.41305153397E+03  0.00000000000E+00 0. -1.
         25    2    1    2    0    0 -0.48390010654E+02  0.10766658949E+02  0.62683146674E+02  0.14836171184E+03  0.12499802634E+03 0.  0.
          2    1    1    2  501    0  0.79402704539E+01 -0.24988263238E+02 -0.36931108605E+03  0.37024065075E+03  0.00000000000E+00 0. -1.
          1    1    1    2  502    0  0.40449740200E+02  0.14221604289E+02  0.10527872715E+04  0.10536600374E+04  0.00000000000E+00 0. -1.
         22    1    3    3    0    0  0.42150955402E+02  0.12120870176E+02  0.22528198614E+02  0.49306574287E+02  0.00000000000E+00 0. -1.
         22    1    3    3    0    0 -0.90540966055E+02 -0.13542112274E+01  0.40154948061E+02  0.99055137555E+02  0.00000000000E+00 0. -1.
</event>
<event>
 7    1  0.5889087E-006  0.1437060E+03  0.7818608E-02  0.1338806E+00
          2   -1    0    0  502    0  0.00000000000E+00  0.00000000000E+00  0.19467262353E+03  0.19467262353E+03  0.00000000000E+00 0. -1.
          1   -1    0    0  501    0 -0.00000000000E+00 -0.00000000000E+00 -0.19200713097E+04  0.19200713097E+04  0.00000000000E+00 0. -1.
         25    2    1    2    0    0  0.15217287306E+03 -0.82626850444E+02 -0.40935256928E+03  0.46171227227E+03  0.12499966671E+03 0.  0.
          2    1    1    2  501    0 -0.11135852058E+03  0.85185893170E+02 -0.14786917207E+04  0.14853237227E+04  0.00000000000E+00 0. -1.
          1    1    1    2  502    0 -0.40814352478E+02 -0.25590427260E+01  0.16264560386E+03  0.16770793816E+03  0.00000000000E+00 0. -1.
         22    1    3    3    0    0  0.15884775270E+03 -0.10486126022E+03 -0.36618552339E+03  0.41269883689E+03  0.00000000000E+00 0. -1.
         22    1    3    3    0    0 -0.66748796465E+01  0.22234409772E+02 -0.43167045898E+02  0.49013435381E+02  0.00000000000E+00 0. -1.
</event>
<event>
 7    1  0.5889087E-006  0.3530877E+03  0.7818608E-02  0.1275742E+00
          2   -1    0    0  502    0  0.00000000000E+00  0.00000000000E+00  0.14499071392E+04  0.14499071392E+04  0.00000000000E+00 0. -1.
          1   -1    0    0  501    0 -0.00000000000E+00 -0.00000000000E+00 -0.58309324548E+03  0.58309324548E+03  0.00000000000E+00 0. -1.
         25    2    1    2    0    0  0.19408553720E+03 -0.27641262572E+03  0.47786887363E+03  0.59837770074E+03  0.12499630772E+03 0.  0.
          2    1    1    2  501    0 -0.22365257893E+03  0.27554519484E+03 -0.46233033625E+03  0.58283356996E+03  0.00000000000E+00 0. -1.
          1    1    1    2  502    0  0.29567041732E+02  0.86743088170E+00  0.85127535630E+03  0.85178911395E+03  0.00000000000E+00 0. -1.
         22    1    3    3    0    0 -0.72678581038E+01  0.24579901395E+01 -0.20348679959E+01  0.79375162805E+01  0.00000000000E+00 0.  1.
         22    1    3    3    0    0  0.20135339530E+03 -0.27887061586E+03  0.47990374163E+03  0.59044018446E+03  0.00000000000E+00 0.  1.
</event>
<event>
 7    1  0.5889087E-006  0.3029782E+03  0.7818608E-02  0.1157884E+00
          2   -1    0    0  502    0  0.00000000000E+00  0.00000000000E+00  0.10932355757E+04  0.10932355757E+04  0.00000000000E+00 0. -1.
          1   -1    0    0  501    0 -0.00000000000E+00 -0.00000000000E+00 -0.84273457570E+03  0.84273457570E+03  0.00000000000E+00 0. -1.
         25    2    1    2    0    0 -0.31059789453E+03 -0.11510491525E+03  0.37198904123E+03  0.51353717866E+03  0.12499757385E+03 0.  0.
          2    1    1    2  501    0  0.30244866449E+03 -0.45748487685E+01 -0.73630872934E+03  0.79601926408E+03  0.00000000000E+00 0. -1.
          1    1    1    2  502    0  0.81492300344E+01  0.11967976402E+03  0.61482068815E+03  0.62641370870E+03  0.00000000000E+00 0. -1.
         22    1    3    3    0    0 -0.14806273898E+03 -0.58579067920E+02  0.89220612320E+02  0.18252232613E+03  0.00000000000E+00 0.  1.
         22    1    3    3    0    0 -0.16253515554E+03 -0.56525847334E+02  0.28276842891E+03  0.33101485253E+03  0.00000000000E+00 0.  1.
</event>
<event>
 7    1  0.5889087E-006  0.4622528E+02  0.7818608E-02  0.1581925E+00
          2   -1    0    0  502    0  0.00000000000E+00  0.00000000000E+00  0.49522607692E+03  0.49522607692E+03  0.00000000000E+00 0. -1.
          1   -1    0    0  501    0 -0.00000000000E+00 -0.00000000000E+00 -0.14910991610E+03  0.14910991610E+03  0.00000000000E+00 0. -1.
         25    2    1    2    0    0 -0.23190422270E+02 -0.12844772607E+02  0.45088777888E+03  0.46864510063E+03  0.12500262930E+03 0.  0.
          2    1    1    2  501    0  0.34328131122E+02  0.31218126650E+02 -0.13262848194E+03  0.14051087587E+03  0.00000000000E+00 0. -1.
          1    1    1    2  502    0 -0.11137708851E+02 -0.18373354043E+02  0.27856863877E+02  0.35180016520E+02  0.00000000000E+00 0. -1.
         22    1    3    3    0    0  0.24224828967E+02  0.45168636252E+02  0.22056596236E+03  0.22644291067E+03  0.00000000000E+00 0.  1.
         22    1    3    3    0    0 -0.47415251238E+02 -0.58013408858E+02  0.23032181652E+03  0.24220218996E+03  0.00000000000E+00 0.  1.
</event>
<event>
 7    1  0.5889087E-006  0.7306735E+02  0.7818608E-02  0.1420512E+00
          2   -1    0    0  502    0  0.00000000000E+00  0.00000000000E+00  0.70839849810E+03  0.70839849810E+03  0.00000000000E+00 0. -1.
          1   -1    0    0  501    0 -0.00000000000E+00 -0.00000000000E+00 -0.56361975608E+03  0.56361975608E+03  0.00000000000E+00 0. -1.
         25    2    1    2    0    0  0.82755693929E+02 -0.74114344646E+02  0.74287274317E+02  0.18298593945E+03  0.12499525572E+03 0.  0.
          2    1    1    2  501    0 -0.36245468448E+02  0.19733128146E+02 -0.50621948482E+03  0.50789890445E+03  0.00000000000E+00 0. -1.
          1    1    1    2  502    0 -0.46510225480E+02  0.54381216500E+02  0.57671095252E+03  0.58113341028E+03  0.00000000000E+00 0. -1.
         22    1    3    3    0    0  0.79594085138E+02 -0.13000238578E+02 -0.73226204932E+01  0.80980524591E+02  0.00000000000E+00 0. -1.
         22    1    3    3    0    0  0.31616087904E+01 -0.61114106067E+02  0.81609894810E+02  0.10200541486E+03  0.00000000000E+00 0. -1.
</event>
<event>
 7    1  0.5889087E-006  0.6602866E+02  0.7818608E-02  0.1416664E+00
          2   -1    0    0  502    0  0.00000000000E+00  0.00000000000E+00  0.24814668126E+03  0.24814668126E+03  0.00000000000E+00 0. -1.
          1   -1    0    0  501    0 -0.00000000000E+00 -0.00000000000E+00 -0.11268700192E+04  0.11268700192E+04  0.00000000000E+00 0. -1.
         25    2    1    2    0    0  0.26709912982E+02  0.11928548984E+02 -0.30169288193E+03  0.32787051287E+03  0.12499907390E+03 0.  0.
          2    1    1    2  501    0 -0.43352082301E+02 -0.55929145077E+02 -0.80817299498E+03  0.81126509978E+03  0.00000000000E+00 0. -1.
          1    1    1    2  502    0  0.16642169319E+02  0.44000596093E+02  0.23114253897E+03  0.23588108779E+03  0.00000000000E+00 0. -1.
         22    1    3    3    0    0  0.58373376998E+02  0.42720495541E+02 -0.24806400065E+03  0.25839551138E+03  0.00000000000E+00 0.  1.
         22    1    3    3    0    0 -0.31663464016E+02 -0.30791946557E+02 -0.53628881277E+02  0.69475001500E+02  0.00000000000E+00 0.  1.
</event>
<event>
 7    1  0.5889087E-006  0.1480149E+03  0.7818608E-02  0.1244129E+00
          2   -1    0    0  502    0  0.00000000000E+00  0.00000000000E+00  0.41169067109E+03  0.41169067109E+03  0.00000000000E+00 0. -1.
          1   -1    0    0  501    0 -0.00000000000E+00 -0.00000000000E+00 -0.27544464962E+04  0.27544464962E+04  0.00000000000E+00 0. -1.
         25    2    1    2    0    0 -0.15205239356E+03  0.30992014250E+02 -0.31269914530E+03  0.37079249638E+03  0.12500353824E+03 0.  0.
          2    1    1    2  501    0  0.17382788004E+02 -0.94697101569E+02 -0.23971970484E+04  0.23991297154E+04  0.00000000000E+00 0. -1.
          1    1    1    2  502    0  0.13466960555E+03  0.63705087319E+02  0.36714036854E+03  0.39621495557E+03  0.00000000000E+00 0. -1.
         22    1    3    3    0    0 -0.15504732391E+03  0.10626283862E+02 -0.31380273953E+03  0.35017816879E+03  0.00000000000E+00 0.  1.
         22    1    3    3    0    0  0.29949303559E+01  0.20365730388E+02  0.11035942284E+01  0.20614327597E+02  0.00000000000E+00 0.  1.
</event>
<event>
 7    1  0.5889087E-006  0.5485157E+03  0.7818608E-02  0.1216181E+00
          2   -1    0    0  502    0  0.00000000000E+00  0.00000000000E+00  0.82738905415E+03  0.82738905415E+03  0.00000000000E+00 0. -1.
          1   -1    0    0  501    0 -0.00000000000E+00 -0.00000000000E+00 -0.22521115967E+04  0.22521115967E+04  0.00000000000E+00 0. -1.
         25    2    1    2    0    0  0.58055684509E+03 -0.47197441530E+01 -0.17356044263E+04  0.18343979997E+04  0.12499908135E+03 0.  0.
          2    1    1    2  501    0 -0.33897292228E+02 -0.72773575204E+01 -0.37012572405E+03  0.37174593199E+03  0.00000000000E+00 0. -1.
          1    1    1    2  502    0 -0.54665955287E+03  0.11997101673E+02  0.68100760774E+03  0.87335671921E+03  0.00000000000E+00 0. -1.
         22    1    3    3    0    0  0.50505876950E+03 -0.33563778524E+02 -0.13849423206E+04  0.14745426814E+04  0.00000000000E+00 0. -1.
         22    1    3    3    0    0  0.75498075595E+02  0.28844034371E+02 -0.35066210563E+03  0.35985531823E+03  0.00000000000E+00 0. -1.
</event>
<event>
 7    1  0.5889087E-006  0.1068532E+03  0.7818608E-02  0.1344794E+00
          2   -1    0    0  502    0  0.00000000000E+00  0.00000000000E+00  0.30294218747E+03  0.30294218747E+03  0.00000000000E+00 0. -1.
          1   -1    0    0  501    0 -0.00000000000E+00 -0.00000000000E+00 -0.24788279646E+03  0.24788279646E+03  0.00000000000E+00 0. -1.
         25    2    1    2    0    0  0.10924284826E+03  0.47103209842E+02 -0.22039039570E+02  0.17396369108E+03  0.12499973710E+03 0.  0.
          2    1    1    2  501    0 -0.69158476140E+02 -0.80581145286E+02 -0.12736954230E+03  0.16582887596E+03  0.00000000000E+00 0. -1.
          1    1    1    2  502    0 -0.40084372115E+02  0.33477935444E+02  0.20446797287E+03  0.21103241689E+03  0.00000000000E+00 0. -1.
         22    1    3    3    0    0  0.46937807385E+02  0.85487480465E+02  0.40159058989E-01  0.97525733482E+02  0.00000000000E+00 0. -1.
         22    1    3    3    0    0  0.62305040871E+02 -0.38384270623E+02 -0.22079198629E+02  0.76437957595E+02  0.00000000000E+00 0. -1.
</event>
<event>
 7    1  0.5889087E-006  0.8825787E+02  0.7818608E-02  0.1467515E+00
          2   -1    0    0  502    0  0.00000000000E+00  0.00000000000E+00  0.18544346425E+03  0.18544346425E+03  0.00000000000E+00 0. -1.
          1   -1    0    0  501    0 -0.00000000000E+00 -0.00000000000E+00 -0.63646379387E+03  0.63646379387E+03  0.00000000000E+00 0. -1.
         25    2    1    2    0    0 -0.87075413711E+02 -0.24092340693E+02  0.35813699441E+02  0.15833506101E+03  0.12499920770E+03 0.  0.
          2    1    1    2  501    0 -0.12912916105E+01  0.24057762765E+02 -0.55278385540E+03  0.55330862470E+03  0.00000000000E+00 0. -1.
          1    1    1    2  502    0  0.88366705322E+02  0.34577928681E-01  0.65949826334E+02  0.11026357240E+03  0.00000000000E+00 0. -1.
         22    1    3    3    0    0  0.11107754373E+02 -0.47911034731E+02 -0.48656783650E+01  0.49421900835E+02  0.00000000000E+00 0. -1.
         22    1    3    3    0    0 -0.98183168085E+02  0.23818694038E+02  0.40679377806E+02  0.10891316018E+03  0.00000000000E+00 0. -1.
</event>
<event>
 7    1  0.5889087E-006  0.5745798E+02  0.7818608E-02  0.1470778E+00
          2   -1    0    0  502    0  0.00000000000E+00  0.00000000000E+00  0.65532535023E+02  0.65532535023E+02  0.00000000000E+00 0. -1.
          1   -1    0    0  501    0 -0.00000000000E+00 -0.00000000000E+00 -0.14345213665E+04  0.14345213665E+04  0.00000000000E+00 0. -1.
         25    2    1    2    0    0  0.77624328934E+01  0.69743802855E+02 -0.84053622748E+03  0.85267251545E+03  0.12499926197E+03 0.  0.
          2    1    1    2  501    0  0.26991414144E+02 -0.24049012029E+02 -0.57335740811E+03  0.57449596069E+03  0.00000000000E+00 0. -1.
          1    1    1    2  502    0 -0.34753847037E+02 -0.45694790826E+02  0.44904804147E+02  0.72885425347E+02  0.00000000000E+00 0. -1.
         22    1    3    3    0    0  0.45991242599E+02  0.85421837090E+02 -0.47484122823E+03  0.48465067489E+03  0.00000000000E+00 0.  1.
         22    1    3    3    0    0 -0.38228809705E+02 -0.15678034235E+02 -0.36569499926E+03  0.36802184056E+03  0.00000000000E+00 0.  1.
</event>
<event>
 7    1  0.5889087E-006  0.3796467E+02  0.7818608E-02  0.1566003E+00
          2   -1    0    0  502    0  0.00000000000E+00  0.00000000000E+00  0.26200184745E+04  0.26200184745E+04  0.00000000000E+00 0. -1.
          1   -1    0    0  501    0 -0.00000000000E+00 -0.00000000000E+00 -0.10791533822E+03  0.10791533822E+03  0.00000000000E+00 0. -1.
         25    2    1    2    0    0 -0.29103868462E+02  0.18118331663E+01  0.51881072163E+03  0.53445231375E+03  0.12499757157E+03 0.  0.
          2    1    1    2  501    0  0.54032797042E+01  0.28375526239E+02 -0.97830838982E+02  0.10200607323E+03  0.00000000000E+00 0. -1.
          1    1    1    2  502    0  0.23700588758E+02 -0.30187359405E+02  0.20911232536E+04  0.20914754257E+04  0.00000000000E+00 0. -1.
         22    1    3    3    0    0 -0.59068327652E+02 -0.23054829824E+02  0.45714570705E+03  0.46152225297E+03  0.00000000000E+00 0.  1.
         22    1    3    3    0    0  0.29964459191E+02  0.24866662990E+02  0.61665014577E+02  0.72930060781E+02  0.00000000000E+00 0.  1.
</event>
<event>
 7    1  0.5889087E-006  0.3873019E+02  0.7818608E-02  0.1546709E+00
          2   -1    0    0  502    0  0.00000000000E+00  0.00000000000E+00  0.10773117720E+04  0.10773117720E+04  0.00000000000E+00 0. -1.
          1   -1    0    0  501    0 -0.00000000000E+00 -0.00000000000E+00 -0.33170912508E+02  0.33170912508E+02  0.00000000000E+00 0. -1.
         25    2    1    2    0    0  0.17864218248E+02  0.61236629068E+02  0.40233705943E+03  0.42610900648E+03  0.12499888391E+03 0.  0.
          2    1    1    2  501    0 -0.21583733595E+02 -0.23647947359E+02 -0.83785529003E+01  0.33095061851E+02  0.00000000000E+00 0. -1.
          1    1    1    2  502    0  0.37195153467E+01 -0.37588681708E+02  0.65018235293E+03  0.65127861615E+03  0.00000000000E+00 0. -1.
         22    1    3    3    0    0 -0.25003784880E+02  0.16029257374E+01  0.29493510305E+03  0.29599742168E+03  0.00000000000E+00 0. -1.
         22    1    3    3    0    0  0.42868003128E+02  0.59633703330E+02  0.10740195638E+03  0.13011158480E+03  0.00000000000E+00 0. -1.
</event>
<event>
 7    1  0.5889087E-006  0.1032328E+03  0.7818608E-02  0.1317899E+00
          2   -1    0    0  502    0  0.00000000000E+00  0.00000000000E+00  0.12412643567E+04  0.12412643567E+04  0.00000000000E+00 0. -1.
          1   -1    0    0  501    0 -0.00000000000E+00 -0.00000000000E+00 -0.41992396655E+03  0.41992396655E+03  0.00000000000E+00 0. -1.
         25    2    1    2    0    0  0.60031337479E+02  0.68005723044E+02  0.26159885437E+03  0.30378441194E+03  0.12498987352E+03 0.  0.
          2    1    1    2  501    0  0.46217873876E+02 -0.50496804340E+02 -0.39283781686E+03  0.39875753218E+03  0.00000000000E+00 0. -1.
          1    1    1    2  502    0 -0.10624921136E+03 -0.17508918704E+02  0.95257935267E+03  0.95864637916E+03  0.00000000000E+00 0. -1.
         22    1    3    3    0    0  0.15452766521E+02 -0.34036553818E+02  0.34562312930E+02  0.50910003576E+02  0.00000000000E+00 0. -1.
         22    1    3    3    0    0  0.44578570958E+02  0.10204227686E+03  0.22703654144E+03  0.25287440836E+03  0.00000000000E+00 0. -1.
</event>
<event>
 7    1  0.5889087E-006  0.1029919E+03  0.7818608E-02  0.1394565E+00
          2   -1    0    0  502    0  0.00000000000E+00  0.00000000000E+00  0.18065407703E+04  0.18065407703E+04  0.00000000000E+00 0. -1.
          1   -1    0    0  501    0 -0.00000000000E+00 -0.00000000000E+00 -0.41913528967E+03  0.41913528967E+03  0.00000000000E+00 0. -1.
         25    2    1    2    0    0 -0.67573481587E+02  0.15414133185E+02  0.45491247635E+03  0.47683803961E+03  0.12500153586E+03 0.  0.
          2    1    1    2  501    0  0.97072864081E+02 -0.35830246330E+02 -0.40136959504E+03  0.41449306305E+03  0.00000000000E+00 0. -1.
          1    1    1    2  502    0 -0.29499382494E+02  0.20416113145E+02  0.13338625993E+04  0.13343449573E+04  0.00000000000E+00 0. -1.
         22    1    3    3    0    0 -0.24409043060E+02 -0.54844049800E+02  0.21037173836E+03  0.21876914655E+03  0.00000000000E+00 0.  1.
         22    1    3    3    0    0 -0.43164438527E+02  0.70258182986E+02  0.24454073799E+03  0.25806889306E+03  0.00000000000E+00 0.  1.
</event>
<event>
 7    1  0.5889087E-006  0.1186929E+03  0.7818608E-02  0.1359857E+00
          2   -1    0    0  502    0  0.00000000000E+00  0.00000000000E+00  0.10861924034E+04  0.10861924034E+04  0.00000000000E+00 0. -1.
          1   -1    0    0  501    0 -0.00000000000E+00 -0.00000000000E+00 -0.49375482294E+02  0.49375482294E+02  0.00000000000E+00 0. -1.
         25    2    1    2    0    0  0.10037454451E+03  0.23965193751E+02  0.36837269899E+03  0.40246094214E+03  0.12500793930E+03 0.  0.
          2    1    1    2  501    0  0.67551891529E+01  0.40809682640E+02 -0.10532920935E+02  0.42684952865E+02  0.00000000000E+00 0. -1.
          1    1    1    2  502    0 -0.10712973366E+03 -0.64774876391E+02  0.67897714307E+03  0.69042199071E+03  0.00000000000E+00 0. -1.
         22    1    3    3    0    0 -0.11069270654E+02 -0.33641095977E+02  0.10325487528E+03  0.10915961414E+03  0.00000000000E+00 0. -1.
         22    1    3    3    0    0  0.11144381516E+03  0.57606289727E+02  0.26511782371E+03  0.29330132799E+03  0.00000000000E+00 0. -1.
</event>
<event>
 7    1  0.5889087E-006  0.8911225E+02  0.7818608E-02  0.1308642E+00
          2   -1    0    0  502    0  0.00000000000E+00  0.00000000000E+00  0.19836493773E+03  0.19836493773E+03  0.00000000000E+00 0. -1.
          1   -1    0    0  501    0 -0.00000000000E+00 -0.00000000000E+00 -0.14554075794E+04  0.14554075794E+04  0.00000000000E+00 0. -1.
         25    2    1    2    0    0  0.16007427840E+03 -0.22260189417E+02 -0.84821445826E+03  0.87247402012E+03  0.12499543169E+03 0.  0.
          2    1    1    2  501    0 -0.83436040882E+02 -0.21708951814E+02 -0.58122199040E+03  0.58758135915E+03  0.00000000000E+00 0. -1.
          1    1    1    2  502    0 -0.76638237513E+02  0.43969141231E+02  0.17239380696E+03  0.19371713788E+03  0.00000000000E+00 0. -1.
         22    1    3    3    0    0  0.10954793754E+03 -0.41586762316E+02 -0.30764624850E+03  0.32920574666E+03  0.00000000000E+00 0.  1.
         22    1    3    3    0    0  0.50526340854E+02  0.19326572899E+02 -0.54056820976E+03  0.54326827346E+03  0.00000000000E+00 0.  1.
</event>
<event>
 7    1  0.5889087E-006  0.1426053E+03  0.7818608E-02  0.1210872E+00
          2   -1    0    0  502    0  0.00000000000E+00  0.00000000000E+00  0.14005204073E+04  0.14005204073E+04  0.00000000000E+00 0. -1.
          1   -1    0    0  501    0 -0.00000000000E+00 -0.00000000000E+00 -0.14062753999E+03  0.14062753999E+03  0.00000000000E+00 0. -1.
         25    2    1    2    0    0  0.73839913293E+00  0.47678847372E+02  0.21313858156E+03  0.25164383133E+03  0.12499098039E+03 0.  0.
          2    1    1    2  501    0 -0.87927410164E+02  0.11033120449E+03 -0.70536117206E+02  0.15773252034E+03  0.00000000000E+00 0. -1.
          1    1    1    2  502    0  0.87189011031E+02 -0.15801005186E+03  0.11172904030E+04  0.11317715957E+04  0.00000000000E+00 0. -1.
         22    1    3    3    0    0  0.50572086988E+02  0.54404591378E+02  0.79224820104E+02  0.10860003529E+03  0.00000000000E+00 0. -1.
         22    1    3    3    0    0 -0.49833687855E+02 -0.67257440063E+01  0.13391376146E+03  0.14304379604E+03  0.00000000000E+00 0. -1.
</event>
<event>
 7    1  0.5889087E-006  0.7307035E+02  0.7818608E-02  0.1465778E+00
          2   -1    0    0  502    0  0.00000000000E+00  0.00000000000E+00  0.13192596994E+04  0.13192596994E+04  0.00000000000E+00 0. -1.
          1   -1    0    0  501    0 -0.00000000000E+00 -0.00000000000E+00 -0.58131583161E+03  0.58131583161E+03  0.00000000000E+00 0. -1.
         25    2    1    2    0    0  0.49144725246E+02  0.28825794965E+01 -0.21670369918E+03  0.25496909859E+03  0.12500093885E+03 0.  0.
          2    1    1    2  501    0 -0.78381361180E+02 -0.65511102583E+01 -0.34083294139E+03  0.34979086432E+03  0.00000000000E+00 0. -1.
          1    1    1    2  502    0  0.29236635934E+02  0.36685307618E+01  0.12954805084E+04  0.12958155681E+04  0.00000000000E+00 0. -1.
         22    1    3    3    0    0  0.58643613786E+02 -0.13816593579E+02 -0.30046476646E+02  0.67325793384E+02  0.00000000000E+00 0. -1.
         22    1    3    3    0    0 -0.94988885396E+01  0.16699173076E+02 -0.18665722253E+03  0.18764330521E+03  0.00000000000E+00 0. -1.
</event>
<event>
 7    1  0.5889087E-006  0.6464606E+02  0.7818608E-02  0.1474601E+00
          2   -1    0    0  502    0  0.00000000000E+00  0.00000000000E+00  0.70787157786E+02  0.70787157786E+02  0.00000000000E+00 0. -1.
          1   -1    0    0  501    0 -0.00000000000E+00 -0.00000000000E+00 -0.77469630964E+03  0.77469630964E+03  0.00000000000E+00 0. -1.
         25    2    1    2    0    0  0.42197836298E+02  0.11656392521E+02 -0.45164536731E+03  0.47066479908E+03  0.12500114564E+03 0.  0.
          2    1    1    2  501    0 -0.73432854832E+02 -0.13063429966E+02 -0.30473947899E+03  0.31373426243E+03  0.00000000000E+00 0. -1.
          1    1    1    2  502    0  0.31235018534E+02  0.14070374451E+01  0.52475694446E+02  0.61084405905E+02  0.00000000000E+00 0. -1.
         22    1    3    3    0    0  0.29157994590E+02 -0.23565003817E+02 -0.31849980361E+02  0.49192675292E+02  0.00000000000E+00 0.  1.
         22    1    3    3    0    0  0.13039841708E+02  0.35221396338E+02 -0.41979538695E+03  0.42147212379E+03  0.00000000000E+00 0.  1.
</event>
<event>
 7    1  0.5889087E-006  0.1912859E+03  0.7818608E-02  0.1244704E+00
          2   -1    0    0  502    0  0.00000000000E+00  0.00000000000E+00  0.80711148145E+03  0.80711148145E+03  0.00000000000E+00 0. -1.
          1   -1    0    0  501    0 -0.00000000000E+00 -0.00000000000E+00 -0.39236082201E+03  0.39236082201E+03  0.00000000000E+00 0. -1.
         25    2    1    2    0    0  0.39458688898E+02 -0.11642132364E+03 -0.22165401144E+03  0.28261088556E+03  0.12500999608E+03 0.  0.
          2    1    1    2  501    0  0.44451059416E+02 -0.59248689009E+02 -0.11712972670E+03  0.13858454715E+03  0.00000000000E+00 0. -1.
          1    1    1    2  502    0 -0.83909748314E+02  0.17567001265E+03  0.75353439758E+03  0.77827687075E+03  0.00000000000E+00 0. -1.
         22    1    3    3    0    0 -0.20551119227E+02  0.28004562093E+01  0.33374167630E+01  0.21007841563E+02  0.00000000000E+00 0.  1.
         22    1    3    3    0    0  0.60009808125E+02 -0.11922177985E+03 -0.22499142821E+03  0.26160304400E+03  0.00000000000E+00 0.  1.
</event>
<event>
 7    1  0.5889087E-006  0.3519219E+02  0.7818608E-02  0.1569943E+00
          2   -1    0    0  502    0  0.00000000000E+00  0.00000000000E+00  0.22145474365E+04  0.22145474365E+04  0.00000000000E+00 0. -1.
          1   -1    0    0  501    0 -0.00000000000E+00 -0.00000000000E+00 -0.36119056495E+03  0.36119056495E+03  0.00000000000E+00 0. -1.
         25    2    1    2    0    0  0.15735681679E+02  0.15741460591E+02  0.51565721469E+03  0.53105909934E+03  0.12500399462E+03 0.  0.
          2    1    1    2  501    0  0.19149226982E+02 -0.23611366267E+02 -0.35264652883E+03  0.35395446573E+03  0.00000000000E+00 0. -1.
          1    1    1    2  502    0 -0.34884908661E+02  0.78699056759E+01  0.16903461857E+04  0.16907244364E+04  0.00000000000E+00 0. -1.
         22    1    3    3    0    0 -0.31439037963E+02 -0.38598637431E+02  0.28889400537E+03  0.29315186211E+03  0.00000000000E+00 0.  1.
         22    1    3    3    0    0  0.47174719642E+02  0.54340098022E+02  0.22676320933E+03  0.23790723724E+03  0.00000000000E+00 0.  1.
</event>
<event>
 7    1  0.5889087E-006  0.1278540E+03  0.7818608E-02  0.1311670E+00
          2   -1    0    0  502    0  0.00000000000E+00  0.00000000000E+00  0.17454470264E+03  0.17454470264E+03  0.00000000000E+00 0. -1.
          1   -1    0    0  501    0 -0.00000000000E+00 -0.00000000000E+00 -0.26346881802E+04  0.26346881802E+04  0.00000000000E+00 0. -1.
         25    2    1    2    0    0  0.26167133616E+02 -0.12125825750E+03 -0.33415327696E+03  0.37771883431E+03  0.12499928556E+03 0.  0.
          2    1    1    2  501    0  0.32165422358E+02  0.12513379091E+03 -0.22712549492E+04  0.22749268394E+04  0.00000000000E+00 0. -1.
          1    1    1    2  502    0 -0.58332555974E+02 -0.38755334022E+01  0.14526474870E+03  0.15658720912E+03  0.00000000000E+00 0. -1.
         22    1    3    3    0    0  0.50871307562E+02 -0.11820231629E+03 -0.32761514825E+03  0.35198204907E+03  0.00000000000E+00 0.  1.
         22    1    3    3    0    0 -0.24704173946E+02 -0.30559412137E+01 -0.65381287183E+01  0.25736785234E+02  0.00000000000E+00 0.  1.
</event>
<event>
 7    1  0.5889087E-006  0.9919643E+02  0.7818608E-02  0.1407027E+00
          2   -1    0    0  502    0  0.00000000000E+00  0.00000000000E+00  0.83496232746E+03  0.83496232746E+03  0.00000000000E+00 0. -1.
          1   -1    0    0  501    0 -0.00000000000E+00 -0.00000000000E+00 -0.44893719336E+03  0.44893719336E+03  0.00000000000E+00 0. -1.
         25    2    1    2    0    0 -0.12175568808E+03 -0.28576121411E+02 -0.16349647049E+03  0.24082657774E+03  0.12500120955E+03 0.  0.
          2    1    1    2  501    0  0.31585342081E+02 -0.11897979282E+02 -0.24253557726E+03  0.24487282818E+03  0.00000000000E+00 0. -1.
          1    1    1    2  502    0  0.90170346002E+02  0.40474100693E+02  0.79205718184E+03  0.79820011490E+03  0.00000000000E+00 0. -1.
         22    1    3    3    0    0 -0.10164962081E+03 -0.51327673756E+02 -0.51844890389E+02  0.12512021485E+03  0.00000000000E+00 0.  1.
         22    1    3    3    0    0 -0.20106067272E+02  0.22751552345E+02 -0.11165158010E+03  0.11570636289E+03  0.00000000000E+00 0.  1.
</event>
<event>
 7    1  0.5889087E-006  0.5691919E+02  0.7818608E-02  0.1477554E+00
          2   -1    0    0  502    0  0.00000000000E+00  0.00000000000E+00  0.12380943119E+04  0.12380943119E+04  0.00000000000E+00 0. -1.
          1   -1    0    0  501    0 -0.00000000000E+00 -0.00000000000E+00 -0.18980463874E+03  0.18980463874E+03  0.00000000000E+00 0. -1.
         25    2    1    2    0    0  0.59460681344E+00  0.33185609430E+02  0.23325051016E+03  0.26670621474E+03  0.12499906504E+03 0.  0.
          2    1    1    2  501    0 -0.32253222173E+02 -0.47572025062E+02 -0.16798932831E+03  0.17754937999E+03  0.00000000000E+00 0. -1.
          1    1    1    2  502    0  0.31658615359E+02  0.14386415632E+02  0.98302849134E+03  0.98364335593E+03  0.00000000000E+00 0. -1.
         22    1    3    3    0    0 -0.62170846274E+02  0.17440838620E+02  0.11280641077E+03  0.12997954950E+03  0.00000000000E+00 0.  1.
         22    1    3    3    0    0  0.62765453087E+02  0.15744770810E+02  0.12044409939E+03  0.13672666524E+03  0.00000000000E+00 0.  1.
</event>
<event>
 7    1  0.5889087E-006  0.2697551E+03  0.7818608E-02  0.1142409E+00
          2   -1    0    0  502    0  0.00000000000E+00  0.00000000000E+00  0.22071285793E+04  0.22071285793E+04  0.00000000000E+00 0. -1.
          1   -1    0    0  501    0 -0.00000000000E+00 -0.00000000000E+00 -0.65136310147E+03  0.65136310147E+03  0.00000000000E+00 0. -1.
         25    2    1    2    0    0 -0.96403126267E+02 -0.97775196507E+02  0.18926773979E+03  0.26514353232E+03  0.12500105439E+03 0.  0.
          2    1    1    2  501    0  0.25045834302E+03  0.14734704235E+03 -0.57545597887E+03  0.64466279254E+03  0.00000000000E+00 0. -1.
          1    1    1    2  502    0 -0.15405521675E+03 -0.49571845840E+02  0.19419537169E+04  0.19486853559E+04  0.00000000000E+00 0. -1.
         22    1    3    3    0    0  0.22275019488E+02 -0.23450263388E+02  0.83838247611E+02  0.89860687225E+02  0.00000000000E+00 0.  1.
         22    1    3    3    0    0 -0.11867814576E+03 -0.74324933119E+02  0.10542949218E+03  0.17528284509E+03  0.00000000000E+00 0.  1.
</event>
<event>
 7    1  0.5889087E-006  0.5830488E+02  0.7818608E-02  0.1475573E+00
          2   -1    0    0  502    0  0.00000000000E+00  0.00000000000E+00  0.12223253803E+03  0.12223253803E+03  0.00000000000E+00 0. -1.
          1   -1    0    0  501    0 -0.00000000000E+00 -0.00000000000E+00 -0.45372200623E+03  0.45372200623E+03  0.00000000000E+00 0. -1.
         25    2    1    2    0    0 -0.20545616864E+02 -0.17470760227E+02 -0.15476672490E+03  0.20076994060E+03  0.12501391953E+03 0.  0.
          2    1    1    2  501    0 -0.14326270956E+02 -0.31306154695E+02 -0.26568268342E+03  0.26790409782E+03  0.00000000000E+00 0. -1.
          1    1    1    2  502    0  0.34871887820E+02  0.48776914922E+02  0.88959940118E+02  0.10728050585E+03  0.00000000000E+00 0. -1.
         22    1    3    3    0    0 -0.48675331634E+02 -0.29010476412E+02 -0.16240376592E+02  0.58946123564E+02  0.00000000000E+00 0. -1.
         22    1    3    3    0    0  0.28129714770E+02  0.11539716185E+02 -0.13852634831E+03  0.14182381703E+03  0.00000000000E+00 0. -1.
</event>
<event>
 7    1  0.5889087E-006  0.7483331E+02  0.7818608E-02  0.1516706E+00
          2   -1    0    0  502    0  0.00000000000E+00  0.00000000000E+00  0.49854483883E+03  0.49854483883E+03  0.00000000000E+00 0. -1.
          1   -1    0    0  501    0 -0.00000000000E+00 -0.00000000000E+00 -0.13393133454E+04  0.13393133454E+04  0.00000000000E+00 0. -1.
         25    2    1    2    0    0  0.88242132161E+02 -0.28562795992E+02 -0.20019737195E+02  0.15693592559E+03  0.12500235062E+03 0.  0.
          2    1    1    2  501    0 -0.72945379752E+02  0.15387560866E+02 -0.12494869550E+04  0.12517090142E+04  0.00000000000E+00 0. -1.
          1    1    1    2  502    0 -0.15296752409E+02  0.13175235125E+02  0.42873818560E+03  0.42921324449E+03  0.00000000000E+00 0. -1.
         22    1    3    3    0    0  0.56987725380E+01  0.10574407048E+02  0.43853423839E+02  0.45468856103E+02  0.00000000000E+00 0. -1.
         22    1    3    3    0    0  0.82543359623E+02 -0.39137203040E+02 -0.63873161034E+02  0.11146706949E+03  0.00000000000E+00 0. -1.
</event>
<event>
 7    1  0.5889087E-006  0.3608859E+02  0.7818608E-02  0.1613355E+00
          2   -1    0    0  502    0  0.00000000000E+00  0.00000000000E+00  0.48918036318E+03  0.48918036318E+03  0.00000000000E+00 0. -1.
          1   -1    0    0  501    0 -0.00000000000E+00 -0.00000000000E+00 -0.20178402270E+04  0.20178402270E+04  0.00000000000E+00 0. -1.
         25    2    1    2    0    0  0.48317178281E+02 -0.33176176421E+02 -0.19398352317E+02  0.13941626209E+03  0.12500155864E+03 0.  0.
          2    1    1    2  501    0 -0.28370957835E+02  0.22202848640E+02 -0.19379634894E+04  0.19382983166E+04  0.00000000000E+00 0. -1.
          1    1    1    2  502    0 -0.19946220445E+02  0.10973327781E+02  0.42870197792E+03  0.42930601150E+03  0.00000000000E+00 0. -1.
         22    1    3    3    0    0  0.52059841700E+02 -0.76057452338E+02 -0.26242446051E+02  0.95831253507E+02  0.00000000000E+00 0. -1.
         22    1    3    3    0    0 -0.37426634195E+01  0.42881275917E+02  0.68440937341E+01  0.43585008578E+02  0.00000000000E+00 0. -1.
</event>
<event>
 7    1  0.5889087E-006  0.1548701E+03  0.7818608E-02  0.1361645E+00
          2   -1    0    0  502    0  0.00000000000E+00  0.00000000000E+00  0.44437491569E+03  0.44437491569E+03  0.00000000000E+00 0. -1.
          1   -1    0    0  501    0 -0.00000000000E+00 -0.00000000000E+00 -0.12670085657E+04  0.12670085657E+04  0.00000000000E+00 0. -1.
         25    2    1    2    0    0  0.40576911299E+02  0.16432216635E+03  0.25849366067E+03  0.33331477963E+03  0.12502603580E+03 0.  0.
          2    1    1    2  501    0 -0.20430882088E+02 -0.23619702520E+02 -0.11953286879E+04  0.11957365862E+04  0.00000000000E+00 0. -1.
          1    1    1    2  502    0 -0.20146029211E+02 -0.14070246383E+03  0.11420137724E+03  0.18233211562E+03  0.00000000000E+00 0. -1.
         22    1    3    3    0    0  0.77521313355E+02  0.74817698121E+02  0.17476769677E+03  0.20530706226E+03  0.00000000000E+00 0. -1.
         22    1    3    3    0    0 -0.36944402057E+02  0.89504468233E+02  0.83725963900E+02  0.12800771738E+03  0.00000000000E+00 0. -1.
</event>
<event>
 7    1  0.5889087E-006  0.5845978E+02  0.7818608E-02  0.1493684E+00
          2   -1    0    0  502    0  0.00000000000E+00  0.00000000000E+00  0.89704573528E+02  0.89704573528E+02  0.00000000000E+00 0. -1.
          1   -1    0    0  501    0 -0.00000000000E+00 -0.00000000000E+00 -0.14197392768E+04  0.14197392768E+04  0.00000000000E+00 0. -1.
         25    2    1    2    0    0  0.69137901540E+01  0.54057940769E+02 -0.97689563757E+02  0.16774687992E+03  0.12500281358E+03 0.  0.
          2    1    1    2  501    0  0.29498122249E+02 -0.66500249989E+01 -0.12704484939E+04  0.12708083010E+04  0.00000000000E+00 0. -1.
          1    1    1    2  502    0 -0.36411912403E+02 -0.47407915770E+02  0.38103354397E+02  0.70888669467E+02  0.00000000000E+00 0. -1.
         22    1    3    3    0    0  0.81049133911E+01  0.16276097077E+02  0.29724049762E+02  0.34844226084E+02  0.00000000000E+00 0.  1.
         22    1    3    3    0    0 -0.11911232371E+01  0.37781843692E+02 -0.12741361352E+03  0.13290265384E+03  0.00000000000E+00 0.  1.
</event>
<event>
 7    1  0.5889087E-006  0.7634814E+02  0.7818608E-02  0.1434584E+00
          2   -1    0    0  502    0  0.00000000000E+00  0.00000000000E+00  0.82582566219E+03  0.82582566219E+03  0.00000000000E+00 0. -1.
          1   -1    0    0  501    0 -0.00000000000E+00 -0.00000000000E+00 -0.26850062773E+04  0.26850062773E+04  0.00000000000E+00 0. -1.
         25    2    1    2    0    0 -0.53439109930E+02 -0.36573771034E+02 -0.43124010728E+02  0.14723401287E+03  0.12499918019E+03 0.  0.
          2    1    1    2  501    0 -0.22716564373E+02  0.27261770904E+02 -0.25878034645E+04  0.25880467572E+04  0.00000000000E+00 0. -1.
          1    1    1    2  502    0  0.76155674303E+02  0.93120001296E+01  0.77174686020E+03  0.77555116936E+03  0.00000000000E+00 0. -1.
         22    1    3    3    0    0 -0.65442674892E+02 -0.51298558953E+02 -0.73782207985E+02  0.11116699179E+03  0.00000000000E+00 0.  1.
         22    1    3    3    0    0  0.12003564962E+02  0.14724787919E+02  0.30658197257E+02  0.36067021088E+02  0.00000000000E+00 0.  1.
</event>
<event>
 7    1  0.5889087E-006  0.3611515E+02  0.7818608E-02  0.1584303E+00
          2   -1    0    0  502    0  0.00000000000E+00  0.00000000000E+00  0.19669241438E+04  0.19669241438E+04  0.00000000000E+00 0. -1.
          1   -1    0    0  501    0 -0.00000000000E+00 -0.00000000000E+00 -0.59653655541E+02  0.59653655541E+02  0.00000000000E+00 0. -1.
         25    2    1    2    0    0 -0.26099101245E+02 -0.12272962717E+02  0.18477890882E+03  0.22494457424E+03  0.12500011054E+03 0.  0.
          2    1    1    2  501    0  0.34188072950E+02 -0.13592720611E+02 -0.30891748506E+02  0.48040467435E+02  0.00000000000E+00 0. -1.
          1    1    1    2  502    0 -0.80889717043E+01  0.25865683328E+02  0.17533833279E+04  0.17535927576E+04  0.00000000000E+00 0. -1.
         22    1    3    3    0    0  0.21670699240E+02  0.31968745067E+02  0.14171111334E+03  0.14687974507E+03  0.00000000000E+00 0.  1.
         22    1    3    3    0    0 -0.47769800486E+02 -0.44241707784E+02  0.43067795484E+02  0.78064829174E+02  0.00000000000E+00 0.  1.
</event>
<event>
 7    1  0.5889087E-006  0.4273646E+02  0.7818608E-02  0.1494907E+00
          2   -1    0    0  502    0  0.00000000000E+00  0.00000000000E+00  0.69779466725E+03  0.69779466725E+03  0.00000000000E+00 0. -1.
          1   -1    0    0  501    0 -0.00000000000E+00 -0.00000000000E+00 -0.73132339252E+02  0.73132339252E+02  0.00000000000E+00 0. -1.
         25    2    1    2    0    0  0.18294633510E+02  0.24680211237E+02  0.52395679198E+03  0.53953600602E+03  0.12499830193E+03 0.  0.
          2    1    1    2  501    0 -0.42287011307E+02  0.85850206033E+01 -0.55266639594E+02  0.70116298790E+02  0.00000000000E+00 0. -1.
          1    1    1    2  502    0  0.23992377796E+02 -0.33265231840E+02  0.15597217561E+03  0.16127470170E+03  0.00000000000E+00 0. -1.
         22    1    3    3    0    0 -0.48237742774E+02  0.19408967555E+02  0.33776792696E+03  0.34174663177E+03  0.00000000000E+00 0. -1.
         22    1    3    3    0    0  0.66532376285E+02  0.52712436816E+01  0.18618886502E+03  0.19778937424E+03  0.00000000000E+00 0. -1.
</event>
<event>
 7    1  0.5889087E-006  0.4205384E+02  0.7818608E-02  0.1506366E+00
          2   -1    0    0  502    0  0.00000000000E+00  0.00000000000E+00  0.14283589903E+04  0.14283589903E+04  0.00000000000E+00 0. -1.
          1   -1    0    0  501    0 -0.00000000000E+00 -0.00000000000E+00 -0.17293402329E+03  0.17293402329E+03  0.00000000000E+00 0. -1.
         25    2    1    2    0    0  0.29658425986E+02  0.41792098728E+02 -0.68295578157E+02  0.15137822736E+03  0.12499951990E+03 0.  0.
          2    1    1    2  501    0  0.12092916988E+02 -0.36579956662E+02 -0.56865451693E+02  0.68687782516E+02  0.00000000000E+00 0. -1.
          1    1    1    2  502    0 -0.41751342975E+02 -0.52121420660E+01  0.13805859968E+04  0.13812270037E+04  0.00000000000E+00 0. -1.
         22    1    3    3    0    0  0.37816391708E+02 -0.27418729121E+02  0.87146822311E+01  0.47516437943E+02  0.00000000000E+00 0. -1.
         22    1    3    3    0    0 -0.81579657212E+01  0.69210827849E+02 -0.77010260388E+02  0.10386178942E+03  0.00000000000E+00 0. -1.
</event>
<event>
 7    1  0.5889087E-006  0.1836488E+03  0.7818608E-02  0.1183303E+00
          2   -1    0    0  502    0  0.00000000000E+00  0.00000000000E+00  0.26707155640E+03  0.26707155640E+03  0.00000000000E+00 0. -1.
          1   -1    0    0  501    0 -0.00000000000E+00 -0.00000000000E+00 -0.82569584757E+03  0.82569584757E+03  0.00000000000E+00 0. -1.
         25    2    1    2    0    0 -0.10857904156E+03 -0.59785482557E+02 -0.10647737301E+03  0.20572694315E+03  0.12498972752E+03 0.  0.
          2    1    1    2  501    0  0.38852449030E+02 -0.14282597815E+03 -0.60563841981E+03  0.62346344590E+03  0.00000000000E+00 0. -1.
          1    1    1    2  502    0  0.69726592534E+02  0.20261146070E+03  0.15349150164E+03  0.26357701491E+03  0.00000000000E+00 0. -1.
         22    1    3    3    0    0 -0.97659736553E+01  0.33724995544E+02 -0.43249408873E+02  0.55706919981E+02  0.00000000000E+00 0.  1.
         22    1    3    3    0    0 -0.98813067908E+02 -0.93510478102E+02 -0.63227964132E+02  0.15002002317E+03  0.00000000000E+00 0.  1.
</event>
<event>
 7    1  0.5889087E-006  0.9102689E+02  0.7818608E-02  0.1304029E+00
          2   -1    0    0  502    0  0.00000000000E+00  0.00000000000E+00  0.66648665292E+03  0.66648665292E+03  0.00000000000E+00 0. -1.
          1   -1    0    0  501    0 -0.00000000000E+00 -0.00000000000E+00 -0.71140981842E+03  0.71140981842E+03  0.00000000000E+00 0. -1.
         25    2    1    2    0    0 -0.46389321650E+02 -0.14851065543E+03 -0.75304724215E+01  0.19972446790E+03  0.12500308445E+03 0.  0.
          2    1    1    2  501    0 -0.17289992931E+02  0.87731409925E+02 -0.60105860891E+03  0.60767359288E+03  0.00000000000E+00 0. -1.
          1    1    1    2  502    0  0.63679314581E+02  0.60779245502E+02  0.56366591583E+03  0.57049841056E+03  0.00000000000E+00 0. -1.
         22    1    3    3    0    0  0.55663834570E+01  0.63145071989E+01 -0.33341001891E+02  0.34387207404E+02  0.00000000000E+00 0.  1.
         22    1    3    3    0    0 -0.51955705107E+02 -0.15482516263E+03  0.25810529469E+02  0.16533726049E+03  0.00000000000E+00 0.  1.
</event>
<event>
 7    1  0.5889087E-006  0.1649886E+03  0.7818608E-02  0.1351856E+00
          2   -1    0    0  502    0  0.00000000000E+00  0.00000000000E+00  0.87237188849E+03  0.87237188849E+03  0.00000000000E+00 0. -1.
          1   -1    0    0  501    0 -0.00000000000E+00 -0.00000000000E+00 -0.84011244591E+02  0.84011244591E+02  0.00000000000E+00 0. -1.
         25    2    1    2    0    0 -0.77155492869E+01  0.15292690065E+03  0.25936243511E+03  0.32609669657E+03  0.12499606442E+03 0.  0.
          2    1    1    2  501    0  0.35844137001E+02 -0.16784749687E+03  0.97058822132E+02  0.19717504740E+03  0.00000000000E+00 0. -1.
          1    1    1    2  502    0 -0.28128587714E+02  0.14920596221E+02  0.43193938665E+03  0.43311138911E+03  0.00000000000E+00 0. -1.
         22    1    3    3    0    0  0.19244748100E+02  0.15212249885E+03  0.25667908890E+03  0.29899125349E+03  0.00000000000E+00 0.  1.
         22    1    3    3    0    0 -0.26960297387E+02  0.80440180123E+00  0.26833462122E+01  0.27105443076E+02  0.00000000000E+00 0.  1.
</event>
<event>
 7    1  0.5889087E-006  0.4624334E+03  0.7818608E-02  0.1170687E+00
          2   -1    0    0  502    0  0.00000000000E+00  0.00000000000E+00  0.36688703702E+04  0.36688703702E+04  0.00000000000E+00 0. -1.
          1   -1    0    0  501    0 -0.00000000000E+00 -0.00000000000E+00 -0.91151937377E+02  0.91151937377E+02  0.00000000000E+00 0. -1.
         25    2    1    2    0    0 -0.38282685384E+03 -0.23379177436E+03  0.15812043070E+04  0.16483464092E+04  0.12499532253E+03 0.  0.
          2    1    1    2  501    0  0.36564587636E+03  0.29936618817E+03  0.93156853859E+03  0.10445750158E+04  0.00000000000E+00 0. -1.
          1    1    1    2  502    0  0.17180977486E+02 -0.65574413810E+02  0.10649455872E+04  0.10671008825E+04  0.00000000000E+00 0. -1.
         22    1    3    3    0    0 -0.32499014805E+03 -0.18889184268E+03  0.14516944877E+04  0.14995718090E+04  0.00000000000E+00 0.  1.
         22    1    3    3    0    0 -0.57836705792E+02 -0.44899931675E+02  0.12950981924E+03  0.14877460025E+03  0.00000000000E+00 0.  1.
</event>
<event>
 7    1  0.5889087E-006  0.5753145E+02  0.7818608E-02  0.1430325E+00
          2   -1    0    0  502    0  0.00000000000E+00  0.00000000000E+00  0.48217126131E+03  0.48217126131E+03  0.00000000000E+00 0. -1.
          1   -1    0    0  501    0 -0.00000000000E+00 -0.00000000000E+00 -0.51697987130E+03  0.51697987130E+03  0.00000000000E+00 0. -1.
         25    2    1    2    0    0  0.16587372742E+02 -0.81510539387E+01 -0.76221825700E+01  0.12663096748E+03  0.12504288721E+03 0.  0.
          2    1    1    2  501    0 -0.84264613889E+00 -0.48624433930E+02 -0.44647323001E+03  0.44911400640E+03  0.00000000000E+00 0. -1.
          1    1    1    2  502    0 -0.15744726603E+02  0.56775487869E+02  0.41928680259E+03  0.42340615874E+03  0.00000000000E+00 0. -1.
         22    1    3    3    0    0  0.47881737950E+02 -0.49551460271E+02  0.14163623896E+02  0.70346402083E+02  0.00000000000E+00 0.  1.
         22    1    3    3    0    0 -0.31294365209E+02  0.41400406332E+02 -0.21785806466E+02  0.56284565394E+02  0.00000000000E+00 0.  1.
</event>
<event>
 7    1  0.5889087E-006  0.1030016E+03  0.7818608E-02  0.1374686E+00
          2   -1    0    0  502    0  0.00000000000E+00  0.00000000000E+00  0.67087758863E+03  0.67087758863E+03  0.00000000000E+00 0. -1.
          1   -1    0    0  501    0 -0.00000000000E+00 -0.00000000000E+00 -0.39760025797E+03  0.39760025797E+03  0.00000000000E+00 0. -1.
         25    2    1    2    0    0 -0.12781232251E+03  0.10329081606E+02  0.12314694408E+03  0.21733188812E+03  0.12500120018E+03 0.  0.
          2    1    1    2  501    0  0.29088882133E+02 -0.30488028654E+02 -0.34413971436E+03  0.34671000268E+03  0.00000000000E+00 0. -1.
          1    1    1    2  502    0  0.98723440378E+02  0.20158947048E+02  0.49427010094E+03  0.50443595580E+03  0.00000000000E+00 0. -1.
         22    1    3    3    0    0 -0.57868018362E+02 -0.32316099951E+02 -0.36428306099E+01  0.66380027719E+02  0.00000000000E+00 0.  1.
         22    1    3    3    0    0 -0.69944304149E+02  0.42645181557E+02  0.12678977469E+03  0.15095186040E+03  0.00000000000E+00 0.  1.
</event>
<event>
 7    1  0.5889087E-006  0.5983222E+02  0.7818608E-02  0.1418239E+00
          2   -1    0    0  502    0  0.00000000000E+00  0.00000000000E+00  0.20603140134E+04  0.20603140134E+04  0.00000000000E+00 0. -1.
          1   -1    0    0  501    0 -0.00000000000E+00 -0.00000000000E+00 -0.80956121506E+03  0.80956121506E+03  0.00000000000E+00 0. -1.
         25    2    1    2    0    0 -0.23247517942E+02  0.45059646463E+02  0.37345127024E+03  0.39706629812E+03  0.12499990011E+03 0.  0.
          2    1    1    2  501    0 -0.37183554946E+02 -0.35323747020E+02 -0.79636934674E+03  0.79801912276E+03  0.00000000000E+00 0. -1.
          1    1    1    2  502    0  0.60431072888E+02 -0.97358994423E+01  0.16736708748E+04  0.16747898075E+04  0.00000000000E+00 0. -1.
         22    1    3    3    0    0 -0.64120804410E+01  0.78058739583E+02  0.33353818058E+03  0.34261056537E+03  0.00000000000E+00 0.  1.
         22    1    3    3    0    0 -0.16835437501E+02 -0.32999093121E+02  0.39913089662E+02  0.54455732747E+02  0.00000000000E+00 0.  1.
</event>
<event>
 7    1  0.5889087E-006  0.6727802E+02  0.7818608E-02  0.1379789E+00
          2   -1    0    0  502    0  0.00000000000E+00  0.00000000000E+00  0.10009278850E+04  0.10009278850E+04  0.00000000000E+00 0. -1.
          1   -1    0    0  501    0 -0.00000000000E+00 -0.00000000000E+00 -0.28522271370E+03  0.28522271370E+03  0.00000000000E+00 0. -1.
         25    2    1    2    0    0  0.42493769882E+02  0.11689542039E+03  0.23639437602E+03  0.29493860183E+03  0.12504486414E+03 0.  0.
          2    1    1    2  501    0 -0.73085690773E+01 -0.65999767181E+02 -0.25031217172E+03  0.25897020632E+03  0.00000000000E+00 0. -1.
          1    1    1    2  502    0 -0.35185200804E+02 -0.50895653213E+02  0.72962296701E+03  0.73224179057E+03  0.00000000000E+00 0. -1.
         22    1    3    3    0    0  0.64973331122E+02  0.13323542955E+03  0.19201207345E+03  0.24257339054E+03  0.00000000000E+00 0. -1.
         22    1    3    3    0    0 -0.22479561241E+02 -0.16340009155E+02  0.44382302564E+02  0.52365211292E+02  0.00000000000E+00 0. -1.
</event>
<event>
 7    1  0.5889087E-006  0.8428902E+02  0.7818608E-02  0.1421587E+00
          2   -1    0    0  502    0  0.00000000000E+00  0.00000000000E+00  0.13414513670E+04  0.13414513670E+04  0.00000000000E+00 0. -1.
          1   -1    0    0  501    0 -0.00000000000E+00 -0.00000000000E+00 -0.95309681239E+03  0.95309681239E+03  0.00000000000E+00 0. -1.
         25    2    1    2    0    0  0.79765167851E+01 -0.60327015717E+02  0.18463589329E+03  0.23112442923E+03  0.12500046020E+03 0.  0.
          2    1    1    2  501    0  0.20004300834E+02  0.82142906107E+02 -0.92765215627E+03  0.93149672684E+03  0.00000000000E+00 0. -1.
          1    1    1    2  502    0 -0.27980817619E+02 -0.21815890390E+02  0.11313708176E+04  0.11319270234E+04  0.00000000000E+00 0. -1.
         22    1    3    3    0    0  0.43560032012E+02 -0.69843485401E+02  0.61929967106E+02  0.10300926981E+03  0.00000000000E+00 0. -1.
         22    1    3    3    0    0 -0.35583515227E+02  0.95164696840E+01  0.12270592618E+03  0.12811515941E+03  0.00000000000E+00 0. -1.
</event>
<event>
 7    1  0.5889087E-006  0.1989252E+03  0.7818608E-02  0.1226146E+00
          2   -1    0    0  502    0  0.00000000000E+00  0.00000000000E+00  0.18533637388E+04  0.18533637388E+04  0.00000000000E+00 0. -1.
          1   -1    0    0  501    0 -0.00000000000E+00 -0.00000000000E+00 -0.98313180032E+03  0.98313180032E+03  0.00000000000E+00 0. -1.
         25    2    1    2    0    0  0.19312099724E+03  0.79241410786E+02  0.15846775560E+03  0.29036607521E+03  0.12500202922E+03 0.  0.
          2    1    1    2  501    0 -0.13709923508E+03 -0.14464923365E+03 -0.90519669363E+03  0.92687682850E+03  0.00000000000E+00 0. -1.
          1    1    1    2  502    0 -0.56021762159E+02  0.65407822865E+02  0.16169608765E+04  0.16192526354E+04  0.00000000000E+00 0. -1.
         22    1    3    3    0    0  0.14436635783E+03  0.80549506846E+02  0.17318472471E+03  0.23942183944E+03  0.00000000000E+00 0.  1.
         22    1    3    3    0    0  0.48754639404E+02 -0.13080960605E+01 -0.14716969106E+02  0.50944235772E+02  0.00000000000E+00 0.  1.
</event>
<event>
 7    1  0.5889087E-006  0.6900712E+02  0.7818608E-02  0.1465611E+00
          2   -1    0    0  502    0  0.00000000000E+00  0.00000000000E+00  0.86251363831E+03  0.86251363831E+03  0.00000000000E+00 0. -1.
          1   -1    0    0  501    0 -0.00000000000E+00 -0.00000000000E+00 -0.21103898736E+04  0.21103898736E+04  0.00000000000E+00 0. -1.
         25    2    1    2    0    0 -0.74285910544E+02  0.50982819694E+02  0.28618166025E+03  0.32502651729E+03  0.12499859948E+03 0.  0.
          2    1    1    2  501    0  0.43173983968E+02 -0.53791782008E+02 -0.20899599949E+04  0.20910978765E+04  0.00000000000E+00 0. -1.
          1    1    1    2  502    0  0.31111926576E+02  0.28089623142E+01  0.55590209940E+03  0.55677911811E+03  0.00000000000E+00 0. -1.
         22    1    3    3    0    0  0.24556640970E+02  0.44874604085E+02  0.13428908312E+03  0.14370218005E+03  0.00000000000E+00 0. -1.
         22    1    3    3    0    0 -0.98842551514E+02  0.61082156093E+01  0.15189257713E+03  0.18132433724E+03  0.00000000000E+00 0. -1.
</event>
<event>
 7    1  0.5889087E-006  0.1322701E+03  0.7818608E-02  0.1359742E+00
          2   -1    0    0  502    0  0.00000000000E+00  0.00000000000E+00  0.84318574436E+02  0.84318574436E+02  0.00000000000E+00 0. -1.
          1   -1    0    0  501    0 -0.00000000000E+00 -0.00000000000E+00 -0.74928462751E+03  0.74928462751E+03  0.00000000000E+00 0. -1.
         25    2    1    2    0    0 -0.14249516154E+03  0.76977826701E+02 -0.20378506517E+03  0.28875167391E+03  0.12497487562E+03 0.  0.
          2    1    1    2  501    0  0.11595242521E+03 -0.50978348636E+02 -0.48463443573E+03  0.50091345883E+03  0.00000000000E+00 0. -1.
          1    1    1    2  502    0  0.26542736330E+02 -0.25999478064E+02  0.23453447814E+02  0.43938069209E+02  0.00000000000E+00 0. -1.
         22    1    3    3    0    0 -0.45767423181E+01 -0.29729969353E+02 -0.26680953450E+02  0.40208095267E+02  0.00000000000E+00 0.  1.
         22    1    3    3    0    0 -0.13791841922E+03  0.10670779605E+03 -0.17710411172E+03  0.24854357865E+03  0.00000000000E+00 0.  1.
</event>
<event>
 7    1  0.5889087E-006  0.6024935E+02  0.7818608E-02  0.1443558E+00
          2   -1    0    0  502    0  0.00000000000E+00  0.00000000000E+00  0.57371949396E+03  0.57371949396E+03  0.00000000000E+00 0. -1.
          1   -1    0    0  501    0 -0.00000000000E+00 -0.00000000000E+00 -0.13225284459E+03  0.13225284459E+03  0.00000000000E+00 0. -1.
         25    2    1    2    0    0 -0.56674920153E+02  0.69111780257E+02 -0.52578361406E+02  0.16241267510E+03  0.12499963281E+03 0.  0.
          2    1    1    2  501    0  0.27046816051E+02 -0.39276096758E+02 -0.40742107790E-01  0.47687982710E+02  0.00000000000E+00 0. -1.
          1    1    1    2  502    0  0.29628104101E+02 -0.29835683499E+02  0.49408575287E+03  0.49587168074E+03  0.00000000000E+00 0. -1.
         22    1    3    3    0    0  0.24289171546E+02  0.68288389153E+02 -0.29164220754E+02  0.78126946182E+02  0.00000000000E+00 0.  1.
         22    1    3    3    0    0 -0.80964091699E+02  0.82339110438E+00 -0.23414140652E+02  0.84285728922E+02  0.00000000000E+00 0.  1.
</event>
<event>
 7    1  0.6349532E-006  0.6949628E+02  0.7818608E-02  0.1402654E+00
          2   -1    0    0  502    0  0.00000000000E+00  0.00000000000E+00  0.66330987605E+03  0.66330987605E+03  0.00000000000E+00 0. -1.
          1   -1    0    0  501    0 -0.00000000000E+00 -0.00000000000E+00 -0.23347501053E+04  0.23347501053E+04  0.00000000000E+00 0. -1.
         25    2    1    2    0    0  0.51679580743E+02  0.19934030099E+01 -0.45826548596E+03  0.47781583681E+03  0.12500386218E+03 0.  0.
          2    1    1    2  501    0 -0.49609181953E+02 -0.51811784541E+02 -0.18650679272E+04  0.18664468664E+04  0.00000000000E+00 0. -1.
          1    1    1    2  502    0 -0.20703987901E+01  0.49818381531E+02  0.65189318392E+03  0.65379727816E+03  0.00000000000E+00 0. -1.
         22    1    3    3    0    0  0.73706287692E+02 -0.16217419926E+01 -0.13531950190E+03  0.15409936563E+03  0.00000000000E+00 0.  1.
         22    1    3    3    0    0 -0.22026706949E+02  0.36151450025E+01 -0.32294598406E+03  0.32371647118E+03  0.00000000000E+00 0.  1.
</event>
<event>
 7    1  0.5889087E-006  0.8567221E+02  0.7818608E-02  0.1346911E+00
          2   -1    0    0  502    0  0.00000000000E+00  0.00000000000E+00  0.44700170982E+03  0.44700170982E+03  0.00000000000E+00 0. -1.
          1   -1    0    0  501    0 -0.00000000000E+00 -0.00000000000E+00 -0.30083157621E+04  0.30083157621E+04  0.00000000000E+00 0. -1.
         25    2    1    2    0    0  0.11206877892E+03 -0.97758874940E+02  0.32624056945E+03  0.37970282174E+03  0.12500045936E+03 0.  0.
          2    1    1    2  501    0 -0.59155076528E+02  0.61820232734E+02 -0.29700187378E+04  0.29712509768E+04  0.00000000000E+00 0. -1.
          1    1    1    2  502    0 -0.52913702395E+02  0.35938642206E+02  0.82464116007E+02  0.10436367344E+03  0.00000000000E+00 0. -1.
         22    1    3    3    0    0 -0.39919501717E+01 -0.51383137801E+02  0.33689013331E+02  0.61572007728E+02  0.00000000000E+00 0.  1.
         22    1    3    3    0    0  0.11606072909E+03 -0.46375737139E+02  0.29255155612E+03  0.31813081401E+03  0.00000000000E+00 0.  1.
</event>
<event>
 7    1  0.5889087E-006  0.8085046E+02  0.7818608E-02  0.1377442E+00
          2   -1    0    0  502    0  0.00000000000E+00  0.00000000000E+00  0.19485651778E+03  0.19485651778E+03  0.00000000000E+00 0. -1.
          1   -1    0    0  501    0 -0.00000000000E+00 -0.00000000000E+00 -0.24086716507E+03  0.24086716507E+03  0.00000000000E+00 0. -1.
         25    2    1    2    0    0 -0.35876126690E+02 -0.27072602800E+02  0.49771890911E+02  0.14185458248E+03  0.12500183662E+03 0.  0.
          2    1    1    2  501    0  0.84751360614E+02  0.79470547308E+01 -0.17743872138E+03  0.19680053011E+03  0.00000000000E+00 0. -1.
          1    1    1    2  502    0 -0.48875233924E+02  0.19125548069E+02  0.81656183185E+02  0.97068570260E+02  0.00000000000E+00 0. -1.
         22    1    3    3    0    0 -0.70171201466E+02 -0.87756096078E+01  0.68723499834E+02  0.98609980573E+02  0.00000000000E+00 0. -1.
         22    1    3    3    0    0  0.34295074775E+02 -0.18296993192E+02 -0.18951608923E+02  0.43244601911E+02  0.00000000000E+00 0. -1.
</event>
<event>
 7    1  0.5889087E-006  0.6310956E+02  0.7818608E-02  0.1385913E+00
          2   -1    0    0  502    0  0.00000000000E+00  0.00000000000E+00  0.45007437995E+03  0.45007437995E+03  0.00000000000E+00 0. -1.
          1   -1    0    0  501    0 -0.00000000000E+00 -0.00000000000E+00 -0.24719976244E+03  0.24719976244E+03  0.00000000000E+00 0. -1.
         25    2    1    2    0    0 -0.61581597265E+02 -0.45297159189E+02 -0.94975295246E+02  0.17461227868E+03  0.12500006163E+03 0.  0.
          2    1    1    2  501    0  0.62889716949E+00  0.62757106175E+02 -0.10094158693E+03  0.11886149023E+03  0.00000000000E+00 0. -1.
          1    1    1    2  502    0  0.60952700096E+02 -0.17459946986E+02  0.39879149969E+03  0.40380037348E+03  0.00000000000E+00 0. -1.
         22    1    3    3    0    0 -0.10887022430E+02  0.19377208954E+02 -0.89540544981E+02  0.92257859717E+02  0.00000000000E+00 0.  1.
         22    1    3    3    0    0 -0.50694574835E+02 -0.64674368143E+02 -0.54347502650E+01  0.82354418964E+02  0.00000000000E+00 0.  1.
</event>
<event>
 7    1  0.5889087E-006  0.5064739E+02  0.7818608E-02  0.1517573E+00
          2   -1    0    0  502    0  0.00000000000E+00  0.00000000000E+00  0.50331564803E+02  0.50331564803E+02  0.00000000000E+00 0. -1.
          1   -1    0    0  501    0 -0.00000000000E+00 -0.00000000000E+00 -0.66319439783E+03  0.66319439783E+03  0.00000000000E+00 0. -1.
         25    2    1    2    0    0 -0.13965395782E+02 -0.26932869247E+02 -0.41006261896E+03  0.42976273519E+03  0.12499698140E+03 0.  0.
          2    1    1    2  501    0  0.38209508204E+02  0.44012465134E+02 -0.23374508813E+03  0.24090211670E+03  0.00000000000E+00 0. -1.
          1    1    1    2  502    0 -0.24244112422E+02 -0.17079595887E+02  0.30944874073E+02  0.42861110744E+02  0.00000000000E+00 0. -1.
         22    1    3    3    0    0 -0.26819081091E+02 -0.35145032531E+02 -0.40717646059E+02  0.60102937721E+02  0.00000000000E+00 0. -1.
         22    1    3    3    0    0  0.12853685309E+02  0.82121632839E+01 -0.36934497290E+03  0.36965979746E+03  0.00000000000E+00 0. -1.
</event>
<event>
 7    1  0.5889087E-006  0.1394192E+03  0.7818608E-02  0.1325142E+00
          2   -1    0    0  502    0  0.00000000000E+00  0.00000000000E+00  0.42875517047E+03  0.42875517047E+03  0.00000000000E+00 0. -1.
          1   -1    0    0  501    0 -0.00000000000E+00 -0.00000000000E+00 -0.16944695725E+04  0.16944695725E+04  0.00000000000E+00 0. -1.
         25    2    1    2    0    0 -0.11335492022E+03  0.76343325141E+02 -0.52226043080E+03  0.55412895529E+03  0.12500120112E+03 0.  0.
          2    1    1    2  501    0  0.84418755929E+02 -0.11403489851E+03 -0.11505352452E+04  0.11592505488E+04  0.00000000000E+00 0. -1.
          1    1    1    2  502    0  0.28936164291E+02  0.37691573373E+02  0.40708127391E+03  0.40984523893E+03  0.00000000000E+00 0. -1.
         22    1    3    3    0    0 -0.10645723754E+03  0.64151576452E+02 -0.22918429442E+03  0.26071825596E+03  0.00000000000E+00 0. -1.
         22    1    3    3    0    0 -0.68976826787E+01  0.12191748688E+02 -0.29307613638E+03  0.29341069933E+03  0.00000000000E+00 0. -1.
</event>
<event>
 7    1  0.1397610E-005  0.8311138E+02  0.7818608E-02  0.1350175E+00
          2   -1    0    0  502    0  0.00000000000E+00  0.00000000000E+00  0.16156628488E+04  0.16156628488E+04  0.00000000000E+00 0. -1.
          1   -1    0    0  501    0 -0.00000000000E+00 -0.00000000000E+00 -0.17355117331E+04  0.17355117331E+04  0.00000000000E+00 0. -1.
         25    2    1    2    0    0 -0.66626172068E+02 -0.53140377542E+02 -0.23791395780E+03  0.28194179497E+03  0.12500071163E+03 0.  0.
          2    1    1    2  501    0  0.10226672613E+02  0.83645862695E+02 -0.14737347430E+04  0.14761420351E+04  0.00000000000E+00 0. -1.
          1    1    1    2  502    0  0.56399499455E+02 -0.30505485152E+02  0.15917998164E+04  0.15930907519E+04  0.00000000000E+00 0. -1.
         22    1    3    3    0    0 -0.62067237829E+02 -0.83447574315E+02 -0.11407302014E+03  0.15436480685E+03  0.00000000000E+00 0.  1.
         22    1    3    3    0    0 -0.45589342389E+01  0.30307196773E+02 -0.12384093766E+03  0.12757698812E+03  0.00000000000E+00 0.  1.
</event>
<event>
 7    1  0.5889087E-006  0.1523858E+03  0.7818608E-02  0.1270430E+00
          2   -1    0    0  502    0  0.00000000000E+00  0.00000000000E+00  0.44408127723E+03  0.44408127723E+03  0.00000000000E+00 0. -1.
          1   -1    0    0  501    0 -0.00000000000E+00 -0.00000000000E+00 -0.88240158409E+03  0.88240158409E+03  0.00000000000E+00 0. -1.
         25    2    1    2    0    0 -0.11953993868E+03 -0.53650028743E+02 -0.36967540652E+03  0.41164668596E+03  0.12499986138E+03 0.  0.
          2    1    1    2  501    0  0.17259534661E+03  0.47805209625E+01 -0.47329579613E+03  0.50380642879E+03  0.00000000000E+00 0. -1.
          1    1    1    2  502    0 -0.53055407938E+02  0.48869507781E+02  0.40465089580E+03  0.41102974658E+03  0.00000000000E+00 0. -1.
         22    1    3    3    0    0 -0.22555185049E+02 -0.54599321392E+01 -0.24667548141E+03  0.24776468748E+03  0.00000000000E+00 0. -1.
         22    1    3    3    0    0 -0.96984753628E+02 -0.48190096604E+02 -0.12299992511E+03  0.16388199848E+03  0.00000000000E+00 0. -1.
</event>
<event>
 7    1  0.5889087E-006  0.1862340E+03  0.7818608E-02  0.1199920E+00
          2   -1    0    0  502    0  0.00000000000E+00  0.00000000000E+00  0.41463399703E+03  0.41463399703E+03  0.00000000000E+00 0. -1.
          1   -1    0    0  501    0 -0.00000000000E+00 -0.00000000000E+00 -0.30896303132E+04  0.30896303132E+04  0.00000000000E+00 0. -1.
         25    2    1    2    0    0  0.68148541176E+02 -0.22108456317E+03 -0.17033221675E+03  0.31330567429E+03  0.12499909497E+03 0.  0.
          2    1    1    2  501    0 -0.13943851353E+03  0.12264390078E+03 -0.28339135793E+04  0.28399913380E+04  0.00000000000E+00 0. -1.
          1    1    1    2  502    0  0.71289972357E+02  0.98440662395E+02  0.32924947987E+03  0.35096729786E+03  0.00000000000E+00 0. -1.
         22    1    3    3    0    0  0.61193247275E+02 -0.23502336780E+03 -0.14296309173E+03  0.28181384374E+03  0.00000000000E+00 0.  1.
         22    1    3    3    0    0  0.69552939012E+01  0.13938804624E+02 -0.27369125017E+02  0.31491830557E+02  0.00000000000E+00 0.  1.
</event>
<event>
 7    1  0.5889087E-006  0.6816894E+02  0.7818608E-02  0.1459499E+00
          2   -1    0    0  502    0  0.00000000000E+00  0.00000000000E+00  0.76407111541E+03  0.76407111541E+03  0.00000000000E+00 0. -1.
          1   -1    0    0  501    0 -0.00000000000E+00 -0.00000000000E+00 -0.71385364786E+03  0.71385364786E+03  0.00000000000E+00 0. -1.
         25    2    1    2    0    0 -0.11270079565E+02  0.37566952858E+02 -0.20313571166E+03  0.24172448820E+03  0.12501328011E+03 0.  0.
          2    1    1    2  501    0  0.17026097072E+02 -0.70114885545E+02 -0.48840511212E+03  0.49370592330E+03  0.00000000000E+00 0. -1.
          1    1    1    2  502    0 -0.57560175069E+01  0.32547932687E+02  0.74175829132E+03  0.74249435177E+03  0.00000000000E+00 0. -1.
         22    1    3    3    0    0  0.26039926883E+02  0.44001650591E+02 -0.20303344303E+02  0.55013169666E+02  0.00000000000E+00 0.  1.
         22    1    3    3    0    0 -0.37310006448E+02 -0.64346977322E+01 -0.18283236736E+03  0.18671131854E+03  0.00000000000E+00 0.  1.
</event>
<event>
 7    1  0.5889087E-006  0.5925914E+02  0.7818608E-02  0.1508784E+00
          2   -1    0    0  502    0  0.00000000000E+00  0.00000000000E+00  0.38364990657E+04  0.38364990657E+04  0.00000000000E+00 0. -1.
          1   -1    0    0  501    0 -0.00000000000E+00 -0.00000000000E+00 -0.16043214783E+04  0.16043214783E+04  0.00000000000E+00 0. -1.
         25    2    1    2    0    0 -0.35015875483E+02  0.76403436450E+02  0.30245679776E+03  0.33788834020E+03  0.12499927717E+03 0.  0.
          2    1    1    2  501    0  0.33988359840E+01 -0.26679655861E+02 -0.15862448478E+04  0.15864728404E+04  0.00000000000E+00 0. -1.
          1    1    1    2  502    0  0.31617039499E+02 -0.49723780589E+02  0.35159656374E+04  0.35164593635E+04  0.00000000000E+00 0. -1.
         22    1    3    3    0    0 -0.43596854152E+02  0.51293272981E+02  0.49535999691E+02  0.83579308506E+02  0.00000000000E+00 0.  1.
         22    1    3    3    0    0  0.85809786692E+01  0.25110163469E+02  0.25292079807E+03  0.25430903170E+03  0.00000000000E+00 0.  1.
</event>
<event>
 7    1  0.5889087E-006  0.1008252E+03  0.7818608E-02  0.1401805E+00
          2   -1    0    0  502    0  0.00000000000E+00  0.00000000000E+00  0.48039990871E+03  0.48039990871E+03  0.00000000000E+00 0. -1.
          1   -1    0    0  501    0 -0.00000000000E+00 -0.00000000000E+00 -0.27368298295E+03  0.27368298295E+03  0.00000000000E+00 0. -1.
         25    2    1    2    0    0 -0.43772777096E+02 -0.58516158904E+02  0.25553243778E+02  0.14703174700E+03  0.12500067796E+03 0.  0.
          2    1    1    2  501    0  0.49778753539E+02  0.92590296693E+02 -0.19913641918E+03  0.22518037390E+03  0.00000000000E+00 0. -1.
          1    1    1    2  502    0 -0.60059764422E+01 -0.34074137789E+02  0.38030010116E+03  0.38187077076E+03  0.00000000000E+00 0. -1.
         22    1    3    3    0    0  0.18520013941E+02 -0.76081180161E+02  0.25367964263E+02  0.82309601517E+02  0.00000000000E+00 0.  1.
         22    1    3    3    0    0 -0.62292791037E+02  0.17565021256E+02  0.18527951515E+00  0.64722145479E+02  0.00000000000E+00 0.  1.
</event>
<event>
 7    1  0.5889087E-006  0.3127471E+03  0.7818608E-02  0.1261510E+00
          2   -1    0    0  502    0  0.00000000000E+00  0.00000000000E+00  0.72231232568E+03  0.72231232568E+03  0.00000000000E+00 0. -1.
          1   -1    0    0  501    0 -0.00000000000E+00 -0.00000000000E+00 -0.21665255779E+04  0.21665255779E+04  0.00000000000E+00 0. -1.
         25    2    1    2    0    0  0.32856830539E+03  0.88516588870E+02 -0.83197932818E+02  0.37194065843E+03  0.12500255820E+03 0.  0.
          2    1    1    2  501    0 -0.36945119830E+02  0.10225305802E+02 -0.18977439066E+04  0.18981310370E+04  0.00000000000E+00 0. -1.
          1    1    1    2  502    0 -0.29162318556E+03 -0.98741894672E+02  0.53672858714E+03  0.61876620817E+03  0.00000000000E+00 0. -1.
         22    1    3    3    0    0  0.93514633085E+02  0.84281327692E+02 -0.12823702141E+02  0.12654159844E+03  0.00000000000E+00 0.  1.
         22    1    3    3    0    0  0.23505367231E+03  0.42352611776E+01 -0.70374230677E+02  0.24539905999E+03  0.00000000000E+00 0.  1.
</event>
<event>
 7    1  0.5889087E-006  0.2760491E+02  0.7818608E-02  0.1666724E+00
          2   -1    0    0  502    0  0.00000000000E+00  0.00000000000E+00  0.16710521985E+02  0.16710521985E+02  0.00000000000E+00 0. -1.
          1   -1    0    0  501    0 -0.00000000000E+00 -0.00000000000E+00 -0.10254713743E+04  0.10254713743E+04  0.00000000000E+00 0. -1.
         25    2    1    2    0    0  0.67093195968E+01 -0.17699756133E+02 -0.26261666779E+03  0.29146295141E+03  0.12499936602E+03 0.  0.
          2    1    1    2  501    0  0.21924376891E+02  0.62306139101E+00 -0.61540958538E+03  0.61580031202E+03  0.00000000000E+00 0. -1.
          1    1    1    2  502    0 -0.28633696488E+02  0.17076694742E+02 -0.13073459911E+03  0.13491863282E+03  0.00000000000E+00 0. -1.
         22    1    3    3    0    0 -0.19352057061E+02 -0.47624712147E+01  0.63580743293E+01  0.20919090653E+02  0.00000000000E+00 0. -1.
         22    1    3    3    0    0  0.26061376658E+02 -0.12937284919E+02 -0.26897474212E+03  0.27054386076E+03  0.00000000000E+00 0. -1.
</event>
<event>
 7    1  0.5889087E-006  0.8921092E+02  0.7818608E-02  0.1355692E+00
          2   -1    0    0  502    0  0.00000000000E+00  0.00000000000E+00  0.92973175704E+03  0.92973175704E+03  0.00000000000E+00 0. -1.
          1   -1    0    0  501    0 -0.00000000000E+00 -0.00000000000E+00 -0.18601379428E+04  0.18601379428E+04  0.00000000000E+00 0. -1.
         25    2    1    2    0    0 -0.80605455552E+02  0.98922259432E+02  0.40859967351E+02  0.18324099043E+03  0.12499948306E+03 0.  0.
          2    1    1    2  501    0  0.30083716321E+01 -0.56922483116E+02 -0.17861111387E+04  0.17870204865E+04  0.00000000000E+00 0. -1.
          1    1    1    2  502    0  0.77597083920E+02 -0.41999776316E+02  0.81484498556E+03  0.81960822295E+03  0.00000000000E+00 0. -1.
         22    1    3    3    0    0 -0.88835229332E+02  0.11817843613E+03  0.55252161975E+02  0.15783105569E+03  0.00000000000E+00 0.  1.
         22    1    3    3    0    0  0.82297737798E+01 -0.19256176698E+02 -0.14392194624E+02  0.25409934742E+02  0.00000000000E+00 0.  1.
</event>
<event>
 7    1  0.5889087E-006  0.9392114E+02  0.7818608E-02  0.1317844E+00
          2   -1    0    0  502    0  0.00000000000E+00  0.00000000000E+00  0.11681581374E+03  0.11681581374E+03  0.00000000000E+00 0. -1.
          1   -1    0    0  501    0 -0.00000000000E+00 -0.00000000000E+00 -0.20672109744E+04  0.20672109744E+04  0.00000000000E+00 0. -1.
         25    2    1    2    0    0  0.20094054121E+02  0.15290840859E+03 -0.64951148106E+03  0.67916325027E+03  0.12495120671E+03 0.  0.
          2    1    1    2  501    0 -0.41149335001E+02 -0.63035850252E+02 -0.13807508510E+04  0.13828013953E+04  0.00000000000E+00 0. -1.
          1    1    1    2  502    0  0.21055280881E+02 -0.89872558341E+02  0.79867171394E+02  0.12206214263E+03  0.00000000000E+00 0. -1.
         22    1    3    3    0    0  0.32210086798E+01  0.16966258299E+03 -0.60889100576E+03  0.63209494845E+03  0.00000000000E+00 0.  1.
         22    1    3    3    0    0  0.16873045441E+02 -0.16754174400E+02 -0.40620475303E+02  0.47068301819E+02  0.00000000000E+00 0.  1.
</event>
<event>
 7    1  0.5889087E-006  0.6880468E+02  0.7818608E-02  0.1405530E+00
          2   -1    0    0  502    0  0.00000000000E+00  0.00000000000E+00  0.42313574997E+03  0.42313574997E+03  0.00000000000E+00 0. -1.
          1   -1    0    0  501    0 -0.00000000000E+00 -0.00000000000E+00 -0.28067771941E+03  0.28067771941E+03  0.00000000000E+00 0. -1.
         25    2    1    2    0    0  0.10698873534E+03  0.34770315039E+01 -0.59229155379E+02  0.17490500374E+03  0.12499995300E+03 0.  0.
          2    1    1    2  501    0 -0.62526190679E+02  0.17670151870E+02 -0.15540327762E+03  0.16843971469E+03  0.00000000000E+00 0. -1.
          1    1    1    2  502    0 -0.44462544659E+02 -0.21147183374E+02  0.35709046357E+03  0.36046875095E+03  0.00000000000E+00 0. -1.
         22    1    3    3    0    0  0.78066319686E+02 -0.32288656244E+01 -0.98467223020E+02  0.12570031763E+03  0.00000000000E+00 0.  1.
         22    1    3    3    0    0  0.28922415652E+02  0.67058971283E+01  0.39238067641E+02  0.49204686115E+02  0.00000000000E+00 0.  1.
</event>
<event>
 7    1  0.5889087E-006  0.8251638E+02  0.7818608E-02  0.1421511E+00
          2   -1    0    0  502    0  0.00000000000E+00  0.00000000000E+00  0.99424036889E+03  0.99424036889E+03  0.00000000000E+00 0. -1.
          1   -1    0    0  501    0 -0.00000000000E+00 -0.00000000000E+00 -0.76661877227E+02  0.76661877227E+02  0.00000000000E+00 0. -1.
         25    2    1    2    0    0  0.10925315898E+03 -0.99456767387E+01  0.23252497508E+03  0.28588188643E+03  0.12500167888E+03 0.  0.
          2    1    1    2  501    0 -0.78832613677E+02 -0.97939787612E+01 -0.17654869492E+02  0.81376885022E+02  0.00000000000E+00 0. -1.
          1    1    1    2  502    0 -0.30420545300E+02  0.19739655500E+02  0.70270838608E+03  0.70364347467E+03  0.00000000000E+00 0. -1.
         22    1    3    3    0    0  0.43047738746E+02 -0.66381395104E+02  0.11779751844E+03  0.14190085545E+03  0.00000000000E+00 0.  1.
         22    1    3    3    0    0  0.66205420231E+02  0.56435718365E+02  0.11472745664E+03  0.14398103098E+03  0.00000000000E+00 0.  1.
</event>
<event>
 7    1  0.5889087E-006  0.6723271E+02  0.7818608E-02  0.1466145E+00
          2   -1    0    0  502    0  0.00000000000E+00  0.00000000000E+00  0.12815420175E+03  0.12815420175E+03  0.00000000000E+00 0. -1.
          1   -1    0    0  501    0 -0.00000000000E+00 -0.00000000000E+00 -0.32288378092E+03  0.32288378092E+03  0.00000000000E+00 0. -1.
         25    2    1    2    0    0  0.15460775151E+01  0.40058330925E+02  0.54193594746E+02  0.14201280848E+03  0.12499452720E+03 0.  0.
          2    1    1    2  501    0 -0.21398664232E+02 -0.65078797000E+02 -0.26468581028E+03  0.27340762757E+03  0.00000000000E+00 0. -1.
          1    1    1    2  502    0  0.19852586717E+02  0.25020466076E+02  0.15762636358E+02  0.35617546616E+02  0.00000000000E+00 0. -1.
         22    1    3    3    0    0  0.16220472723E+02 -0.43501473334E+02  0.19202782763E+02  0.50241703628E+02  0.00000000000E+00 0. -1.
         22    1    3    3    0    0 -0.14674395208E+02  0.83559804259E+02  0.34990811982E+02  0.91771104852E+02  0.00000000000E+00 0. -1.
</event>
<event>
 7    1  0.5889087E-006  0.1455530E+03  0.7818608E-02  0.1212694E+00
          2   -1    0    0  502    0  0.00000000000E+00  0.00000000000E+00  0.54107333788E+03  0.54107333788E+03  0.00000000000E+00 0. -1.
          1   -1    0    0  501    0 -0.00000000000E+00 -0.00000000000E+00 -0.60513950509E+03  0.60513950509E+03  0.00000000000E+00 0. -1.
         25    2    1    2    0    0  0.18684521679E+02 -0.33535937090E+01 -0.17651204083E+03  0.21712090993E+03  0.12499852411E+03 0.  0.
          2    1    1    2  501    0  0.13124881754E+03  0.33956795726E+02 -0.38524711210E+03  0.40840501155E+03  0.00000000000E+00 0. -1.
          1    1    1    2  502    0 -0.14993333922E+03 -0.30603202017E+02  0.49769298571E+03  0.52068692149E+03  0.00000000000E+00 0. -1.
         22    1    3    3    0    0  0.63700161983E+02  0.29268224881E+02 -0.10994725370E+03  0.13039454828E+03  0.00000000000E+00 0.  1.
         22    1    3    3    0    0 -0.45015640304E+02 -0.32621818590E+02 -0.66564787129E+02  0.86726361654E+02  0.00000000000E+00 0.  1.
</event>
<event>
 7    1  0.5889087E-006  0.1060652E+03  0.7818608E-02  0.1364927E+00
          2   -1    0    0  502    0  0.00000000000E+00  0.00000000000E+00  0.21337459977E+04  0.21337459977E+04  0.00000000000E+00 0. -1.
          1   -1    0    0  501    0 -0.00000000000E+00 -0.00000000000E+00 -0.31745484985E+03  0.31745484985E+03  0.00000000000E+00 0. -1.
         25    2    1    2    0    0 -0.36845842516E+02  0.10924618254E+03 -0.84354191571E+02  0.18982292655E+03  0.12499907719E+03 0.  0.
          2    1    1    2  501    0  0.44232203650E+02 -0.34428363404E+01 -0.17626425065E+03  0.18176200653E+03  0.00000000000E+00 0. -1.
          1    1    1    2  502    0 -0.73863611337E+01 -0.10580334620E+03  0.20769095901E+04  0.20796159145E+04  0.00000000000E+00 0. -1.
         22    1    3    3    0    0  0.14274837245E+02 -0.14472631597E+02 -0.46438037153E+02  0.50692399217E+02  0.00000000000E+00 0. -1.
         22    1    3    3    0    0 -0.51120679761E+02  0.12371881413E+03 -0.37916154418E+02  0.13913052733E+03  0.00000000000E+00 0. -1.
</event>
<event>
 7    1  0.5889087E-006  0.1743413E+03  0.7818608E-02  0.1359991E+00
          2   -1    0    0  502    0  0.00000000000E+00  0.00000000000E+00  0.13185729341E+04  0.13185729341E+04  0.00000000000E+00 0. -1.
          1   -1    0    0  501    0 -0.00000000000E+00 -0.00000000000E+00 -0.17296986518E+04  0.17296986518E+04  0.00000000000E+00 0. -1.
         25    2    1    2    0    0 -0.69665991878E+01  0.15187949861E+03 -0.67704872999E+03  0.70507864679E+03  0.12499999907E+03 0.  0.
          2    1    1    2  501    0  0.17061643932E+02  0.22364859324E+02 -0.10326047640E+04  0.10329878437E+04  0.00000000000E+00 0. -1.
          1    1    1    2  502    0 -0.10095044744E+02 -0.17424435794E+03  0.12985277763E+04  0.13102050954E+04  0.00000000000E+00 0. -1.
         22    1    3    3    0    0 -0.32958167585E+02  0.61273792401E+02 -0.10934955382E+03  0.12960726587E+03  0.00000000000E+00 0.  1.
         22    1    3    3    0    0  0.25991568397E+02  0.90605706210E+02 -0.56769917618E+03  0.57547138092E+03  0.00000000000E+00 0.  1.
</event>
<event>
 7    1  0.5889087E-006  0.9797105E+02  0.7818608E-02  0.1323643E+00
          2   -1    0    0  502    0  0.00000000000E+00  0.00000000000E+00  0.12319885933E+04  0.12319885933E+04  0.00000000000E+00 0. -1.
          1   -1    0    0  501    0 -0.00000000000E+00 -0.00000000000E+00 -0.98722077120E+03  0.98722077120E+03  0.00000000000E+00 0. -1.
         25    2    1    2    0    0 -0.51609085514E+02 -0.35144022618E+02  0.11132168590E+03  0.17865154714E+03  0.12500103004E+03 0.  0.
          2    1    1    2  501    0  0.97660118059E+02 -0.15603044780E+02 -0.94990600605E+03  0.95504050909E+03  0.00000000000E+00 0. -1.
          1    1    1    2  502    0 -0.46051032545E+02  0.50747067398E+02  0.10833521423E+04  0.10855173083E+04  0.00000000000E+00 0. -1.
         22    1    3    3    0    0 -0.30454873811E+02 -0.34833181818E+02  0.13745175133E+03  0.14503045831E+03  0.00000000000E+00 0.  1.
         22    1    3    3    0    0 -0.21154211703E+02 -0.31084080026E+00 -0.26130065429E+02  0.33621088830E+02  0.00000000000E+00 0.  1.
</event>
<event>
 7    1  0.5889087E-006  0.9003863E+02  0.7818608E-02  0.1414165E+00
          2   -1    0    0  502    0  0.00000000000E+00  0.00000000000E+00  0.16740908569E+04  0.16740908569E+04  0.00000000000E+00 0. -1.
          1   -1    0    0  501    0 -0.00000000000E+00 -0.00000000000E+00 -0.74956486527E+02  0.74956486527E+02  0.00000000000E+00 0. -1.
         25    2    1    2    0    0 -0.51632113749E+02 -0.11132279070E+03  0.36909342727E+03  0.40855122539E+03  0.12500202725E+03 0.  0.
          2    1    1    2  501    0  0.13967015986E+02  0.32279873126E+02 -0.47973683894E+02  0.59485646091E+02  0.00000000000E+00 0. -1.
          1    1    1    2  502    0  0.37665097763E+02  0.79042917574E+02  0.12780146270E+04  0.12810104720E+04  0.00000000000E+00 0. -1.
         22    1    3    3    0    0  0.15407677835E+02 -0.10442473690E+03  0.25588106630E+03  0.27679783653E+03  0.00000000000E+00 0. -1.
         22    1    3    3    0    0 -0.67039791584E+02 -0.68980537970E+01  0.11321236096E+03  0.13175338886E+03  0.00000000000E+00 0. -1.
</event>
<event>
 7    1  0.5889087E-006  0.1128174E+03  0.7818608E-02  0.1292219E+00
          2   -1    0    0  502    0  0.00000000000E+00  0.00000000000E+00  0.86838135583E+03  0.86838135583E+03  0.00000000000E+00 0. -1.
          1   -1    0    0  501    0 -0.00000000000E+00 -0.00000000000E+00 -0.19147135212E+03  0.19147135212E+03  0.00000000000E+00 0. -1.
         25    2    1    2    0    0 -0.17831522286E+02  0.12462592399E+03 -0.53610623938E+02  0.18533511835E+03  0.12500169190E+03 0.  0.
          2    1    1    2  501    0  0.82728317316E+02 -0.79190769054E+02 -0.23030048034E+02  0.11681410660E+03  0.00000000000E+00 0. -1.
          1    1    1    2  502    0 -0.64896795030E+02 -0.45435154934E+02  0.75355067568E+03  0.75770348299E+03  0.00000000000E+00 0. -1.
         22    1    3    3    0    0 -0.29425479049E+02  0.10850920072E+03  0.15443180365E+02  0.11348390757E+03  0.00000000000E+00 0. -1.
         22    1    3    3    0    0  0.11593956763E+02  0.16116723272E+02 -0.69053804303E+02  0.71851210785E+02  0.00000000000E+00 0. -1.
</event>
<event>
 7    1  0.5889087E-006  0.6158824E+02  0.7818608E-02  0.1431797E+00
          2   -1    0    0  502    0  0.00000000000E+00  0.00000000000E+00  0.31635672143E+03  0.31635672143E+03  0.00000000000E+00 0. -1.
          1   -1    0    0  501    0 -0.00000000000E+00 -0.00000000000E+00 -0.41097355564E+03  0.41097355564E+03  0.00000000000E+00 0. -1.
         25    2    1    2    0    0  0.24177678734E+02 -0.55969271799E+02  0.10348253805E+02  0.13948241856E+03  0.12502455437E+03 0.  0.
          2    1    1    2  501    0  0.20666459384E+02  0.58666927037E+02 -0.34148272940E+03  0.34710137619E+03  0.00000000000E+00 0. -1.
          1    1    1    2  502    0 -0.44844138118E+02 -0.26976552382E+01  0.23651764139E+03  0.24074648233E+03  0.00000000000E+00 0. -1.
         22    1    3    3    0    0 -0.79417816884E+01 -0.84805147011E+02  0.32252766716E+02  0.91078130288E+02  0.00000000000E+00 0. -1.
         22    1    3    3    0    0  0.32119460423E+02  0.28835875212E+02 -0.21904512911E+02  0.48404288270E+02  0.00000000000E+00 0. -1.
</event>
<event>
 7    1  0.5889087E-006  0.7333069E+02  0.7818608E-02  0.1359237E+00
          2   -1    0    0  502    0  0.00000000000E+00  0.00000000000E+00  0.23039949949E+04  0.23039949949E+04  0.00000000000E+00 0. -1.
          1   -1    0    0  501    0 -0.00000000000E+00 -0.00000000000E+00 -0.19605304620E+03  0.19605304620E+03  0.00000000000E+00 0. -1.
         25    2    1    2    0    0 -0.12181680164E+02  0.10530212703E+03 -0.13824860514E+02  0.16447344113E+03  0.12499381896E+03 0.  0.
          2    1    1    2  501    0 -0.40145965040E+02 -0.54018851976E+02 -0.95645529446E+02  0.11695213628E+03  0.00000000000E+00 0. -1.
          1    1    1    2  502    0  0.52327645204E+02 -0.51283275055E+02  0.22174123387E+04  0.22186224637E+04  0.00000000000E+00 0. -1.
         22    1    3    3    0    0  0.20341661445E+02  0.11898794615E+03  0.11173334375E+02  0.12123018568E+03  0.00000000000E+00 0.  1.
         22    1    3    3    0    0 -0.32523341609E+02 -0.13685819115E+02 -0.24998194890E+02  0.43243255451E+02  0.00000000000E+00 0.  1.
</event>
<event>
 7    1  0.5889087E-006  0.9821719E+02  0.7818608E-02  0.1309572E+00
          2   -1    0    0  502    0  0.00000000000E+00  0.00000000000E+00  0.11953850720E+04  0.11953850720E+04  0.00000000000E+00 0. -1.
          1   -1    0    0  501    0 -0.00000000000E+00 -0.00000000000E+00 -0.95357347080E+03  0.95357347080E+03  0.00000000000E+00 0. -1.
         25    2    1    2    0    0  0.15809984469E+03  0.70625703568E+02  0.99815572465E+02  0.23573184260E+03  0.12499120855E+03 0.  0.
          2    1    1    2  501    0 -0.69213886700E+02 -0.35006432242E+02 -0.88167831325E+03  0.88508342006E+03  0.00000000000E+00 0. -1.
          1    1    1    2  502    0 -0.88885957992E+02 -0.35619271326E+02  0.10236743420E+04  0.10281432801E+04  0.00000000000E+00 0. -1.
         22    1    3    3    0    0 -0.95825998720E+01  0.87528506852E+01  0.47876892968E+02  0.49604793072E+02  0.00000000000E+00 0. -1.
         22    1    3    3    0    0  0.16768244456E+03  0.61872852883E+02  0.51938679497E+02  0.18612704953E+03  0.00000000000E+00 0. -1.
</event>
<event>
 7    1  0.5889087E-006  0.4917547E+02  0.7818608E-02  0.1504699E+00
          2   -1    0    0  502    0  0.00000000000E+00  0.00000000000E+00  0.74756212123E+03  0.74756212123E+03  0.00000000000E+00 0. -1.
          1   -1    0    0  501    0 -0.00000000000E+00 -0.00000000000E+00 -0.16166716959E+02  0.16166716959E+02  0.00000000000E+00 0. -1.
         25    2    1    2    0    0 -0.19575050084E+02  0.41116488202E+02  0.44755907664E+03  0.46691312351E+03  0.12499995857E+03 0.  0.
          2    1    1    2  501    0 -0.11895535065E+02 -0.52076073582E+02  0.16888744783E+03  0.17713382294E+03  0.00000000000E+00 0. -1.
          1    1    1    2  502    0  0.31470585149E+02  0.10959585379E+02  0.11494887980E+03  0.11968189173E+03  0.00000000000E+00 0. -1.
         22    1    3    3    0    0 -0.55164583048E+02  0.34463016838E+02  0.40853258434E+03  0.41367826051E+03  0.00000000000E+00 0.  1.
         22    1    3    3    0    0  0.35589532965E+02  0.66534713638E+01  0.39026492293E+02  0.53234862999E+02  0.00000000000E+00 0.  1.
</event>
<event>
 7    1  0.5889087E-006  0.4581473E+02  0.7818608E-02  0.1583908E+00
          2   -1    0    0  502    0  0.00000000000E+00  0.00000000000E+00  0.15263943082E+04  0.15263943082E+04  0.00000000000E+00 0. -1.
          1   -1    0    0  501    0 -0.00000000000E+00 -0.00000000000E+00 -0.10123678115E+04  0.10123678115E+04  0.00000000000E+00 0. -1.
         25    2    1    2    0    0  0.38890485488E+02 -0.31349224765E+02  0.22203035196E+03  0.25964870196E+03  0.12499890993E+03 0.  0.
          2    1    1    2  501    0 -0.18976484435E+02 -0.99250302690E+01 -0.99303474613E+03  0.99326563426E+03  0.00000000000E+00 0. -1.
          1    1    1    2  502    0 -0.19914001053E+02  0.41274255034E+02  0.12850308909E+04  0.12858477834E+04  0.00000000000E+00 0. -1.
         22    1    3    3    0    0  0.77138767361E+02 -0.26788030607E+02  0.87376150639E+02  0.11959339327E+03  0.00000000000E+00 0. -1.
         22    1    3    3    0    0 -0.38248281873E+02 -0.45611941585E+01  0.13465420132E+03  0.14005530869E+03  0.00000000000E+00 0. -1.
</event>
<event>
 7    1  0.5889087E-006  0.1066480E+03  0.7818608E-02  0.1339930E+00
          2   -1    0    0  502    0  0.00000000000E+00  0.00000000000E+00  0.14728547716E+04  0.14728547716E+04  0.00000000000E+00 0. -1.
          1   -1    0    0  501    0 -0.00000000000E+00 -0.00000000000E+00 -0.28457476882E+03  0.28457476882E+03  0.00000000000E+00 0. -1.
         25    2    1    2    0    0  0.25912829839E+02  0.74407473432E+02  0.32238217307E+03  0.35463042655E+03  0.12499810828E+03 0.  0.
          2    1    1    2  501    0 -0.80423261587E+02 -0.71862198419E+02 -0.25692859641E+03  0.27864741201E+03  0.00000000000E+00 0. -1.
          1    1    1    2  502    0  0.54510431748E+02 -0.25452750124E+01  0.11228264261E+04  0.11241517018E+04  0.00000000000E+00 0. -1.
         22    1    3    3    0    0  0.19777568019E+00 -0.93567675664E+01  0.21862170912E+03  0.21882193654E+03  0.00000000000E+00 0.  1.
         22    1    3    3    0    0  0.25715054159E+02  0.83764240998E+02  0.10376046395E+03  0.13580849001E+03  0.00000000000E+00 0.  1.
</event>
<event>
 7    1  0.5889087E-006  0.2432522E+03  0.7818608E-02  0.1327530E+00
          2   -1    0    0  502    0  0.00000000000E+00  0.00000000000E+00  0.72434441364E+03  0.72434441364E+03  0.00000000000E+00 0. -1.
          1   -1    0    0  501    0 -0.00000000000E+00 -0.00000000000E+00 -0.20209003764E+03  0.20209003764E+03  0.00000000000E+00 0. -1.
         25    2    1    2    0    0 -0.15829042357E+03 -0.19028962386E+03  0.29779667002E+03  0.40690801579E+03  0.12500110997E+03 0.  0.
          2    1    1    2  501    0 -0.14350163559E+02  0.22475084980E+02 -0.10676525502E+03  0.11004488320E+03  0.00000000000E+00 0. -1.
          1    1    1    2  502    0  0.17264058713E+03  0.16781453888E+03  0.33122296099E+03  0.40948155229E+03  0.00000000000E+00 0. -1.
         22    1    3    3    0    0  0.11368453296E+02 -0.64062545758E+02  0.83322503669E+02  0.10571608731E+03  0.00000000000E+00 0. -1.
         22    1    3    3    0    0 -0.16965887686E+03 -0.12622707810E+03  0.21447416635E+03  0.30119192847E+03  0.00000000000E+00 0. -1.
</event>
<event>
 7    1  0.5889087E-006  0.7326057E+02  0.7818608E-02  0.1421436E+00
          2   -1    0    0  502    0  0.00000000000E+00  0.00000000000E+00  0.40150895353E+03  0.40150895353E+03  0.00000000000E+00 0. -1.
          1   -1    0    0  501    0 -0.00000000000E+00 -0.00000000000E+00 -0.23846663749E+03  0.23846663749E+03  0.00000000000E+00 0. -1.
         25    2    1    2    0    0 -0.29395661920E+02  0.93966457788E+02  0.38450472111E+01  0.15915049209E+03  0.12498117705E+03 0.  0.
          2    1    1    2  501    0  0.44327604519E+02 -0.55922946251E+02 -0.15149277939E+03  0.16745857591E+03  0.00000000000E+00 0. -1.
          1    1    1    2  502    0 -0.14931942599E+02 -0.38043511537E+02  0.31069004822E+03  0.31336652301E+03  0.00000000000E+00 0. -1.
         22    1    3    3    0    0 -0.42842186961E+02  0.12056219063E+03  0.11252855164E+02  0.12844189948E+03  0.00000000000E+00 0.  1.
         22    1    3    3    0    0  0.13446525041E+02 -0.26595732846E+02 -0.74078079532E+01  0.30708592608E+02  0.00000000000E+00 0.  1.
</event>
<event>
 7    1  0.5889087E-006  0.2199164E+03  0.7818608E-02  0.1190240E+00
          2   -1    0    0  502    0  0.00000000000E+00  0.00000000000E+00  0.69864326560E+03  0.69864326560E+03  0.00000000000E+00 0. -1.
          1   -1    0    0  501    0 -0.00000000000E+00 -0.00000000000E+00 -0.29825347388E+04  0.29825347388E+04  0.00000000000E+00 0. -1.
         25    2    1    2    0    0 -0.22764551534E+03  0.11997966217E+03 -0.79264628655E+03  0.84269266692E+03  0.12500078122E+03 0.  0.
          2    1    1    2  501    0  0.12729829554E+03 -0.17499355348E+03 -0.21545455501E+04  0.21653854454E+04  0.00000000000E+00 0. -1.
          1    1    1    2  502    0  0.10034721980E+03  0.55013891304E+02  0.66330036337E+03  0.67309989214E+03  0.00000000000E+00 0. -1.
         22    1    3    3    0    0  0.25449795221E+01 -0.17511398198E+02 -0.58398096996E+02  0.61020191088E+02  0.00000000000E+00 0. -1.
         22    1    3    3    0    0 -0.23019049486E+03  0.13749106037E+03 -0.73424818955E+03  0.78167247583E+03  0.00000000000E+00 0. -1.
</event>
<event>
 7    1  0.5889087E-006  0.4244645E+02  0.7818608E-02  0.1565557E+00
          2   -1    0    0  502    0  0.00000000000E+00  0.00000000000E+00  0.13821114896E+04  0.13821114896E+04  0.00000000000E+00 0. -1.
          1   -1    0    0  501    0 -0.00000000000E+00 -0.00000000000E+00 -0.25841173038E+02  0.25841173038E+02  0.00000000000E+00 0. -1.
         25    2    1    2    0    0  0.16522303435E+01  0.21643367762E+02  0.11438657837E+04  0.11508790925E+04  0.12499035609E+03 0.  0.
          2    1    1    2  501    0  0.17414660196E+02 -0.39184442443E+02 -0.21586716658E+00  0.42880502772E+02  0.00000000000E+00 0. -1.
          1    1    1    2  502    0 -0.19066890540E+02  0.17541074681E+02  0.21262040002E+03  0.21419306740E+03  0.00000000000E+00 0. -1.
         22    1    3    3    0    0 -0.52040101735E+02  0.43363537013E+02  0.69460577521E+03  0.69790096108E+03  0.00000000000E+00 0. -1.
         22    1    3    3    0    0  0.53692332078E+02 -0.21720169251E+02  0.44926000849E+03  0.45297813137E+03  0.00000000000E+00 0. -1.
</event>
<event>
 7    1  0.5889087E-006  0.2903603E+02  0.7818608E-02  0.1618350E+00
          2   -1    0    0  502    0  0.00000000000E+00  0.00000000000E+00  0.45140111058E+03  0.45140111058E+03  0.00000000000E+00 0. -1.
          1   -1    0    0  501    0 -0.00000000000E+00 -0.00000000000E+00 -0.13485764768E+04  0.13485764768E+04  0.00000000000E+00 0. -1.
         25    2    1    2    0    0  0.29954493870E+02  0.45643924314E+02 -0.23688377406E+03  0.27335357898E+03  0.12501046836E+03 0.  0.
          2    1    1    2  501    0 -0.85262145626E+01 -0.26117352220E+02 -0.10927998887E+04  0.10931451913E+04  0.00000000000E+00 0. -1.
          1    1    1    2  502    0 -0.21428279308E+02 -0.19526572094E+02  0.43250829663E+03  0.43347881705E+03  0.00000000000E+00 0. -1.
         22    1    3    3    0    0  0.43618334714E+02  0.98884093676E+01 -0.13505924609E+02  0.46719907562E+02  0.00000000000E+00 0.  1.
         22    1    3    3    0    0 -0.13663840844E+02  0.35755514946E+02 -0.22337784945E+03  0.22663367142E+03  0.00000000000E+00 0.  1.
</event>
<event>
 7    1  0.5889087E-006  0.1164587E+03  0.7818608E-02  0.1319820E+00
          2   -1    0    0  502    0  0.00000000000E+00  0.00000000000E+00  0.19027504846E+04  0.19027504846E+04  0.00000000000E+00 0. -1.
          1   -1    0    0  501    0 -0.00000000000E+00 -0.00000000000E+00 -0.68818816844E+03  0.68818816844E+03  0.00000000000E+00 0. -1.
         25    2    1    2    0    0  0.26786026157E+02 -0.16426663118E+03  0.83758929219E+03  0.86306572241E+03  0.12500240590E+03 0.  0.
          2    1    1    2  501    0 -0.44526884538E+02  0.10732009664E+03 -0.66959775815E+03  0.67960385837E+03  0.00000000000E+00 0. -1.
          1    1    1    2  502    0  0.17740858381E+02  0.56946534537E+02  0.10465707821E+04  0.10482690722E+04  0.00000000000E+00 0. -1.
         22    1    3    3    0    0  0.27581474622E+02 -0.10170910407E+03  0.23882542768E+03  0.26104226573E+03  0.00000000000E+00 0.  1.
         22    1    3    3    0    0 -0.79544846533E+00 -0.62557527104E+02  0.59876386451E+03  0.60202345667E+03  0.00000000000E+00 0.  1.
</event>
<event>
 7    1  0.5889087E-006  0.5929459E+02  0.7818608E-02  0.1512028E+00
          2   -1    0    0  502    0  0.00000000000E+00  0.00000000000E+00  0.33991510972E+03  0.33991510972E+03  0.00000000000E+00 0. -1.
          1   -1    0    0  501    0 -0.00000000000E+00 -0.00000000000E+00 -0.21184915507E+03  0.21184915507E+03  0.00000000000E+00 0. -1.
         25    2    1    2    0    0  0.68863147413E+02 -0.36441738208E+02 -0.76292627621E+02  0.16587957739E+03  0.12500134323E+03 0.  0.
          2    1    1    2  501    0 -0.11347140744E+02  0.23720537549E+02 -0.85835262772E+02  0.89772567301E+02  0.00000000000E+00 0. -1.
          1    1    1    2  502    0 -0.57516006669E+02  0.12721200659E+02  0.29019384504E+03  0.29611212010E+03  0.00000000000E+00 0. -1.
         22    1    3    3    0    0  0.58433773933E+02 -0.39529214206E+00  0.20611455183E+02  0.61963652868E+02  0.00000000000E+00 0. -1.
         22    1    3    3    0    0  0.10429373480E+02 -0.36046446066E+02 -0.96904082804E+02  0.10391592452E+03  0.00000000000E+00 0. -1.
</event>
<event>
 7    1  0.5889087E-006  0.7616614E+02  0.7818608E-02  0.1382993E+00
          2   -1    0    0  502    0  0.00000000000E+00  0.00000000000E+00  0.25373695893E+04  0.25373695893E+04  0.00000000000E+00 0. -1.
          1   -1    0    0  501    0 -0.00000000000E+00 -0.00000000000E+00 -0.85380443597E+02  0.85380443597E+02  0.00000000000E+00 0. -1.
         25    2    1    2    0    0 -0.23748338244E+02 -0.45013604256E+02  0.78548346916E+03  0.79699373741E+03  0.12499811603E+03 0.  0.
          2    1    1    2  501    0  0.73000390064E+02  0.24778892719E+02 -0.60458891938E+02  0.97971057400E+02  0.00000000000E+00 0. -1.
          1    1    1    2  502    0 -0.49252051820E+02  0.20234711537E+02  0.17269645685E+04  0.17277852381E+04  0.00000000000E+00 0. -1.
         22    1    3    3    0    0 -0.37690600800E+02 -0.48054573998E+02  0.15866654731E+03  0.17001440146E+03  0.00000000000E+00 0. -1.
         22    1    3    3    0    0  0.13942262556E+02  0.30409697420E+01  0.62681692186E+03  0.62697933595E+03  0.00000000000E+00 0. -1.
</event>
<event>
 7    1  0.5889087E-006  0.1095473E+03  0.7818608E-02  0.1435523E+00
          2   -1    0    0  502    0  0.00000000000E+00  0.00000000000E+00  0.35312179451E+03  0.35312179451E+03  0.00000000000E+00 0. -1.
          1   -1    0    0  501    0 -0.00000000000E+00 -0.00000000000E+00 -0.15533239276E+04  0.15533239276E+04  0.00000000000E+00 0. -1.
         25    2    1    2    0    0  0.11539323274E+03 -0.67467091058E+02  0.82288288130E+02  0.20065282561E+03  0.12499114979E+03 0.  0.
          2    1    1    2  501    0 -0.93272702879E+02  0.56801430755E+02 -0.14914260769E+04  0.14954189856E+04  0.00000000000E+00 0. -1.
          1    1    1    2  502    0 -0.22120529858E+02  0.10665660304E+02  0.20893565570E+03  0.21037391087E+03  0.00000000000E+00 0. -1.
         22    1    3    3    0    0 -0.24801591944E+02 -0.18828451779E+02  0.34922955756E+00  0.31140833654E+02  0.00000000000E+00 0.  1.
         22    1    3    3    0    0  0.14019482468E+03 -0.48638639279E+02  0.81939058572E+02  0.16951199196E+03  0.00000000000E+00 0.  1.
</event>
<event>
 7    1  0.7020814E-006  0.7927648E+02  0.7818608E-02  0.1381476E+00
          2   -1    0    0  502    0  0.00000000000E+00  0.00000000000E+00  0.79785496172E+03  0.79785496172E+03  0.00000000000E+00 0. -1.
          1   -1    0    0  501    0 -0.00000000000E+00 -0.00000000000E+00 -0.17705975341E+04  0.17705975341E+04  0.00000000000E+00 0. -1.
         25    2    1    2    0    0  0.89363894518E+02 -0.94546467458E+02 -0.21258496888E+03  0.27882501655E+03  0.12500432277E+03 0.  0.
          2    1    1    2  501    0 -0.31069837495E+02  0.41438085904E+02 -0.15224180474E+04  0.15232987759E+04  0.00000000000E+00 0. -1.
          1    1    1    2  502    0 -0.58294057022E+02  0.53108381554E+02  0.76226044388E+03  0.76632870335E+03  0.00000000000E+00 0. -1.
         22    1    3    3    0    0  0.11508060299E+02 -0.84696116001E+02 -0.51891887626E+02  0.99993177362E+02  0.00000000000E+00 0. -1.
         22    1    3    3    0    0  0.77855834219E+02 -0.98503514565E+01 -0.16069308125E+03  0.17883183919E+03  0.00000000000E+00 0. -1.
</event>
<event>
 7    1  0.5889087E-006  0.6954033E+02  0.7818608E-02  0.1387244E+00
          2   -1    0    0  502    0  0.00000000000E+00  0.00000000000E+00  0.35182450360E+04  0.35182450360E+04  0.00000000000E+00 0. -1.
          1   -1    0    0  501    0 -0.00000000000E+00 -0.00000000000E+00 -0.20406362133E+03  0.20406362133E+03  0.00000000000E+00 0. -1.
         25    2    1    2    0    0 -0.41694868138E+02  0.13438678016E+02  0.15180800769E+03  0.20147116958E+03  0.12500360346E+03 0.  0.
          2    1    1    2  501    0  0.19105536809E+02  0.53009910931E+02 -0.17442518387E+03  0.18330089188E+03  0.00000000000E+00 0. -1.
          1    1    1    2  502    0  0.22589331329E+02 -0.66448588947E+02  0.33367985909E+04  0.33375365959E+04  0.00000000000E+00 0. -1.
         22    1    3    3    0    0 -0.43144992363E+01  0.12733746095E+02 -0.20851481084E+02  0.24810228872E+02  0.00000000000E+00 0.  1.
         22    1    3    3    0    0 -0.37380368902E+02  0.70493192076E+00  0.17265948877E+03  0.17666094071E+03  0.00000000000E+00 0.  1.
</event>
<event>
 7    1  0.5889087E-006  0.5295762E+02  0.7818608E-02  0.1459144E+00
          2   -1    0    0  502    0  0.00000000000E+00  0.00000000000E+00  0.10313417933E+04  0.10313417933E+04  0.00000000000E+00 0. -1.
          1   -1    0    0  501    0 -0.00000000000E+00 -0.00000000000E+00 -0.26293332152E+03  0.26293332152E+03  0.00000000000E+00 0. -1.
         25    2    1    2    0    0  0.16173122220E+01 -0.35639791851E+02  0.74019981391E+02  0.14958593346E+03  0.12499673349E+03 0.  0.
          2    1    1    2  501    0  0.41032758177E+02  0.34872287811E+02 -0.22142697054E+03  0.22788081750E+03  0.00000000000E+00 0. -1.
          1    1    1    2  502    0 -0.42650070398E+02  0.76750404042E+00  0.91581546089E+03  0.91680836382E+03  0.00000000000E+00 0. -1.
         22    1    3    3    0    0  0.30922448337E+02  0.52096533276E+01 -0.23957755749E+02  0.39462797158E+02  0.00000000000E+00 0.  1.
         22    1    3    3    0    0 -0.29305136115E+02 -0.40849445179E+02  0.97977737140E+02  0.11012313630E+03  0.00000000000E+00 0.  1.
</event>
<event>
 7    1  0.5889087E-006  0.4933090E+02  0.7818608E-02  0.1482290E+00
          2   -1    0    0  502    0  0.00000000000E+00  0.00000000000E+00  0.39112271027E+04  0.39112271027E+04  0.00000000000E+00 0. -1.
          1   -1    0    0  501    0 -0.00000000000E+00 -0.00000000000E+00 -0.96369606429E+01  0.96369606429E+01  0.00000000000E+00 0. -1.
         25    2    1    2    0    0 -0.37584250927E+01  0.13052035502E+02  0.52786456998E+03  0.54263456998E+03  0.12500716347E+03 0.  0.
          2    1    1    2  501    0 -0.86294146929E+01 -0.60802210061E+02  0.45940711304E+03  0.46349355018E+03  0.00000000000E+00 0. -1.
          1    1    1    2  502    0  0.12387839786E+02  0.47750174559E+02  0.29143184590E+04  0.29147359432E+04  0.00000000000E+00 0. -1.
         22    1    3    3    0    0  0.40202757453E+02 -0.37328842798E+02  0.17181461339E+03  0.18036065421E+03  0.00000000000E+00 0.  1.
         22    1    3    3    0    0 -0.43961182546E+02  0.50380878300E+02  0.35604995658E+03  0.36227391578E+03  0.00000000000E+00 0.  1.
</event>
<event>
 7    1  0.5889087E-006  0.9331568E+02  0.7818608E-02  0.1316209E+00
          2   -1    0    0  502    0  0.00000000000E+00  0.00000000000E+00  0.14563855976E+04  0.14563855976E+04  0.00000000000E+00 0. -1.
          1   -1    0    0  501    0 -0.00000000000E+00 -0.00000000000E+00 -0.12376667483E+04  0.12376667483E+04  0.00000000000E+00 0. -1.
         25    2    1    2    0    0  0.14993948326E+03 -0.74639738627E+02  0.34239525224E+02  0.21177785476E+03  0.12499830182E+03 0.  0.
          2    1    1    2  501    0 -0.76725541558E+02  0.51160538476E+02 -0.11459353568E+04  0.11496399660E+04  0.00000000000E+00 0. -1.
          1    1    1    2  502    0 -0.73213941698E+02  0.23479200151E+02  0.13304146810E+04  0.13326345251E+04  0.00000000000E+00 0. -1.
         22    1    3    3    0    0  0.42649809457E+02 -0.89207556371E+02  0.23554553219E+01  0.98906736526E+02  0.00000000000E+00 0.  1.
         22    1    3    3    0    0  0.10728967380E+03  0.14567817745E+02  0.31884069902E+02  0.11287111823E+03  0.00000000000E+00 0.  1.
</event>
<event>
 7    1  0.5889087E-006  0.9032537E+02  0.7818608E-02  0.1415672E+00
          2   -1    0    0  502    0  0.00000000000E+00  0.00000000000E+00  0.23235215601E+04  0.23235215601E+04  0.00000000000E+00 0. -1.
          1   -1    0    0  501    0 -0.00000000000E+00 -0.00000000000E+00 -0.34827505225E+02  0.34827505225E+02  0.00000000000E+00 0. -1.
         25    2    1    2    0    0 -0.57787518391E+02  0.95327153776E+02  0.60867479164E+03  0.63129772573E+03  0.12500061200E+03 0.  0.
          2    1    1    2  501    0  0.24931543575E+02 -0.84311405708E+02  0.59499565209E+02  0.10616116643E+03  0.00000000000E+00 0. -1.
          1    1    1    2  502    0  0.32855974815E+02 -0.11015748069E+02  0.16205196981E+04  0.16208901732E+04  0.00000000000E+00 0. -1.
         22    1    3    3    0    0  0.36161917927E+02  0.11569391792E+02  0.92282565633E+02  0.99787810149E+02  0.00000000000E+00 0. -1.
         22    1    3    3    0    0 -0.93949436317E+02  0.83757761984E+02  0.51639222601E+03  0.53150991558E+03  0.00000000000E+00 0. -1.
</event>
<event>
 7    1  0.5889087E-006  0.4389843E+02  0.7818608E-02  0.1526495E+00
          2   -1    0    0  502    0  0.00000000000E+00  0.00000000000E+00  0.33569338992E+02  0.33569338992E+02  0.00000000000E+00 0. -1.
          1   -1    0    0  501    0 -0.00000000000E+00 -0.00000000000E+00 -0.46087679842E+03  0.46087679842E+03  0.00000000000E+00 0. -1.
         25    2    1    2    0    0 -0.49785497734E+02 -0.47421766021E+02 -0.28163944056E+03  0.31570927559E+03  0.12499661010E+03 0.  0.
          2    1    1    2  501    0  0.11878735042E+02  0.29971082554E+02 -0.13035950094E+03  0.13428689296E+03  0.00000000000E+00 0. -1.
          1    1    1    2  502    0  0.37906762692E+02  0.17450683467E+02 -0.15308517934E+02  0.44449968870E+02  0.00000000000E+00 0. -1.
         22    1    3    3    0    0  0.32650538871E+01 -0.25386180722E+02  0.25963799579E+01  0.25726638673E+02  0.00000000000E+00 0. -1.
         22    1    3    3    0    0 -0.53050551621E+02 -0.22035585299E+02 -0.28423582052E+03  0.28998263691E+03  0.00000000000E+00 0. -1.
</event>
<event>
 7    1  0.5889087E-006  0.4521120E+02  0.7818608E-02  0.1487492E+00
          2   -1    0    0  502    0  0.00000000000E+00  0.00000000000E+00  0.12347636751E+04  0.12347636751E+04  0.00000000000E+00 0. -1.
          1   -1    0    0  501    0 -0.00000000000E+00 -0.00000000000E+00 -0.93538343238E+03  0.93538343238E+03  0.00000000000E+00 0. -1.
         25    2    1    2    0    0  0.98042334146E+01  0.52622040332E+02  0.20057300086E+03  0.24232004098E+03  0.12499708584E+03 0.  0.
          2    1    1    2  501    0  0.27456904529E+02 -0.35948528563E+02 -0.91353894412E+03  0.91465817699E+03  0.00000000000E+00 0. -1.
          1    1    1    2  502    0 -0.37261137944E+02 -0.16673511769E+02  0.10123461860E+04  0.10131688895E+04  0.00000000000E+00 0. -1.
         22    1    3    3    0    0  0.44121315605E+02  0.27760331789E+02  0.18395077964E+02  0.55278435262E+02  0.00000000000E+00 0.  1.
         22    1    3    3    0    0 -0.34317082190E+02  0.24861708543E+02  0.18217792289E+03  0.18704160572E+03  0.00000000000E+00 0.  1.
</event>
<event>
 7    1  0.5889087E-006  0.7978159E+02  0.7818608E-02  0.1459238E+00
          2   -1    0    0  502    0  0.00000000000E+00  0.00000000000E+00  0.57526202514E+03  0.57526202514E+03  0.00000000000E+00 0. -1.
          1   -1    0    0  501    0 -0.00000000000E+00 -0.00000000000E+00 -0.12923100616E+03  0.12923100616E+03  0.00000000000E+00 0. -1.
         25    2    1    2    0    0  0.75820760578E+02  0.38041753468E+02  0.54613227177E+02  0.16063257868E+03  0.12499703200E+03 0.  0.
          2    1    1    2  501    0 -0.55157584330E+02 -0.57372442474E+02 -0.54875562249E+02  0.96671007012E+02  0.00000000000E+00 0. -1.
          1    1    1    2  502    0 -0.20663176249E+02  0.19330689006E+02  0.44629335406E+03  0.44718944561E+03  0.00000000000E+00 0. -1.
         22    1    3    3    0    0  0.83560690696E+02  0.60351252558E+02  0.76557260210E+02  0.12839656072E+03  0.00000000000E+00 0.  1.
         22    1    3    3    0    0 -0.77399301173E+01 -0.22309499090E+02 -0.21944033033E+02  0.32236017955E+02  0.00000000000E+00 0.  1.
</event>
<event>
 7    1  0.5889087E-006  0.1017330E+03  0.7818608E-02  0.1328112E+00
          2   -1    0    0  502    0  0.00000000000E+00  0.00000000000E+00  0.59335754319E+03  0.59335754319E+03  0.00000000000E+00 0. -1.
          1   -1    0    0  501    0 -0.00000000000E+00 -0.00000000000E+00 -0.18069919955E+04  0.18069919955E+04  0.00000000000E+00 0. -1.
         25    2    1    2    0    0 -0.41279420369E+02 -0.24127329390E+01 -0.38441439865E+03  0.40633464890E+03  0.12499442062E+03 0.  0.
          2    1    1    2  501    0 -0.59014921617E+02  0.23259364759E+02 -0.14063925794E+04  0.14078223774E+04  0.00000000000E+00 0. -1.
          1    1    1    2  502    0  0.10029434199E+03 -0.20846631820E+02  0.57717252572E+03  0.58619251236E+03  0.00000000000E+00 0. -1.
         22    1    3    3    0    0  0.32287079626E+02  0.35549878169E+02 -0.11956852731E+03  0.12885217139E+03  0.00000000000E+00 0.  1.
         22    1    3    3    0    0 -0.73566499995E+02 -0.37962611108E+02 -0.26484587134E+03  0.27748247752E+03  0.00000000000E+00 0.  1.
</event>
<event>
 7    1  0.5889087E-006  0.8915430E+02  0.7818608E-02  0.1360345E+00
          2   -1    0    0  502    0  0.00000000000E+00  0.00000000000E+00  0.27957708724E+03  0.27957708724E+03  0.00000000000E+00 0. -1.
          1   -1    0    0  501    0 -0.00000000000E+00 -0.00000000000E+00 -0.15364965367E+04  0.15364965367E+04  0.00000000000E+00 0. -1.
         25    2    1    2    0    0 -0.69211757218E+02 -0.11731907437E+02 -0.34864018883E+03  0.37696595470E+03  0.12500177898E+03 0.  0.
          2    1    1    2  501    0  0.65406742472E+02  0.66444248067E+02 -0.11689841614E+04  0.11726964013E+04  0.00000000000E+00 0. -1.
          1    1    1    2  502    0  0.38050147458E+01 -0.54712340630E+02  0.26070490080E+03  0.26641126788E+03  0.00000000000E+00 0. -1.
         22    1    3    3    0    0 -0.53865142022E+02  0.48674856866E+01 -0.39433339745E+02  0.66933804803E+02  0.00000000000E+00 0.  1.
         22    1    3    3    0    0 -0.15346615195E+02 -0.16599393123E+02 -0.30920684908E+03  0.31003214990E+03  0.00000000000E+00 0.  1.
</event>
<event>
 7    1  0.5889087E-006  0.9948743E+02  0.7818608E-02  0.1369795E+00
          2   -1    0    0  502    0  0.00000000000E+00  0.00000000000E+00  0.87815067786E+03  0.87815067786E+03  0.00000000000E+00 0. -1.
          1   -1    0    0  501    0 -0.00000000000E+00 -0.00000000000E+00 -0.21551273991E+03  0.21551273991E+03  0.00000000000E+00 0. -1.
         25    2    1    2    0    0  0.80948936347E+02 -0.34424664982E+02  0.13603761863E+03  0.20461795223E+03  0.12499793933E+03 0.  0.
          2    1    1    2  501    0 -0.10097445664E+03 -0.63466527029E+01 -0.16629981117E+03  0.19465802857E+03  0.00000000000E+00 0. -1.
          1    1    1    2  502    0  0.20025520288E+02  0.40771317685E+02  0.69290013048E+03  0.69438743697E+03  0.00000000000E+00 0. -1.
         22    1    3    3    0    0  0.10578334606E+03 -0.33902349752E+02  0.63515535967E+02  0.12795979420E+03  0.00000000000E+00 0.  1.
         22    1    3    3    0    0 -0.24834409708E+02 -0.52231523025E+00  0.72522082666E+02  0.76658158032E+02  0.00000000000E+00 0.  1.
</event>
<event>
 7    1  0.5889087E-006  0.9733254E+02  0.7818608E-02  0.1330461E+00
          2   -1    0    0  502    0  0.00000000000E+00  0.00000000000E+00  0.26231763040E+03  0.26231763040E+03  0.00000000000E+00 0. -1.
          1   -1    0    0  501    0 -0.00000000000E+00 -0.00000000000E+00 -0.13615256595E+03  0.13615256595E+03  0.00000000000E+00 0. -1.
         25    2    1    2    0    0  0.56352760804E+02 -0.20067430573E+02  0.20325932185E+02  0.14005803025E+03  0.12499909159E+03 0.  0.
          2    1    1    2  501    0  0.18084104531E+02 -0.62374513768E+02 -0.39100918826E+02  0.75805650565E+02  0.00000000000E+00 0. -1.
          1    1    1    2  502    0 -0.74436865335E+02  0.82441944342E+02  0.14494005108E+03  0.18260651554E+03  0.00000000000E+00 0. -1.
         22    1    3    3    0    0  0.90303651669E+01 -0.69023276145E+02  0.24172522368E+01  0.69653451122E+02  0.00000000000E+00 0.  1.
         22    1    3    3    0    0  0.47322395637E+02  0.48955845571E+02  0.17908679949E+02  0.70404579126E+02  0.00000000000E+00 0.  1.
</event>
<event>
 7    1  0.5889087E-006  0.6952170E+02  0.7818608E-02  0.1381057E+00
          2   -1    0    0  502    0  0.00000000000E+00  0.00000000000E+00  0.87332541935E+03  0.87332541935E+03  0.00000000000E+00 0. -1.
          1   -1    0    0  501    0 -0.00000000000E+00 -0.00000000000E+00 -0.65857226974E+03  0.65857226974E+03  0.00000000000E+00 0. -1.
         25    2    1    2    0    0 -0.32412733908E+02 -0.29832161811E+02  0.19808031181E+03  0.23833027496E+03  0.12499986734E+03 0.  0.
          2    1    1    2  501    0 -0.40228219073E+02  0.43515101407E+02 -0.63497812301E+03  0.63773747762E+03  0.00000000000E+00 0. -1.
          1    1    1    2  502    0  0.72640952982E+02 -0.13682939597E+02  0.65165096082E+03  0.65582993651E+03  0.00000000000E+00 0. -1.
         22    1    3    3    0    0  0.24011815176E+01 -0.19959398798E+02  0.20102148277E+03  0.20202420600E+03  0.00000000000E+00 0.  1.
         22    1    3    3    0    0 -0.34813915426E+02 -0.98727630125E+01 -0.29411709579E+01  0.36306068961E+02  0.00000000000E+00 0.  1.
</event>
<event>
 7    1  0.5889087E-006  0.4273440E+02  0.7818608E-02  0.1558861E+00
          2   -1    0    0  502    0  0.00000000000E+00  0.00000000000E+00  0.33304675713E+03  0.33304675713E+03  0.00000000000E+00 0. -1.
          1   -1    0    0  501    0 -0.00000000000E+00 -0.00000000000E+00 -0.18978600031E+04  0.18978600031E+04  0.00000000000E+00 0. -1.
         25    2    1    2    0    0  0.39792270096E+02 -0.41264008048E+02  0.11605314473E+02  0.13802886815E+03  0.12502456558E+03 0.  0.
          2    1    1    2  501    0 -0.12952405115E+02  0.40693976924E+02 -0.18337012075E+04  0.18341984306E+04  0.00000000000E+00 0. -1.
          1    1    1    2  502    0 -0.26839864980E+02  0.57003112438E+00  0.25728264706E+03  0.25867946143E+03  0.00000000000E+00 0. -1.
         22    1    3    3    0    0 -0.22672431234E+02  0.15057301423E+02  0.40760705820E+02  0.49012208715E+02  0.00000000000E+00 0.  1.
         22    1    3    3    0    0  0.62464701329E+02 -0.56321309471E+02 -0.29155391346E+02  0.89016659436E+02  0.00000000000E+00 0.  1.
</event>
<event>
 7    1  0.5889087E-006  0.3367899E+03  0.7818608E-02  0.1171221E+00
          2   -1    0    0  502    0  0.00000000000E+00  0.00000000000E+00  0.48035136247E+03  0.48035136247E+03  0.00000000000E+00 0. -1.
          1   -1    0    0  501    0 -0.00000000000E+00 -0.00000000000E+00 -0.18693688573E+04  0.18693688573E+04  0.00000000000E+00 0. -1.
         25    2    1    2    0    0 -0.16980854701E+03 -0.32657937914E+03  0.26108033446E+03  0.46827062358E+03  0.12500160937E+03 0.  0.
          2    1    1    2  501    0  0.82041166365E+01  0.92146444839E+02 -0.15871427733E+04  0.15898366135E+04  0.00000000000E+00 0. -1.
          1    1    1    2  502    0  0.16160443037E+03  0.23443293431E+03 -0.62955055996E+02  0.29161298270E+03  0.00000000000E+00 0. -1.
         22    1    3    3    0    0 -0.14098953778E+03 -0.30260946190E+03  0.27043743613E+03  0.42963582608E+03  0.00000000000E+00 0.  1.
         22    1    3    3    0    0 -0.28819009233E+02 -0.23969917246E+02 -0.93571016695E+01  0.38634797497E+02  0.00000000000E+00 0.  1.
</event>
<event>
 7    1  0.5889087E-006  0.1139375E+03  0.7818608E-02  0.1369325E+00
          2   -1    0    0  502    0  0.00000000000E+00  0.00000000000E+00  0.10425835657E+04  0.10425835657E+04  0.00000000000E+00 0. -1.
          1   -1    0    0  501    0 -0.00000000000E+00 -0.00000000000E+00 -0.89387013707E+03  0.89387013707E+03  0.00000000000E+00 0. -1.
         25    2    1    2    0    0 -0.10143975992E+03 -0.61176668318E+02  0.53282732672E+03  0.55996699500E+03  0.12500186298E+03 0.  0.
          2    1    1    2  501    0  0.11167007436E+03  0.22695667934E+02 -0.87580437848E+03  0.88318662139E+03  0.00000000000E+00 0. -1.
          1    1    1    2  502    0 -0.10230314442E+02  0.38481000384E+02  0.49169048040E+03  0.49330008640E+03  0.00000000000E+00 0. -1.
         22    1    3    3    0    0 -0.11929721207E+02 -0.24536202599E+02  0.11271992535E+02  0.29519507140E+02  0.00000000000E+00 0.  1.
         22    1    3    3    0    0 -0.89510038709E+02 -0.36640465719E+02  0.52155533419E+03  0.53044748786E+03  0.00000000000E+00 0.  1.
</event>
<event>
 7    1  0.5889087E-006  0.1768209E+03  0.7818608E-02  0.1181036E+00
          2   -1    0    0  502    0  0.00000000000E+00  0.00000000000E+00  0.76974460757E+03  0.76974460757E+03  0.00000000000E+00 0. -1.
          1   -1    0    0  501    0 -0.00000000000E+00 -0.00000000000E+00 -0.16432395932E+04  0.16432395932E+04  0.00000000000E+00 0. -1.
         25    2    1    2    0    0  0.11871785388E+03 -0.13236434280E+03 -0.15382527493E+03  0.26627325512E+03  0.12499993242E+03 0.  0.
          2    1    1    2  501    0  0.31420032565E+02  0.18055892103E+03 -0.14185107640E+04  0.14303012026E+04  0.00000000000E+00 0. -1.
          1    1    1    2  502    0 -0.15013788645E+03 -0.48194578233E+02  0.69884105328E+03  0.71640974314E+03  0.00000000000E+00 0. -1.
         22    1    3    3    0    0  0.12518531767E+03 -0.10776523254E+03 -0.16927489447E+03  0.23651363386E+03  0.00000000000E+00 0. -1.
         22    1    3    3    0    0 -0.64674637860E+01 -0.24599110255E+02  0.15449619538E+02  0.29759621251E+02  0.00000000000E+00 0. -1.
</event>
<event>
 7    1  0.5889087E-006  0.4933149E+02  0.7818608E-02  0.1507117E+00
          2   -1    0    0  502    0  0.00000000000E+00  0.00000000000E+00  0.20468457907E+04  0.20468457907E+04  0.00000000000E+00 0. -1.
          1   -1    0    0  501    0 -0.00000000000E+00 -0.00000000000E+00 -0.27836185616E+03  0.27836185616E+03  0.00000000000E+00 0. -1.
         25    2    1    2    0    0 -0.41766072035E+01 -0.21717202266E+02  0.68009950660E+03  0.69184493030E+03  0.12499995113E+03 0.  0.
          2    1    1    2  501    0 -0.17377750699E+02  0.46275796639E+02 -0.27004928446E+03  0.27453606614E+03  0.00000000000E+00 0. -1.
          1    1    1    2  502    0  0.21554357902E+02 -0.24558594374E+02  0.13584337124E+04  0.13588266504E+04  0.00000000000E+00 0. -1.
         22    1    3    3    0    0 -0.40420833072E+02  0.96046096287E+01  0.82908001503E+02  0.92735262902E+02  0.00000000000E+00 0. -1.
         22    1    3    3    0    0  0.36244225869E+02 -0.31321811894E+02  0.59719150509E+03  0.59910966739E+03  0.00000000000E+00 0. -1.
</event>
<event>
 7    1  0.5889087E-006  0.3211664E+02  0.7818608E-02  0.1609887E+00
          2   -1    0    0  502    0  0.00000000000E+00  0.00000000000E+00  0.73058096297E+02  0.73058096297E+02  0.00000000000E+00 0. -1.
          1   -1    0    0  501    0 -0.00000000000E+00 -0.00000000000E+00 -0.39673584486E+03  0.39673584486E+03  0.00000000000E+00 0. -1.
         25    2    1    2    0    0  0.25404800324E+02 -0.21224927055E+02 -0.51732224941E+02  0.13928538402E+03  0.12501317410E+03 0.  0.
          2    1    1    2  501    0  0.73345103264E+01  0.25060924152E+02 -0.29117693057E+03  0.29234542900E+03  0.00000000000E+00 0. -1.
          1    1    1    2  502    0 -0.32739310651E+02 -0.38359970970E+01  0.19231406948E+02  0.38163128132E+02  0.00000000000E+00 0. -1.
         22    1    3    3    0    0  0.19343225860E+02  0.48888287057E+02 -0.43866199701E+02  0.68472392059E+02  0.00000000000E+00 0. -1.
         22    1    3    3    0    0  0.60615744645E+01 -0.70113214112E+02 -0.78660252398E+01  0.70812991966E+02  0.00000000000E+00 0. -1.
</event>
<event>
 7    1  0.5889087E-006  0.1444923E+03  0.7818608E-02  0.1290130E+00
          2   -1    0    0  502    0  0.00000000000E+00  0.00000000000E+00  0.59210788127E+03  0.59210788127E+03  0.00000000000E+00 0. -1.
          1   -1    0    0  501    0 -0.00000000000E+00 -0.00000000000E+00 -0.15881740815E+04  0.15881740815E+04  0.00000000000E+00 0. -1.
         25    2    1    2    0    0  0.18685560552E+03 -0.23460174706E+02 -0.81297218705E+03  0.84380929921E+03  0.12499983766E+03 0.  0.
          2    1    1    2  501    0 -0.44360080784E+02  0.44839171526E+02 -0.74943730905E+03  0.75208686218E+03  0.00000000000E+00 0. -1.
          1    1    1    2  502    0 -0.14249552473E+03 -0.21378996820E+02  0.56634329586E+03  0.58438580137E+03  0.00000000000E+00 0. -1.
         22    1    3    3    0    0 -0.40638490677E+01  0.20373471149E+02 -0.28612790265E+02  0.35359368810E+02  0.00000000000E+00 0. -1.
         22    1    3    3    0    0  0.19091945459E+03 -0.43833645855E+02 -0.78435939678E+03  0.80844993040E+03  0.00000000000E+00 0. -1.
</event>
<event>
 7    1  0.5889087E-006  0.1394792E+03  0.7818608E-02  0.1359567E+00
          2   -1    0    0  502    0  0.00000000000E+00  0.00000000000E+00  0.41547621723E+03  0.41547621723E+03  0.00000000000E+00 0. -1.
          1   -1    0    0  501    0 -0.00000000000E+00 -0.00000000000E+00 -0.16272816804E+03  0.16272816804E+03  0.00000000000E+00 0. -1.
         25    2    1    2    0    0 -0.42947884445E+02  0.13902063327E+03  0.22410294244E+03  0.29498886741E+03  0.12500018334E+03 0.  0.
          2    1    1    2  501    0  0.72033190031E+02 -0.11904139115E+03 -0.85791643255E+02  0.16346204246E+03  0.00000000000E+00 0. -1.
          1    1    1    2  502    0 -0.29085305586E+02 -0.19979242119E+02  0.11443675001E+03  0.11975347540E+03  0.00000000000E+00 0. -1.
         22    1    3    3    0    0 -0.67209423576E+02  0.36702285426E+02  0.14291635633E+03  0.16213959812E+03  0.00000000000E+00 0.  1.
         22    1    3    3    0    0  0.24261539131E+02  0.10231834784E+03  0.81186586107E+02  0.13284926929E+03  0.00000000000E+00 0.  1.
</event>
<event>
 7    1  0.5889087E-006  0.1289450E+03  0.7818608E-02  0.1439127E+00
          2   -1    0    0  502    0  0.00000000000E+00  0.00000000000E+00  0.92736196751E+03  0.92736196751E+03  0.00000000000E+00 0. -1.
          1   -1    0    0  501    0 -0.00000000000E+00 -0.00000000000E+00 -0.32895044668E+02  0.32895044668E+02  0.00000000000E+00 0. -1.
         25    2    1    2    0    0 -0.11205863519E+02 -0.11793958271E+03  0.59274881404E+03  0.61726183642E+03  0.12500280638E+03 0.  0.
          2    1    1    2  501    0 -0.23585670042E+01  0.13305149700E+03  0.20670133746E+03  0.24583268009E+03  0.00000000000E+00 0. -1.
          1    1    1    2  502    0  0.13564430523E+02 -0.15111914290E+02  0.95016771341E+02  0.97162495671E+02  0.00000000000E+00 0. -1.
         22    1    3    3    0    0 -0.22134166088E+02 -0.75718634362E+01  0.12529099358E+02  0.26537384103E+02  0.00000000000E+00 0.  1.
         22    1    3    3    0    0  0.10928302569E+02 -0.11036771927E+03  0.58021971469E+03  0.59072445232E+03  0.00000000000E+00 0.  1.
</event>
<event>
 7    1  0.5889087E-006  0.5126437E+02  0.7818608E-02  0.1551490E+00
          2   -1    0    0  502    0  0.00000000000E+00  0.00000000000E+00  0.40959888267E+03  0.40959888267E+03  0.00000000000E+00 0. -1.
          1   -1    0    0  501    0 -0.00000000000E+00 -0.00000000000E+00 -0.11526908913E+04  0.11526908913E+04  0.00000000000E+00 0. -1.
         25    2    1    2    0    0  0.40603077471E+02  0.48660515021E+02  0.19682086909E+03  0.24161943495E+03  0.12500016486E+03 0.  0.
          2    1    1    2  501    0 -0.17149696920E+02 -0.48287655670E+02 -0.11289857346E+04  0.11301480429E+04  0.00000000000E+00 0. -1.
          1    1    1    2  502    0 -0.23453380552E+02 -0.37285935106E+00  0.18907285695E+03  0.19052229612E+03  0.00000000000E+00 0. -1.
         22    1    3    3    0    0  0.42772444759E+02  0.54201352900E+02  0.30988961960E+02  0.75680806352E+02  0.00000000000E+00 0. -1.
         22    1    3    3    0    0 -0.21693672878E+01 -0.55408378786E+01  0.16583190713E+03  0.16593862859E+03  0.00000000000E+00 0. -1.
</event>
<event>
 7    1  0.5889087E-006  0.4369206E+02  0.7818608E-02  0.1493546E+00
          2   -1    0    0  502    0  0.00000000000E+00  0.00000000000E+00  0.69347935569E+03  0.69347935569E+03  0.00000000000E+00 0. -1.
          1   -1    0    0  501    0 -0.00000000000E+00 -0.00000000000E+00 -0.98917110884E+03  0.98917110884E+03  0.00000000000E+00 0. -1.
         25    2    1    2    0    0  0.13828029879E+02 -0.13620552467E+02  0.19678755074E+03  0.23393849841E+03  0.12500058820E+03 0.  0.
          2    1    1    2  501    0 -0.27035320159E+02 -0.30151929505E+02 -0.96907868516E+03  0.96992450501E+03  0.00000000000E+00 0. -1.
          1    1    1    2  502    0  0.13207290280E+02  0.43772481971E+02  0.47659938127E+03  0.47878746111E+03  0.00000000000E+00 0. -1.
         22    1    3    3    0    0 -0.24192271620E+01 -0.47104233984E+02  0.19042731152E+03  0.19618160589E+03  0.00000000000E+00 0.  1.
         22    1    3    3    0    0  0.16247257041E+02  0.33483681517E+02  0.63602392225E+01  0.37756892513E+02  0.00000000000E+00 0.  1.
</event>
<event>
 7    1  0.5889087E-006  0.1132246E+03  0.7818608E-02  0.1274723E+00
          2   -1    0    0  502    0  0.00000000000E+00  0.00000000000E+00  0.25593710851E+04  0.25593710851E+04  0.00000000000E+00 0. -1.
          1   -1    0    0  501    0 -0.00000000000E+00 -0.00000000000E+00 -0.54442130734E+03  0.54442130734E+03  0.00000000000E+00 0. -1.
         25    2    1    2    0    0 -0.18193544444E+03  0.49823738971E+02 -0.92818919600E+02  0.24458864594E+03  0.12500137191E+03 0.  0.
          2    1    1    2  501    0  0.91491267526E+02  0.17496832892E+02 -0.36864160057E+03  0.38022811688E+03  0.00000000000E+00 0. -1.
          1    1    1    2  502    0  0.90444176910E+02 -0.67320571863E+02  0.24764102980E+04  0.24789756296E+04  0.00000000000E+00 0. -1.
         22    1    3    3    0    0 -0.15937031709E+03  0.13442830784E+02 -0.21455330076E+02  0.16136895258E+03  0.00000000000E+00 0. -1.
         22    1    3    3    0    0 -0.22565127346E+02  0.36380908187E+02 -0.71363589525E+02  0.83219693358E+02  0.00000000000E+00 0. -1.
</event>
<event>
 7    1  0.5889087E-006  0.2330391E+03  0.7818608E-02  0.1267386E+00
          2   -1    0    0  502    0  0.00000000000E+00  0.00000000000E+00  0.13781021751E+04  0.13781021751E+04  0.00000000000E+00 0. -1.
          1   -1    0    0  501    0 -0.00000000000E+00 -0.00000000000E+00 -0.49669014133E+03  0.49669014133E+03  0.00000000000E+00 0. -1.
         25    2    1    2    0    0  0.21896782822E+03  0.41640443492E+02 -0.18151686762E+03  0.31345474732E+03  0.12499867623E+03 0.  0.
          2    1    1    2  501    0 -0.24420081449E+03 -0.12848808340E+00 -0.18879539451E+03  0.30867094987E+03  0.00000000000E+00 0. -1.
          1    1    1    2  502    0  0.25232986270E+02 -0.41511955409E+02  0.12517242959E+04  0.12526666192E+04  0.00000000000E+00 0. -1.
         22    1    3    3    0    0  0.71274277428E+02 -0.39990984139E+02 -0.89675128454E+02  0.12132984010E+03  0.00000000000E+00 0.  1.
         22    1    3    3    0    0  0.14769355079E+03  0.81631427631E+02 -0.91841739161E+02  0.19212490722E+03  0.00000000000E+00 0.  1.
</event>
<event>
 7    1  0.5889087E-006  0.1038870E+03  0.7818608E-02  0.1339540E+00
          2   -1    0    0  502    0  0.00000000000E+00  0.00000000000E+00  0.20651780485E+02  0.20651780485E+02  0.00000000000E+00 0. -1.
          1   -1    0    0  501    0 -0.00000000000E+00 -0.00000000000E+00 -0.19070730214E+04  0.19070730214E+04  0.00000000000E+00 0. -1.
         25    2    1    2    0    0 -0.12235556332E+03 -0.31546707789E+02 -0.96315695286E+03  0.97941946869E+03  0.12500040459E+03 0.  0.
          2    1    1    2  501    0  0.45137018952E+02 -0.33499079070E+02 -0.71136352964E+03  0.71358083641E+03  0.00000000000E+00 0. -1.
          1    1    1    2  502    0  0.77218544363E+02  0.65045786859E+02 -0.21190075843E+03  0.23472449682E+03  0.00000000000E+00 0. -1.
         22    1    3    3    0    0  0.15355343285E+02  0.55519870200E+01 -0.21366028536E+02  0.26890859092E+02  0.00000000000E+00 0. -1.
         22    1    3    3    0    0 -0.13771090660E+03 -0.37098694809E+02 -0.94179092433E+03  0.95252860960E+03  0.00000000000E+00 0. -1.
</event>
<event>
 7    1  0.5889087E-006  0.4368005E+02  0.7818608E-02  0.1516902E+00
          2   -1    0    0  502    0  0.00000000000E+00  0.00000000000E+00  0.72243964294E+03  0.72243964294E+03  0.00000000000E+00 0. -1.
          1   -1    0    0  501    0 -0.00000000000E+00 -0.00000000000E+00 -0.49058355708E+02  0.49058355708E+02  0.00000000000E+00 0. -1.
         25    2    1    2    0    0 -0.53953330115E+01  0.18913266947E+02  0.19749421838E+03  0.23455466673E+03  0.12500041643E+03 0.  0.
          2    1    1    2  501    0  0.39628960984E+02 -0.23515963892E+02 -0.12173623705E+02  0.47661852886E+02  0.00000000000E+00 0. -1.
          1    1    1    2  502    0 -0.34233627972E+02  0.46026969446E+01  0.48806069255E+03  0.48928147903E+03  0.00000000000E+00 0. -1.
         22    1    3    3    0    0  0.51643931762E+02  0.40032920792E+02  0.93290515446E+02  0.11389842276E+03  0.00000000000E+00 0.  1.
         22    1    3    3    0    0 -0.57039264773E+02 -0.21119653844E+02  0.10420370293E+03  0.12065624397E+03  0.00000000000E+00 0.  1.
</event>
<event>
 7    1  0.5889087E-006  0.1230850E+03  0.7818608E-02  0.1347833E+00
          2   -1    0    0  502    0  0.00000000000E+00  0.00000000000E+00  0.14045865784E+04  0.14045865784E+04  0.00000000000E+00 0. -1.
          1   -1    0    0  501    0 -0.00000000000E+00 -0.00000000000E+00 -0.10353510007E+04  0.10353510007E+04  0.00000000000E+00 0. -1.
         25    2    1    2    0    0 -0.76457652183E+01 -0.10627469449E+03  0.23658883870E+03  0.28801016490E+03  0.12499123200E+03 0.  0.
          2    1    1    2  501    0  0.41480835745E+02 -0.15182224997E+02 -0.10056749411E+04  0.10066445484E+04  0.00000000000E+00 0. -1.
          1    1    1    2  502    0 -0.33835070527E+02  0.12145691949E+03  0.11383216801E+04  0.11452828658E+04  0.00000000000E+00 0. -1.
         22    1    3    3    0    0 -0.63937318573E+02 -0.38729875061E+02  0.89139186989E+02  0.11633476946E+03  0.00000000000E+00 0. -1.
         22    1    3    3    0    0  0.56291553355E+02 -0.67544819428E+02  0.14744965171E+03  0.17167539544E+03  0.00000000000E+00 0. -1.
</event>
<event>
 7    1  0.5889087E-006  0.3759807E+02  0.7818608E-02  0.1540584E+00
          2   -1    0    0  502    0  0.00000000000E+00  0.00000000000E+00  0.40115169807E+03  0.40115169807E+03  0.00000000000E+00 0. -1.
          1   -1    0    0  501    0 -0.00000000000E+00 -0.00000000000E+00 -0.16362695400E+04  0.16362695400E+04  0.00000000000E+00 0. -1.
         25    2    1    2    0    0 -0.44845052893E+02  0.49095663678E+02 -0.57467659029E+03  0.59186124080E+03  0.12500032788E+03 0.  0.
          2    1    1    2  501    0  0.31302500458E+02 -0.14061537264E+02 -0.10518217121E+04  0.10523813413E+04  0.00000000000E+00 0. -1.
          1    1    1    2  502    0  0.13542552435E+02 -0.35034126414E+02  0.39138046045E+03  0.39317865604E+03  0.00000000000E+00 0. -1.
         22    1    3    3    0    0 -0.77092117764E+02  0.26461185042E+02 -0.21328460796E+03  0.22832808178E+03  0.00000000000E+00 0.  1.
         22    1    3    3    0    0  0.32247064870E+02  0.22634478636E+02 -0.36139198233E+03  0.36353315902E+03  0.00000000000E+00 0.  1.
</event>
<event>
 7    1  0.5889087E-006  0.7834752E+02  0.7818608E-02  0.1406493E+00
          2   -1    0    0  502    0  0.00000000000E+00  0.00000000000E+00  0.45350348880E+03  0.45350348880E+03  0.00000000000E+00 0. -1.
          1   -1    0    0  501    0 -0.00000000000E+00 -0.00000000000E+00 -0.16219381960E+04  0.16219381960E+04  0.00000000000E+00 0. -1.
         25    2    1    2    0    0 -0.97938948260E+02  0.44066821347E+01 -0.27933410798E+03  0.32134669602E+03  0.12499879492E+03 0.  0.
          2    1    1    2  501    0  0.71859718631E+02  0.29672437198E+02 -0.13193862164E+04  0.13216747939E+04  0.00000000000E+00 0. -1.
          1    1    1    2  502    0  0.26079229629E+02 -0.34079119332E+02  0.43028561719E+03  0.43242019490E+03  0.00000000000E+00 0. -1.
         22    1    3    3    0    0  0.13609120680E+02 -0.17824583784E+02 -0.31347158226E+01  0.22643992493E+02  0.00000000000E+00 0.  1.
         22    1    3    3    0    0 -0.11154806894E+03  0.22231265919E+02 -0.27619939216E+03  0.29870270353E+03  0.00000000000E+00 0.  1.
</event>
<event>
 7    1  0.5889087E-006  0.5308754E+02  0.7818608E-02  0.1479271E+00
          2   -1    0    0  502    0  0.00000000000E+00  0.00000000000E+00  0.67317700782E+02  0.67317700782E+02  0.00000000000E+00 0. -1.
          1   -1    0    0  501    0 -0.00000000000E+00 -0.00000000000E+00 -0.81435783749E+03  0.81435783749E+03  0.00000000000E+00 0. -1.
         25    2    1    2    0    0  0.25428541659E+02  0.13353878047E+02 -0.31907439782E+03  0.34388121189E+03  0.12498351796E+03 0.  0.
          2    1    1    2  501    0 -0.40432970755E+01  0.36610833636E+02 -0.46853055282E+03  0.46997614867E+03  0.00000000000E+00 0. -1.
          1    1    1    2  502    0 -0.21385244583E+02 -0.49964711682E+02  0.40564813926E+02  0.67818177713E+02  0.00000000000E+00 0. -1.
         22    1    3    3    0    0  0.18864557837E+02 -0.16743393460E+02 -0.31101973075E+03  0.31204083976E+03  0.00000000000E+00 0. -1.
         22    1    3    3    0    0  0.65639838219E+01  0.30097271506E+02 -0.80546670695E+01  0.31840372129E+02  0.00000000000E+00 0. -1.
</event>
<event>
 7    1  0.5889087E-006  0.3980302E+02  0.7818608E-02  0.1580290E+00
          2   -1    0    0  502    0  0.00000000000E+00  0.00000000000E+00  0.18815837321E+03  0.18815837321E+03  0.00000000000E+00 0. -1.
          1   -1    0    0  501    0 -0.00000000000E+00 -0.00000000000E+00 -0.12547395639E+03  0.12547395639E+03  0.00000000000E+00 0. -1.
         25    2    1    2    0    0  0.36114243559E+02 -0.49981126071E+02 -0.26691799310E+02  0.14191566361E+03  0.12500100750E+03 0.  0.
          2    1    1    2  501    0 -0.20991179921E+02  0.13952196368E+02 -0.33986944687E+02  0.42313187390E+02  0.00000000000E+00 0. -1.
          1    1    1    2  502    0 -0.15123063638E+02  0.36028929703E+02  0.12336316082E+03  0.12940347861E+03  0.00000000000E+00 0. -1.
         22    1    3    3    0    0  0.59159132887E+02 -0.61523463472E+01  0.30022578962E+02  0.66625892992E+02  0.00000000000E+00 0. -1.
         22    1    3    3    0    0 -0.23044889328E+02 -0.43828779723E+02 -0.56714378273E+02  0.75289770614E+02  0.00000000000E+00 0. -1.
</event>
<event>
 7    1  0.5889087E-006  0.1568222E+03  0.7818608E-02  0.1295605E+00
          2   -1    0    0  502    0  0.00000000000E+00  0.00000000000E+00  0.26107271838E+04  0.26107271838E+04  0.00000000000E+00 0. -1.
          1   -1    0    0  501    0 -0.00000000000E+00 -0.00000000000E+00 -0.11647015477E+04  0.11647015477E+04  0.00000000000E+00 0. -1.
         25    2    1    2    0    0  0.22471160917E+02  0.13474829161E+03  0.31417403179E+02  0.18781384028E+03  0.12499972086E+03 0.  0.
          2    1    1    2  501    0  0.55165032276E+02  0.25414843284E+01 -0.10833128294E+04  0.10847194690E+04  0.00000000000E+00 0. -1.
          1    1    1    2  502    0 -0.77636193193E+02 -0.13728977594E+03  0.24979210623E+04  0.25028954222E+04  0.00000000000E+00 0. -1.
         22    1    3    3    0    0 -0.49769833012E+02  0.73549424175E+02  0.27838937998E+02  0.93067505303E+02  0.00000000000E+00 0.  1.
         22    1    3    3    0    0  0.72240993928E+02  0.61198867436E+02  0.35784651815E+01  0.94746334980E+02  0.00000000000E+00 0.  1.
</event>
<event>
 7    1  0.5889087E-006  0.4398629E+02  0.7818608E-02  0.1587613E+00
          2   -1    0    0  502    0  0.00000000000E+00  0.00000000000E+00  0.49829190226E+03  0.49829190226E+03  0.00000000000E+00 0. -1.
          1   -1    0    0  501    0 -0.00000000000E+00 -0.00000000000E+00 -0.14231464011E+04  0.14231464011E+04  0.00000000000E+00 0. -1.
         25    2    1    2    0    0 -0.27088073806E+02 -0.78969893251E+01 -0.73372111201E+03  0.74482785517E+03  0.12500294978E+03 0.  0.
          2    1    1    2  501    0 -0.61860469832E+01 -0.20908779584E+02 -0.68271477203E+03  0.68306288450E+03  0.00000000000E+00 0. -1.
          1    1    1    2  502    0  0.33274120789E+02  0.28805768909E+02  0.49158138515E+03  0.49354756373E+03  0.00000000000E+00 0. -1.
         22    1    3    3    0    0 -0.33842417558E+02  0.23170143415E+02 -0.76184517630E+02  0.86523092285E+02  0.00000000000E+00 0.  1.
         22    1    3    3    0    0  0.67543437519E+01 -0.31067132740E+02 -0.65753659438E+03  0.65830476289E+03  0.00000000000E+00 0.  1.
</event>
<event>
 7    1  0.5889087E-006  0.5187975E+02  0.7818608E-02  0.1525576E+00
          2   -1    0    0  502    0  0.00000000000E+00  0.00000000000E+00  0.16286776203E+04  0.16286776203E+04  0.00000000000E+00 0. -1.
          1   -1    0    0  501    0 -0.00000000000E+00 -0.00000000000E+00 -0.10770678668E+03  0.10770678668E+03  0.00000000000E+00 0. -1.
         25    2    1    2    0    0  0.31888960471E+01  0.24760755167E+02  0.11402315966E+03  0.17101891017E+03  0.12499169029E+03 0.  0.
          2    1    1    2  501    0  0.67612435161E+01  0.26600388262E+02 -0.76356277192E+02  0.81139239189E+02  0.00000000000E+00 0. -1.
          1    1    1    2  502    0 -0.99501395632E+01 -0.51361143429E+02  0.14833039512E+04  0.14842262576E+04  0.00000000000E+00 0. -1.
         22    1    3    3    0    0  0.21195165505E+02 -0.47549727767E+02  0.56921368172E+02  0.77137888266E+02  0.00000000000E+00 0.  1.
         22    1    3    3    0    0 -0.18006269458E+02  0.72310482934E+02  0.57101791488E+02  0.93881021900E+02  0.00000000000E+00 0.  1.
</event>
<event>
 7    1  0.5889087E-006  0.1901964E+03  0.7818608E-02  0.1265466E+00
          2   -1    0    0  502    0  0.00000000000E+00  0.00000000000E+00  0.20409182238E+04  0.20409182238E+04  0.00000000000E+00 0. -1.
          1   -1    0    0  501    0 -0.00000000000E+00 -0.00000000000E+00 -0.26552959679E+03  0.26552959679E+03  0.00000000000E+00 0. -1.
         25    2    1    2    0    0  0.19037919724E+03  0.15154374074E+03  0.17047085098E+02  0.27409009708E+03  0.12500013643E+03 0.  0.
          2    1    1    2  501    0 -0.58044614207E+02 -0.17564654845E+02 -0.12536442785E+03  0.13926210579E+03  0.00000000000E+00 0. -1.
          1    1    1    2  502    0 -0.13233458303E+03 -0.13397908590E+03  0.18837059698E+04  0.18930956177E+04  0.00000000000E+00 0. -1.
         22    1    3    3    0    0  0.16868588280E+03  0.97166683739E+02 -0.32536321473E+02  0.19736996656E+03  0.00000000000E+00 0.  1.
         22    1    3    3    0    0  0.21693314442E+02  0.54377057006E+02  0.49583406571E+02  0.76720130522E+02  0.00000000000E+00 0.  1.
</event>
<event>
 7    1  0.5889087E-006  0.8380238E+02  0.7818608E-02  0.1405096E+00
          2   -1    0    0  502    0  0.00000000000E+00  0.00000000000E+00  0.42345105754E+02  0.42345105754E+02  0.00000000000E+00 0. -1.
          1   -1    0    0  501    0 -0.00000000000E+00 -0.00000000000E+00 -0.27611460808E+04  0.27611460808E+04  0.00000000000E+00 0. -1.
         25    2    1    2    0    0 -0.37783560387E+02  0.36161513667E+02 -0.22103291470E+03  0.25925846981E+03  0.12499660910E+03 0.  0.
          2    1    1    2  501    0  0.78257138337E+02 -0.33481981549E+02 -0.25020026319E+04  0.25034500979E+04  0.00000000000E+00 0. -1.
          1    1    1    2  502    0 -0.40473577950E+02 -0.26795321180E+01  0.42345715084E+01  0.40782618850E+02  0.00000000000E+00 0. -1.
         22    1    3    3    0    0  0.23808911453E+02  0.22752638293E+02 -0.18235095457E+03  0.18530088356E+03  0.00000000000E+00 0. -1.
         22    1    3    3    0    0 -0.61592471840E+02  0.13408875374E+02 -0.38681960126E+02  0.73957586259E+02  0.00000000000E+00 0. -1.
</event>
<event>
 7    1  0.5889087E-006  0.8270310E+02  0.7818608E-02  0.1489213E+00
          2   -1    0    0  502    0  0.00000000000E+00  0.00000000000E+00  0.31432569258E+04  0.31432569258E+04  0.00000000000E+00 0. -1.
          1   -1    0    0  501    0 -0.00000000000E+00 -0.00000000000E+00 -0.13090797014E+02  0.13090797014E+02  0.00000000000E+00 0. -1.
         25    2    1    2    0    0  0.55831178938E+02  0.29358602444E+02  0.18519239219E+04  0.18572080778E+04  0.12498233376E+03 0.  0.
          2    1    1    2  501    0 -0.77366384543E+02 -0.34092176525E+02  0.16248357173E+03  0.18316316508E+03  0.00000000000E+00 0. -1.
          1    1    1    2  502    0  0.21535205605E+02  0.47335740810E+01  0.11157586351E+04  0.11159764799E+04  0.00000000000E+00 0. -1.
         22    1    3    3    0    0  0.29583689716E+02  0.70153056543E+02  0.67414874588E+03  0.67843435763E+03  0.00000000000E+00 0.  1.
         22    1    3    3    0    0  0.26247489221E+02 -0.40794454099E+02  0.11777751760E+04  0.11787737202E+04  0.00000000000E+00 0.  1.
</event>
<event>
 7    1  0.5889087E-006  0.8607206E+02  0.7818608E-02  0.1374122E+00
          2   -1    0    0  502    0  0.00000000000E+00  0.00000000000E+00  0.40956140542E+03  0.40956140542E+03  0.00000000000E+00 0. -1.
          1   -1    0    0  501    0 -0.00000000000E+00 -0.00000000000E+00 -0.17343005619E+04  0.17343005619E+04  0.00000000000E+00 0. -1.
         25    2    1    2    0    0  0.13264508491E+03  0.18530792492E+02 -0.38540545523E+01  0.18323793057E+03  0.12499270636E+03 0.  0.
          2    1    1    2  501    0 -0.49991242621E+02 -0.82153833286E+01 -0.16349329630E+04  0.16357177050E+04  0.00000000000E+00 0. -1.
          1    1    1    2  502    0 -0.82653842285E+02 -0.10315409164E+02  0.31404786113E+03  0.32490633172E+03  0.00000000000E+00 0. -1.
         22    1    3    3    0    0  0.63792648892E+02  0.62905237926E+02 -0.34182383593E+02  0.95890595782E+02  0.00000000000E+00 0.  1.
         22    1    3    3    0    0  0.68852436014E+02 -0.44374445434E+02  0.30328329041E+02  0.87347334791E+02  0.00000000000E+00 0.  1.
</event>
<event>
 7    1  0.5889087E-006  0.7186991E+02  0.7818608E-02  0.1458194E+00
          2   -1    0    0  502    0  0.00000000000E+00  0.00000000000E+00  0.13648483074E+03  0.13648483074E+03  0.00000000000E+00 0. -1.
          1   -1    0    0  501    0 -0.00000000000E+00 -0.00000000000E+00 -0.46300798407E+03  0.46300798407E+03  0.00000000000E+00 0. -1.
         25    2    1    2    0    0 -0.51245794153E+02  0.84654938431E+02 -0.16208372454E+03  0.22735214988E+03  0.12500110510E+03 0.  0.
          2    1    1    2  501    0  0.24933840113E+02 -0.19494138094E+02 -0.25531212918E+03  0.25726640105E+03  0.00000000000E+00 0. -1.
          1    1    1    2  502    0  0.26311954040E+02 -0.65160800337E+02  0.90872700392E+02  0.11487426388E+03  0.00000000000E+00 0. -1.
         22    1    3    3    0    0 -0.27459287735E+02 -0.28540554769E+02 -0.20720988016E+02  0.44698267235E+02  0.00000000000E+00 0. -1.
         22    1    3    3    0    0 -0.23786506418E+02  0.11319549320E+03 -0.14136273652E+03  0.18265388265E+03  0.00000000000E+00 0. -1.
</event>
<event>
 7    1  0.5889087E-006  0.5667424E+02  0.7818608E-02  0.1539079E+00
          2   -1    0    0  502    0  0.00000000000E+00  0.00000000000E+00  0.24112698266E+04  0.24112698266E+04  0.00000000000E+00 0. -1.
          1   -1    0    0  501    0 -0.00000000000E+00 -0.00000000000E+00 -0.22102820419E+02  0.22102820419E+02  0.00000000000E+00 0. -1.
         25    2    1    2    0    0 -0.44969335989E+02 -0.59028803820E+02  0.11184160587E+04  0.11278237930E+04  0.12500154699E+03 0.  0.
          2    1    1    2  501    0  0.20655177905E+02  0.10093596892E+02 -0.89585226502E+01  0.24673309478E+02  0.00000000000E+00 0. -1.
          1    1    1    2  502    0  0.24314158084E+02  0.48935206928E+02  0.12797094701E+04  0.12808755446E+04  0.00000000000E+00 0. -1.
         22    1    3    3    0    0  0.39884851773E+02 -0.38312823497E+02  0.54410249641E+03  0.54690602525E+03  0.00000000000E+00 0. -1.
         22    1    3    3    0    0 -0.84854187762E+02 -0.20715980323E+02  0.57431356228E+03  0.58091776771E+03  0.00000000000E+00 0. -1.
</event>
<event>
 7    1  0.5889087E-006  0.1213990E+03  0.7818608E-02  0.1359041E+00
          2   -1    0    0  502    0  0.00000000000E+00  0.00000000000E+00  0.72651239433E+03  0.72651239433E+03  0.00000000000E+00 0. -1.
          1   -1    0    0  501    0 -0.00000000000E+00 -0.00000000000E+00 -0.84754274282E+03  0.84754274282E+03  0.00000000000E+00 0. -1.
         25    2    1    2    0    0  0.77408009553E+02 -0.64110297103E+02 -0.58827983167E+02  0.17084443987E+03  0.12499984358E+03 0.  0.
          2    1    1    2  501    0 -0.11224854171E+02 -0.39143632693E+02 -0.72652329297E+03  0.72766360123E+03  0.00000000000E+00 0. -1.
          1    1    1    2  502    0 -0.66183155382E+02  0.10325392980E+03  0.66432092765E+03  0.67554709605E+03  0.00000000000E+00 0. -1.
         22    1    3    3    0    0  0.40456732301E+02 -0.80438451834E+02  0.10454469241E+02  0.90644291873E+02  0.00000000000E+00 0. -1.
         22    1    3    3    0    0  0.36951277253E+02  0.16328154732E+02 -0.69282452408E+02  0.80200148000E+02  0.00000000000E+00 0. -1.
</event>
<event>
 7    1  0.5889087E-006  0.5300788E+02  0.7818608E-02  0.1461273E+00
          2   -1    0    0  502    0  0.00000000000E+00  0.00000000000E+00  0.13764568923E+04  0.13764568923E+04  0.00000000000E+00 0. -1.
          1   -1    0    0  501    0 -0.00000000000E+00 -0.00000000000E+00 -0.13343758700E+03  0.13343758700E+03  0.00000000000E+00 0. -1.
         25    2    1    2    0    0  0.14450513716E+02 -0.52442148981E+00  0.13286982725E+03  0.18299808843E+03  0.12499926804E+03 0.  0.
          2    1    1    2  501    0  0.31637275486E+02 -0.27566951430E+02 -0.10368914564E+03  0.11185836104E+03  0.00000000000E+00 0. -1.
          1    1    1    2  502    0 -0.46087789203E+02  0.28091372920E+02  0.12138386237E+04  0.12150380298E+04  0.00000000000E+00 0. -1.
         22    1    3    3    0    0 -0.40050023349E+02 -0.34465481094E+01  0.12050959953E+03  0.12703718606E+03  0.00000000000E+00 0.  1.
         22    1    3    3    0    0  0.54500537066E+02  0.29221266196E+01  0.12360227722E+02  0.55960902367E+02  0.00000000000E+00 0.  1.
</event>
<event>
 7    1  0.5889087E-006  0.1645658E+03  0.7818608E-02  0.1236262E+00
          2   -1    0    0  502    0  0.00000000000E+00  0.00000000000E+00  0.25683009931E+04  0.25683009931E+04  0.00000000000E+00 0. -1.
          1   -1    0    0  501    0 -0.00000000000E+00 -0.00000000000E+00 -0.35735792115E+03  0.35735792115E+03  0.00000000000E+00 0. -1.
         25    2    1    2    0    0 -0.52708988593E+02  0.22977382174E+03  0.18929866508E+03  0.32716027396E+03  0.12500245448E+03 0.  0.
          2    1    1    2  501    0 -0.28270092866E+02 -0.89433675525E+02 -0.27787487271E+03  0.29327806831E+03  0.00000000000E+00 0. -1.
          1    1    1    2  502    0  0.80979081459E+02 -0.14034014621E+03  0.22995192796E+04  0.23052205720E+04  0.00000000000E+00 0. -1.
         22    1    3    3    0    0 -0.63814313862E+02  0.24141821226E+03  0.18414174395E+03  0.31026311694E+03  0.00000000000E+00 0.  1.
         22    1    3    3    0    0  0.11105325269E+02 -0.11644390526E+02  0.51569211261E+01  0.16897157026E+02  0.00000000000E+00 0.  1.
</event>
<event>
 7    1  0.5889087E-006  0.1754143E+03  0.7818608E-02  0.1217870E+00
          2   -1    0    0  502    0  0.00000000000E+00  0.00000000000E+00  0.19365107808E+04  0.19365107808E+04  0.00000000000E+00 0. -1.
          1   -1    0    0  501    0 -0.00000000000E+00 -0.00000000000E+00 -0.24583700947E+03  0.24583700947E+03  0.00000000000E+00 0. -1.
         25    2    1    2    0    0 -0.67848813888E+01 -0.12056086745E+03  0.18349602399E+03  0.25274715425E+03  0.12501750191E+03 0.  0.
          2    1    1    2  501    0 -0.10212199782E+03 -0.30206296403E+02 -0.19238379065E+03  0.21989280499E+03  0.00000000000E+00 0. -1.
          1    1    1    2  502    0  0.10890687921E+03  0.15076716385E+03  0.16995615380E+04  0.17097078310E+04  0.00000000000E+00 0. -1.
         22    1    3    3    0    0  0.58990327706E+02 -0.49892461491E+02  0.82842248286E+02  0.11327821758E+03  0.00000000000E+00 0. -1.
         22    1    3    3    0    0 -0.65775209095E+02 -0.70668405960E+02  0.10065377570E+03  0.13946893667E+03  0.00000000000E+00 0. -1.
</event>
<event>
 7    1  0.5889087E-006  0.1135101E+03  0.7818608E-02  0.1275931E+00
          2   -1    0    0  502    0  0.00000000000E+00  0.00000000000E+00  0.25938021417E+04  0.25938021417E+04  0.00000000000E+00 0. -1.
          1   -1    0    0  501    0 -0.00000000000E+00 -0.00000000000E+00 -0.43377614626E+03  0.43377614626E+03  0.00000000000E+00 0. -1.
         25    2    1    2    0    0  0.17213400959E+03 -0.84439547038E+02  0.73173687181E+03  0.76669690477E+03  0.12500055944E+03 0.  0.
          2    1    1    2  501    0 -0.67440085847E+02  0.62349327601E+02 -0.40965529168E+03  0.41982503717E+03  0.00000000000E+00 0. -1.
          1    1    1    2  502    0 -0.10469392375E+03  0.22090219437E+02  0.18379444153E+04  0.18410563460E+04  0.00000000000E+00 0. -1.
         22    1    3    3    0    0  0.10066218950E+03 -0.87130050708E+02  0.61923341918E+03  0.63338341434E+03  0.00000000000E+00 0.  1.
         22    1    3    3    0    0  0.71471820097E+02  0.26905036698E+01  0.11250345263E+03  0.13331349043E+03  0.00000000000E+00 0.  1.
</event>
<event>
 7    1  0.5889087E-006  0.3660115E+02  0.7818608E-02  0.1536268E+00
          2   -1    0    0  502    0  0.00000000000E+00  0.00000000000E+00  0.39823750504E+02  0.39823750504E+02  0.00000000000E+00 0. -1.
          1   -1    0    0  501    0 -0.00000000000E+00 -0.00000000000E+00 -0.16960449206E+04  0.16960449206E+04  0.00000000000E+00 0. -1.
         25    2    1    2    0    0  0.84378141032E+00  0.50395693701E+00 -0.59244348446E+03  0.60548729262E+03  0.12499845318E+03 0.  0.
          2    1    1    2  501    0  0.33851907926E+02  0.12985332979E+02 -0.10862787629E+04  0.10868836742E+04  0.00000000000E+00 0. -1.
          1    1    1    2  502    0 -0.34695689336E+02 -0.13489289916E+02  0.22501077253E+02  0.43497704290E+02  0.00000000000E+00 0. -1.
         22    1    3    3    0    0  0.21774907984E+02 -0.56380978523E+02 -0.22032810717E+03  0.22846758231E+03  0.00000000000E+00 0.  1.
         22    1    3    3    0    0 -0.20931126574E+02  0.56884935460E+02 -0.37211537729E+03  0.37701971031E+03  0.00000000000E+00 0.  1.
</event>
<event>
 7    1  0.5889087E-006  0.1006579E+03  0.7818608E-02  0.1441418E+00
          2   -1    0    0  502    0  0.00000000000E+00  0.00000000000E+00  0.80629320662E+03  0.80629320662E+03  0.00000000000E+00 0. -1.
          1   -1    0    0  501    0 -0.00000000000E+00 -0.00000000000E+00 -0.19330152691E+03  0.19330152691E+03  0.00000000000E+00 0. -1.
         25    2    1    2    0    0  0.68178256635E+02  0.43168040045E+02  0.22716709541E+03  0.27155387434E+03  0.12499945228E+03 0.  0.
          2    1    1    2  501    0 -0.76522325409E+02 -0.67340388560E+02 -0.15559850156E+03  0.18601421426E+03  0.00000000000E+00 0. -1.
          1    1    1    2  502    0  0.83440687745E+01  0.24172348515E+02  0.54142308586E+03  0.54202664493E+03  0.00000000000E+00 0. -1.
         22    1    3    3    0    0  0.87606432071E+02  0.71200181671E+01  0.80191220397E+02  0.11897988665E+03  0.00000000000E+00 0.  1.
         22    1    3    3    0    0 -0.19428175436E+02  0.36048021878E+02  0.14697587501E+03  0.15257398769E+03  0.00000000000E+00 0.  1.
</event>
<event>
 7    1  0.5889087E-006  0.5030117E+02  0.7818608E-02  0.1476592E+00
          2   -1    0    0  502    0  0.00000000000E+00  0.00000000000E+00  0.39046395980E+03  0.39046395980E+03  0.00000000000E+00 0. -1.
          1   -1    0    0  501    0 -0.00000000000E+00 -0.00000000000E+00 -0.29583276914E+03  0.29583276914E+03  0.00000000000E+00 0. -1.
         25    2    1    2    0    0 -0.48146644748E+01 -0.86022265424E+02  0.12749632299E+03  0.19824963613E+03  0.12499837881E+03 0.  0.
          2    1    1    2  501    0  0.14582831230E+02  0.47626656532E+02 -0.25631616968E+03  0.26111096533E+03  0.00000000000E+00 0. -1.
          1    1    1    2  502    0 -0.97681667549E+01  0.38395608892E+02  0.22345103735E+03  0.22693612748E+03  0.00000000000E+00 0. -1.
         22    1    3    3    0    0  0.30818396439E+02 -0.10449231929E+03  0.75418558483E+02  0.13250048042E+03  0.00000000000E+00 0.  1.
         22    1    3    3    0    0 -0.35633060914E+02  0.18470053862E+02  0.52077764506E+02  0.65749155703E+02  0.00000000000E+00 0.  1.
</event>
<event>
 7    1  0.5889087E-006  0.6180879E+02  0.7818608E-02  0.1449322E+00
          2   -1    0    0  502    0  0.00000000000E+00  0.00000000000E+00  0.16944391168E+04  0.16944391168E+04  0.00000000000E+00 0. -1.
          1   -1    0    0  501    0 -0.00000000000E+00 -0.00000000000E+00 -0.13663540956E+03  0.13663540956E+03  0.00000000000E+00 0. -1.
         25    2    1    2    0    0  0.53676197146E+02  0.74348525561E+01  0.43538895981E+02  0.14302689406E+03  0.12499858315E+03 0.  0.
          2    1    1    2  501    0 -0.55640077591E+02  0.31789981760E+02 -0.74800891648E+02  0.98496672867E+02  0.00000000000E+00 0. -1.
          1    1    1    2  502    0  0.19638804447E+01 -0.39224834316E+02  0.15890657029E+04  0.15895509594E+04  0.00000000000E+00 0. -1.
         22    1    3    3    0    0  0.64065721460E+02  0.14132629977E+02 -0.27342471886E+02  0.71075724865E+02  0.00000000000E+00 0. -1.
         22    1    3    3    0    0 -0.10389524314E+02 -0.66977774214E+01  0.70881367867E+02  0.71951169195E+02  0.00000000000E+00 0. -1.
</event>
<event>
 7    1  0.5889087E-006  0.8440703E+02  0.7818608E-02  0.1426589E+00
          2   -1    0    0  502    0  0.00000000000E+00  0.00000000000E+00  0.45122264094E+04  0.45122264094E+04  0.00000000000E+00 0. -1.
          1   -1    0    0  501    0 -0.00000000000E+00 -0.00000000000E+00 -0.28122322518E+02  0.28122322518E+02  0.00000000000E+00 0. -1.
         25    2    1    2    0    0 -0.24431203469E+02 -0.71067601212E+02  0.21974045556E+04  0.22022393675E+04  0.12499585123E+03 0.  0.
          2    1    1    2  501    0 -0.68609844752E+01  0.84621950935E+02  0.44883024485E+02  0.96033502357E+02  0.00000000000E+00 0. -1.
          1    1    1    2  502    0  0.31292187944E+02 -0.13554349723E+02  0.22418165068E+04  0.22420758621E+04  0.00000000000E+00 0. -1.
         22    1    3    3    0    0 -0.16424722944E+01 -0.74032821480E+02  0.58463198487E+03  0.58930307491E+03  0.00000000000E+00 0. -1.
         22    1    3    3    0    0 -0.22788731174E+02  0.29652202676E+01  0.16127725708E+04  0.16129362925E+04  0.00000000000E+00 0. -1.
</event>
<event>
 7    1  0.5889087E-006  0.5465168E+02  0.7818608E-02  0.1485311E+00
          2   -1    0    0  502    0  0.00000000000E+00  0.00000000000E+00  0.23102367840E+03  0.23102367840E+03  0.00000000000E+00 0. -1.
          1   -1    0    0  501    0 -0.00000000000E+00 -0.00000000000E+00 -0.14082074525E+04  0.14082074525E+04  0.00000000000E+00 0. -1.
         25    2    1    2    0    0 -0.19703862349E+02  0.78401978560E+02 -0.15210500814E+03  0.21282851465E+03  0.12499972285E+03 0.  0.
          2    1    1    2  501    0 -0.44223612516E+01 -0.54036040367E+02 -0.12236711823E+04  0.12248716722E+04  0.00000000000E+00 0. -1.
          1    1    1    2  502    0  0.24126223600E+02 -0.24365938193E+02  0.19859241632E+03  0.20153094410E+03  0.00000000000E+00 0. -1.
         22    1    3    3    0    0 -0.17886672519E+02 -0.23875215530E+02 -0.86017878300E+02  0.91044134120E+02  0.00000000000E+00 0. -1.
         22    1    3    3    0    0 -0.18171898298E+01  0.10227719409E+03 -0.66087129844E+02  0.12178438053E+03  0.00000000000E+00 0. -1.
</event>
<event>
 7    1  0.5889087E-006  0.1648505E+03  0.7818608E-02  0.1202342E+00
          2   -1    0    0  502    0  0.00000000000E+00  0.00000000000E+00  0.69006597038E+03  0.69006597038E+03  0.00000000000E+00 0. -1.
          1   -1    0    0  501    0 -0.00000000000E+00 -0.00000000000E+00 -0.40573497942E+03  0.40573497942E+03  0.00000000000E+00 0. -1.
         25    2    1    2    0    0  0.11420027273E+03  0.18081771637E+03 -0.27401577235E+02  0.24922168716E+03  0.12499541620E+03 0.  0.
          2    1    1    2  501    0  0.41125180714E+02 -0.12727212936E+03 -0.23789746982E+03  0.27291881860E+03  0.00000000000E+00 0. -1.
          1    1    1    2  502    0 -0.15532545344E+03 -0.53545587016E+02  0.54963003801E+03  0.57366044404E+03  0.00000000000E+00 0. -1.
         22    1    3    3    0    0  0.67197769303E+02  0.11787548482E+03  0.44432566892E+02  0.14277402818E+03  0.00000000000E+00 0. -1.
         22    1    3    3    0    0  0.47002503424E+02  0.62942231550E+02 -0.71834144127E+02  0.10644765898E+03  0.00000000000E+00 0. -1.
</event>
<event>
 7    1  0.5889087E-006  0.4497047E+02  0.7818608E-02  0.1556365E+00
          2   -1    0    0  502    0  0.00000000000E+00  0.00000000000E+00  0.85575692572E+03  0.85575692572E+03  0.00000000000E+00 0. -1.
          1   -1    0    0  501    0 -0.00000000000E+00 -0.00000000000E+00 -0.13057124924E+04  0.13057124924E+04  0.00000000000E+00 0. -1.
         25    2    1    2    0    0  0.64439200291E+01  0.68985255078E+02  0.41035348165E+03  0.43452985285E+03  0.12500289433E+03 0.  0.
          2    1    1    2  501    0  0.30015137283E+01 -0.44848476651E+02 -0.12928457944E+04  0.12936269334E+04  0.00000000000E+00 0. -1.
          1    1    1    2  502    0 -0.94454337574E+01 -0.24136778427E+02  0.43253674600E+03  0.43331263186E+03  0.00000000000E+00 0. -1.
         22    1    3    3    0    0  0.36207920727E+02  0.70860987368E+02  0.12878573595E+03  0.15138711583E+03  0.00000000000E+00 0. -1.
         22    1    3    3    0    0 -0.29764000698E+02 -0.18757322892E+01  0.28156774570E+03  0.28314273702E+03  0.00000000000E+00 0. -1.
</event>
<event>
 7    1  0.5889087E-006  0.6347296E+02  0.7818608E-02  0.1438286E+00
          2   -1    0    0  502    0  0.00000000000E+00  0.00000000000E+00  0.17961088392E+04  0.17961088392E+04  0.00000000000E+00 0. -1.
          1   -1    0    0  501    0 -0.00000000000E+00 -0.00000000000E+00 -0.54198257259E+03  0.54198257259E+03  0.00000000000E+00 0. -1.
         25    2    1    2    0    0 -0.15166241128E+02  0.82165653731E+02  0.25648074236E+03  0.29730238382E+03  0.12500050679E+03 0.  0.
          2    1    1    2  501    0 -0.20033069647E+02 -0.60156892091E+02 -0.51935979333E+03  0.52321579724E+03  0.00000000000E+00 0. -1.
          1    1    1    2  502    0  0.35199310776E+02 -0.22008761640E+02  0.15170053176E+04  0.15175732308E+04  0.00000000000E+00 0. -1.
         22    1    3    3    0    0 -0.39700744133E+02  0.91286568327E+02  0.10940240103E+03  0.14791305552E+03  0.00000000000E+00 0. -1.
         22    1    3    3    0    0  0.24534503005E+02 -0.91209145957E+01  0.14707834133E+03  0.14938932830E+03  0.00000000000E+00 0. -1.
</event>
<event>
 7    1  0.5889087E-006  0.5646938E+02  0.7818608E-02  0.1423816E+00
          2   -1    0    0  502    0  0.00000000000E+00  0.00000000000E+00  0.12302844089E+04  0.12302844089E+04  0.00000000000E+00 0. -1.
          1   -1    0    0  501    0 -0.00000000000E+00 -0.00000000000E+00 -0.23501085755E+03  0.23501085755E+03  0.00000000000E+00 0. -1.
         25    2    1    2    0    0 -0.30006486235E+02 -0.94828592398E+02 -0.99201428151E+02  0.18804104539E+03  0.12500264098E+03 0.  0.
          2    1    1    2  501    0 -0.61809912497E+01  0.51695105456E+02 -0.83247193899E+02  0.98186984234E+02  0.00000000000E+00 0. -1.
          1    1    1    2  502    0  0.36187477484E+02  0.43133486942E+02  0.11777221734E+04  0.11790672368E+04  0.00000000000E+00 0. -1.
         22    1    3    3    0    0  0.12735363489E+02  0.12352780761E+02 -0.65456828969E+02  0.67818707850E+02  0.00000000000E+00 0. -1.
         22    1    3    3    0    0 -0.42741849723E+02 -0.10718137316E+03 -0.33744599182E+02  0.12022233754E+03  0.00000000000E+00 0. -1.
</event>
<event>
 7    1  0.5889087E-006  0.8839289E+02  0.7818608E-02  0.1390977E+00
          2   -1    0    0  502    0  0.00000000000E+00  0.00000000000E+00  0.59311842843E+03  0.59311842843E+03  0.00000000000E+00 0. -1.
          1   -1    0    0  501    0 -0.00000000000E+00 -0.00000000000E+00 -0.27971556254E+03  0.27971556254E+03  0.00000000000E+00 0. -1.
         25    2    1    2    0    0  0.11295798789E+03  0.19529204798E+00  0.12993241882E+03  0.21276333361E+03  0.12500502991E+03 0.  0.
          2    1    1    2  501    0 -0.31691222691E+02  0.29089734744E+02 -0.23187800582E+03  0.23583459425E+03  0.00000000000E+00 0. -1.
          1    1    1    2  502    0 -0.81266765196E+02 -0.29285026792E+02  0.41534845289E+03  0.42423606310E+03  0.00000000000E+00 0. -1.
         22    1    3    3    0    0  0.35308616516E+02  0.40374127738E+02 -0.29301117074E+01  0.53715492602E+02  0.00000000000E+00 0.  1.
         22    1    3    3    0    0  0.77649371372E+02 -0.40178835690E+02  0.13286253053E+03  0.15904784101E+03  0.00000000000E+00 0.  1.
</event>
<event>
 7    1  0.5889087E-006  0.7845760E+02  0.7818608E-02  0.1377664E+00
          2   -1    0    0  502    0  0.00000000000E+00  0.00000000000E+00  0.17603142516E+04  0.17603142516E+04  0.00000000000E+00 0. -1.
          1   -1    0    0  501    0 -0.00000000000E+00 -0.00000000000E+00 -0.45506106653E+03  0.45506106653E+03  0.00000000000E+00 0. -1.
         25    2    1    2    0    0  0.35943213038E+02  0.69997421848E+02  0.67533675478E+02  0.16241180161E+03  0.12500096940E+03 0.  0.
          2    1    1    2  501    0 -0.72875800079E+02 -0.30620681976E+02 -0.40334164951E+03  0.41101459175E+03  0.00000000000E+00 0. -1.
          1    1    1    2  502    0  0.36932587040E+02 -0.39376739872E+02  0.16410611591E+04  0.16419489248E+04  0.00000000000E+00 0. -1.
         22    1    3    3    0    0  0.65702246916E+02  0.81844170063E+02  0.22813915997E+02  0.10740450729E+03  0.00000000000E+00 0. -1.
         22    1    3    3    0    0 -0.29759033878E+02 -0.11846748216E+02  0.44719759481E+02  0.55007294322E+02  0.00000000000E+00 0. -1.
</event>
<event>
 7    1  0.5889087E-006  0.6492050E+02  0.7818608E-02  0.1445014E+00
          2   -1    0    0  502    0  0.00000000000E+00  0.00000000000E+00  0.11603631690E+03  0.11603631690E+03  0.00000000000E+00 0. -1.
          1   -1    0    0  501    0 -0.00000000000E+00 -0.00000000000E+00 -0.18790010870E+04  0.18790010870E+04  0.00000000000E+00 0. -1.
         25    2    1    2    0    0  0.44694862887E+01 -0.68389954240E+02 -0.20777929435E+03  0.25198206434E+03  0.12500225375E+03 0.  0.
          2    1    1    2  501    0  0.32280541561E+02  0.56575630975E+02 -0.16444823492E+04  0.16457718651E+04  0.00000000000E+00 0. -1.
          1    1    1    2  502    0 -0.36750027850E+02  0.11814323266E+02  0.89296873445E+02  0.97283474384E+02  0.00000000000E+00 0. -1.
         22    1    3    3    0    0  0.72214739323E+01  0.33609910612E+02 -0.24501824815E+02  0.42215106258E+02  0.00000000000E+00 0. -1.
         22    1    3    3    0    0 -0.27519876436E+01 -0.10199986485E+03 -0.18327746953E+03  0.20976695809E+03  0.00000000000E+00 0. -1.
</event>
<event>
 7    1  0.5889087E-006  0.1199936E+03  0.7818608E-02  0.1367456E+00
          2   -1    0    0  502    0  0.00000000000E+00  0.00000000000E+00  0.31605768907E+03  0.31605768907E+03  0.00000000000E+00 0. -1.
          1   -1    0    0  501    0 -0.00000000000E+00 -0.00000000000E+00 -0.44887263740E+03  0.44887263740E+03  0.00000000000E+00 0. -1.
         25    2    1    2    0    0 -0.99308319973E+00 -0.15012326129E+03 -0.11245661244E+03  0.22540971896E+03  0.12500028771E+03 0.  0.
          2    1    1    2  501    0  0.18423242695E+02  0.33690605006E+02 -0.26513609572E+03  0.26790226201E+03  0.00000000000E+00 0. -1.
          1    1    1    2  502    0 -0.17430159495E+02  0.11643265629E+03  0.24477775983E+03  0.27161834551E+03  0.00000000000E+00 0. -1.
         22    1    3    3    0    0  0.58560938882E+02 -0.70618227866E+02 -0.77525817812E+02  0.12011065772E+03  0.00000000000E+00 0.  1.
         22    1    3    3    0    0 -0.59554022082E+02 -0.79505033426E+02 -0.34930794628E+02  0.10529906125E+03  0.00000000000E+00 0.  1.
</event>
<event>
 7    1  0.5889087E-006  0.1681157E+03  0.7818608E-02  0.1212354E+00
          2   -1    0    0  502    0  0.00000000000E+00  0.00000000000E+00  0.11086186464E+03  0.11086186464E+03  0.00000000000E+00 0. -1.
          1   -1    0    0  501    0 -0.00000000000E+00 -0.00000000000E+00 -0.10868949380E+04  0.10868949380E+04  0.00000000000E+00 0. -1.
         25    2    1    2    0    0  0.32866221132E+02 -0.12132622907E+03 -0.21494327367E+03  0.27861401111E+03  0.12499965575E+03 0.  0.
          2    1    1    2  501    0 -0.15060413402E+03  0.11750416030E+03 -0.77712407129E+03  0.80025661825E+03  0.00000000000E+00 0. -1.
          1    1    1    2  502    0  0.11773791289E+03  0.38220687747E+01  0.16034271575E+02  0.11888617331E+03  0.00000000000E+00 0. -1.
         22    1    3    3    0    0  0.60208170120E+01 -0.95354473790E+02 -0.46835057273E+02  0.10640605480E+03  0.00000000000E+00 0. -1.
         22    1    3    3    0    0  0.26845404120E+02 -0.25971755282E+02 -0.16810821640E+03  0.17220795631E+03  0.00000000000E+00 0. -1.
</event>
<event>
 7    1  0.5889087E-006  0.5285835E+02  0.7818608E-02  0.1496067E+00
          2   -1    0    0  502    0  0.00000000000E+00  0.00000000000E+00  0.10174124021E+03  0.10174124021E+03  0.00000000000E+00 0. -1.
          1   -1    0    0  501    0 -0.00000000000E+00 -0.00000000000E+00 -0.60735551653E+03  0.60735551653E+03  0.00000000000E+00 0. -1.
         25    2    1    2    0    0  0.21545926809E+02  0.66422769765E+01 -0.12948491452E+03  0.18138458697E+03  0.12500271397E+03 0.  0.
          2    1    1    2  501    0 -0.48706108104E+02 -0.25202163147E+02 -0.44659325958E+03  0.44994774530E+03  0.00000000000E+00 0. -1.
          1    1    1    2  502    0  0.27160181294E+02  0.18559886171E+02  0.70463897782E+02  0.77764424471E+02  0.00000000000E+00 0. -1.
         22    1    3    3    0    0  0.21731155570E+02  0.65047970197E+02 -0.71952608628E+02  0.99401506213E+02  0.00000000000E+00 0. -1.
         22    1    3    3    0    0 -0.18522876067E+00 -0.58405693220E+02 -0.57532305889E+02  0.81983080761E+02  0.00000000000E+00 0. -1.
</event>
<event>
 7    1  0.5889087E-006  0.4853656E+02  0.7818608E-02  0.1500583E+00
          2   -1    0    0  502    0  0.00000000000E+00  0.00000000000E+00  0.11308097269E+04  0.11308097269E+04  0.00000000000E+00 0. -1.
          1   -1    0    0  501    0 -0.00000000000E+00 -0.00000000000E+00 -0.27957505294E+03  0.27957505294E+03  0.00000000000E+00 0. -1.
         25    2    1    2    0    0  0.39080706043E+02 -0.63892171282E+02 -0.13782328471E+03  0.20057452934E+03  0.12500149151E+03 0.  0.
          2    1    1    2  501    0 -0.10776706913E+02  0.43769946628E+02 -0.10548692135E+03  0.11471458589E+03  0.00000000000E+00 0. -1.
          1    1    1    2  502    0 -0.28303999130E+02  0.20122224654E+02  0.10945448800E+04  0.10950956646E+04  0.00000000000E+00 0. -1.
         22    1    3    3    0    0  0.14970385650E+02 -0.48460656732E+02 -0.15774514222E+03  0.16569875555E+03  0.00000000000E+00 0.  1.
         22    1    3    3    0    0  0.24110320393E+02 -0.15431514550E+02  0.19921857514E+02  0.34875773792E+02  0.00000000000E+00 0.  1.
</event>
<event>
 7    1  0.5889087E-006  0.5976206E+02  0.7818608E-02  0.1418227E+00
          2   -1    0    0  502    0  0.00000000000E+00  0.00000000000E+00  0.44634853584E+03  0.44634853584E+03  0.00000000000E+00 0. -1.
          1   -1    0    0  501    0 -0.00000000000E+00 -0.00000000000E+00 -0.45905450536E+03  0.45905450536E+03  0.00000000000E+00 0. -1.
         25    2    1    2    0    0  0.42949999262E+02 -0.71333006649E+02 -0.19402514827E+03  0.24536639414E+03  0.12500323569E+03 0.  0.
          2    1    1    2  501    0 -0.54504980172E+02  0.21297784704E+02 -0.23417766405E+03  0.24137847219E+03  0.00000000000E+00 0. -1.
          1    1    1    2  502    0  0.11554980910E+02  0.50035221945E+02  0.41549684280E+03  0.41865817488E+03  0.00000000000E+00 0. -1.
         22    1    3    3    0    0  0.52356496601E+01 -0.96304320980E+02 -0.89929985477E+02  0.13186863370E+03  0.00000000000E+00 0.  1.
         22    1    3    3    0    0  0.37714349602E+02  0.24971314332E+02 -0.10409516280E+03  0.11349776043E+03  0.00000000000E+00 0.  1.
</event>
<event>
 7    1  0.5889087E-006  0.1079291E+03  0.7818608E-02  0.1304572E+00
          2   -1    0    0  502    0  0.00000000000E+00  0.00000000000E+00  0.31128460613E+03  0.31128460613E+03  0.00000000000E+00 0. -1.
          1   -1    0    0  501    0 -0.00000000000E+00 -0.00000000000E+00 -0.33518490938E+03  0.33518490938E+03  0.00000000000E+00 0. -1.
         25    2    1    2    0    0 -0.94962216932E+02  0.68121947547E+02  0.12849580266E+02  0.17160794074E+03  0.12500300488E+03 0.  0.
          2    1    1    2  501    0  0.10953710352E+03  0.43014687542E+01 -0.23715972896E+03  0.26126924182E+03  0.00000000000E+00 0. -1.
          1    1    1    2  502    0 -0.14574886589E+02 -0.72423416301E+02  0.20040984544E+03  0.21359233295E+03  0.00000000000E+00 0. -1.
         22    1    3    3    0    0 -0.13595636623E+02  0.30067245225E+02  0.61249233116E+02  0.69572617659E+02  0.00000000000E+00 0. -1.
         22    1    3    3    0    0 -0.81366580308E+02  0.38054702321E+02 -0.48399652850E+02  0.10203532308E+03  0.00000000000E+00 0. -1.
</event>
<event>
 7    1  0.5889087E-006  0.1025187E+03  0.7818608E-02  0.1419262E+00
          2   -1    0    0  502    0  0.00000000000E+00  0.00000000000E+00  0.65085372372E+02  0.65085372372E+02  0.00000000000E+00 0. -1.
          1   -1    0    0  501    0 -0.00000000000E+00 -0.00000000000E+00 -0.21121919111E+04  0.21121919111E+04  0.00000000000E+00 0. -1.
         25    2    1    2    0    0  0.77811125406E+02  0.79254127252E+02 -0.13386012766E+04  0.13490047203E+04  0.12499827930E+03 0.  0.
          2    1    1    2  501    0 -0.27917444054E+02  0.10126633824E+02 -0.72411667880E+03  0.72472539414E+03  0.00000000000E+00 0. -1.
          1    1    1    2  502    0 -0.49893681351E+02 -0.89380761076E+02  0.15611416626E+02  0.10354716905E+03  0.00000000000E+00 0. -1.
         22    1    3    3    0    0  0.37882124837E+02  0.78208007441E+02 -0.39005700345E+03  0.39961983654E+03  0.00000000000E+00 0. -1.
         22    1    3    3    0    0  0.39929000569E+02  0.10461198113E+01 -0.94854427313E+03  0.94938488378E+03  0.00000000000E+00 0. -1.
</event>
<event>
 7    1  0.5889087E-006  0.4046504E+02  0.7818608E-02  0.1567530E+00
          2   -1    0    0  502    0  0.00000000000E+00  0.00000000000E+00  0.15133009351E+04  0.15133009351E+04  0.00000000000E+00 0. -1.
          1   -1    0    0  501    0 -0.00000000000E+00 -0.00000000000E+00 -0.18563976099E+03  0.18563976099E+03  0.00000000000E+00 0. -1.
         25    2    1    2    0    0  0.52362861564E+02 -0.98557674123E+01  0.34593755304E+03  0.37168522761E+03  0.12505243859E+03 0.  0.
          2    1    1    2  501    0 -0.21506856925E+02 -0.16060444084E+02 -0.17136929150E+03  0.17345868911E+03  0.00000000000E+00 0. -1.
          1    1    1    2  502    0 -0.30856004639E+02  0.25916211497E+02  0.11530929126E+04  0.11537967794E+04  0.00000000000E+00 0. -1.
         22    1    3    3    0    0  0.84949059906E+02 -0.35587115423E+02  0.26789125932E+03  0.28328168381E+03  0.00000000000E+00 0. -1.
         22    1    3    3    0    0 -0.32586198342E+02  0.25731348010E+02  0.78046293721E+02  0.88403543800E+02  0.00000000000E+00 0. -1.
</event>
<event>
 7    1  0.5889087E-006  0.8497461E+02  0.7818608E-02  0.1382747E+00
          2   -1    0    0  502    0  0.00000000000E+00  0.00000000000E+00  0.17477090297E+02  0.17477090297E+02  0.00000000000E+00 0. -1.
          1   -1    0    0  501    0 -0.00000000000E+00 -0.00000000000E+00 -0.27980730287E+04  0.27980730287E+04  0.00000000000E+00 0. -1.
         25    2    1    2    0    0  0.13943481324E+02  0.50441141301E+02 -0.59143801821E+03  0.60676434068E+03  0.12500122533E+03 0.  0.
          2    1    1    2  501    0  0.24743936218E+02  0.40923570287E+02 -0.19401432584E+04  0.19407325586E+04  0.00000000000E+00 0. -1.
          1    1    1    2  502    0 -0.38687417543E+02 -0.91364711587E+02 -0.24901466182E+03  0.26805321971E+03  0.00000000000E+00 0. -1.
         22    1    3    3    0    0 -0.10428527948E+02 -0.40226094767E+02 -0.17244690622E+03  0.17738328095E+03  0.00000000000E+00 0.  1.
         22    1    3    3    0    0  0.24372009272E+02  0.90667236068E+02 -0.41899111199E+03  0.42938105973E+03  0.00000000000E+00 0.  1.
</event>
<event>
 7    1  0.5889087E-006  0.2078604E+03  0.7818608E-02  0.1298774E+00
          2   -1    0    0  502    0  0.00000000000E+00  0.00000000000E+00  0.90255400825E+03  0.90255400825E+03  0.00000000000E+00 0. -1.
          1   -1    0    0  501    0 -0.00000000000E+00 -0.00000000000E+00 -0.79176552694E+03  0.79176552694E+03  0.00000000000E+00 0. -1.
         25    2    1    2    0    0  0.17775335655E+03  0.14998147611E+03 -0.10925219662E+03  0.28574740803E+03  0.12499935917E+03 0.  0.
          2    1    1    2  501    0 -0.29155181031E+01 -0.40353870713E+02 -0.58047580135E+03  0.58188408732E+03  0.00000000000E+00 0. -1.
          1    1    1    2  502    0 -0.17483783844E+03 -0.10962760540E+03  0.80051647927E+03  0.82668803983E+03  0.00000000000E+00 0. -1.
         22    1    3    3    0    0  0.63561272176E+02 -0.74588629907E+01 -0.28696370316E+01  0.64061726284E+02  0.00000000000E+00 0. -1.
         22    1    3    3    0    0  0.11419208437E+03  0.15744033910E+03 -0.10638255958E+03  0.22168568175E+03  0.00000000000E+00 0. -1.
</event>
<event>
 7    1  0.5889087E-006  0.1168025E+03  0.7818608E-02  0.1324941E+00
          2   -1    0    0  502    0  0.00000000000E+00  0.00000000000E+00  0.11001429447E+04  0.11001429447E+04  0.00000000000E+00 0. -1.
          1   -1    0    0  501    0 -0.00000000000E+00 -0.00000000000E+00 -0.15786511655E+04  0.15786511655E+04  0.00000000000E+00 0. -1.
         25    2    1    2    0    0  0.37387403277E+02  0.11364405021E+03  0.19269145869E+03  0.25897392645E+03  0.12499883302E+03 0.  0.
          2    1    1    2  501    0  0.19409187282E+02 -0.11528604168E+03 -0.15423722407E+04  0.15467965985E+04  0.00000000000E+00 0. -1.
          1    1    1    2  502    0 -0.56796590559E+02  0.16419914720E+01  0.87117256128E+03  0.87302358523E+03  0.00000000000E+00 0. -1.
         22    1    3    3    0    0  0.63928882869E+02  0.37164890935E+02  0.35205820543E+02  0.81899822853E+02  0.00000000000E+00 0. -1.
         22    1    3    3    0    0 -0.26541479593E+02  0.76479159273E+02  0.15748563815E+03  0.17707410360E+03  0.00000000000E+00 0. -1.
</event>
<event>
 7    1  0.5889087E-006  0.1159739E+03  0.7818608E-02  0.1333132E+00
          2   -1    0    0  502    0  0.00000000000E+00  0.00000000000E+00  0.69122874278E+03  0.69122874278E+03  0.00000000000E+00 0. -1.
          1   -1    0    0  501    0 -0.00000000000E+00 -0.00000000000E+00 -0.16472986394E+04  0.16472986394E+04  0.00000000000E+00 0. -1.
         25    2    1    2    0    0  0.79121365190E+02 -0.13269295426E+03  0.13887339145E+03  0.24244196254E+03  0.12499870323E+03 0.  0.
          2    1    1    2  501    0 -0.46613729850E+02  0.25727912830E+02 -0.15888208608E+04  0.15897127077E+04  0.00000000000E+00 0. -1.
          1    1    1    2  502    0 -0.32507635339E+02  0.10696504143E+03  0.49387757279E+03  0.50637271189E+03  0.00000000000E+00 0. -1.
         22    1    3    3    0    0 -0.25350465660E+01 -0.44108965434E+02  0.11001638672E+03  0.11855645339E+03  0.00000000000E+00 0.  1.
         22    1    3    3    0    0  0.81656411756E+02 -0.88583988825E+02  0.28857004727E+02  0.12388550916E+03  0.00000000000E+00 0.  1.
</event>
<event>
 7    1  0.5889087E-006  0.1295468E+03  0.7818608E-02  0.1321091E+00
          2   -1    0    0  502    0  0.00000000000E+00  0.00000000000E+00  0.26975215345E+04  0.26975215345E+04  0.00000000000E+00 0. -1.
          1   -1    0    0  501    0 -0.00000000000E+00 -0.00000000000E+00 -0.85845353727E+03  0.85845353727E+03  0.00000000000E+00 0. -1.
         25    2    1    2    0    0  0.91986055160E+02  0.14108059704E+03  0.51157635760E+03  0.55290194745E+03  0.12500009853E+03 0.  0.
          2    1    1    2  501    0 -0.94518295757E+02 -0.88126402150E+02 -0.83248021952E+03  0.84245076228E+03  0.00000000000E+00 0. -1.
          1    1    1    2  502    0  0.25322405968E+01 -0.52954194894E+02  0.21599718591E+04  0.21606223620E+04  0.00000000000E+00 0. -1.
         22    1    3    3    0    0  0.32612225736E+02  0.25636849235E+02  0.23122699529E+02  0.47491731277E+02  0.00000000000E+00 0.  1.
         22    1    3    3    0    0  0.59373829423E+02  0.11544374781E+03  0.48845365807E+03  0.50541021617E+03  0.00000000000E+00 0.  1.
</event>
<event>
 7    1  0.5889087E-006  0.1106764E+03  0.7818608E-02  0.1347207E+00
          2   -1    0    0  502    0  0.00000000000E+00  0.00000000000E+00  0.71647758659E+03  0.71647758659E+03  0.00000000000E+00 0. -1.
          1   -1    0    0  501    0 -0.00000000000E+00 -0.00000000000E+00 -0.44795839476E+03  0.44795839476E+03  0.00000000000E+00 0. -1.
         25    2    1    2    0    0  0.53627157484E+02  0.11658151885E+03 -0.63183992223E+02  0.18995928391E+03  0.12500076045E+03 0.  0.
          2    1    1    2  501    0 -0.48982634094E+02 -0.63146825915E+01 -0.31478498855E+03  0.31863578373E+03  0.00000000000E+00 0. -1.
          1    1    1    2  502    0 -0.46445233895E+01 -0.11026683626E+03  0.64648817260E+03  0.65584091371E+03  0.00000000000E+00 0. -1.
         22    1    3    3    0    0  0.46788005805E+02  0.93195847898E+02 -0.10086927815E+03  0.14508340645E+03  0.00000000000E+00 0. -1.
         22    1    3    3    0    0  0.68391516784E+01  0.23385670956E+02  0.37685285931E+02  0.44875877456E+02  0.00000000000E+00 0. -1.
</event>
<event>
 7    1  0.5889087E-006  0.5249072E+02  0.7818608E-02  0.1558839E+00
          2   -1    0    0  502    0  0.00000000000E+00  0.00000000000E+00  0.16981567970E+03  0.16981567970E+03  0.00000000000E+00 0. -1.
          1   -1    0    0  501    0 -0.00000000000E+00 -0.00000000000E+00 -0.68234438324E+03  0.68234438324E+03  0.00000000000E+00 0. -1.
         25    2    1    2    0    0  0.21093431324E+01  0.60528366457E+02 -0.44499923783E+02  0.14585584881E+03  0.12500221175E+03 0.  0.
          2    1    1    2  501    0  0.16830948841E+02 -0.49615482166E+02 -0.58498311299E+03  0.58732462862E+03  0.00000000000E+00 0. -1.
          1    1    1    2  502    0 -0.18940291973E+02 -0.10912884290E+02  0.11695433323E+03  0.11897958550E+03  0.00000000000E+00 0. -1.
         22    1    3    3    0    0 -0.35625938357E+02  0.83794604653E+02 -0.44901117654E+02  0.10152267540E+03  0.00000000000E+00 0.  1.
         22    1    3    3    0    0  0.37735281489E+02 -0.23266238197E+02  0.40119387065E+00  0.44333173419E+02  0.00000000000E+00 0.  1.
</event>
<event>
 7    1  0.5889087E-006  0.5782232E+02  0.7818608E-02  0.1521249E+00
          2   -1    0    0  502    0  0.00000000000E+00  0.00000000000E+00  0.84017364256E+03  0.84017364256E+03  0.00000000000E+00 0. -1.
          1   -1    0    0  501    0 -0.00000000000E+00 -0.00000000000E+00 -0.10461592575E+03  0.10461592575E+03  0.00000000000E+00 0. -1.
         25    2    1    2    0    0  0.13186536199E+02 -0.60858868550E+02  0.74702250023E+03  0.75996480292E+03  0.12500479671E+03 0.  0.
          2    1    1    2  501    0  0.19046921491E+02  0.16720653619E+02 -0.87549411990E+02  0.91144199023E+02  0.00000000000E+00 0. -1.
          1    1    1    2  502    0 -0.32233457690E+02  0.44138214931E+02  0.76084628568E+02  0.93680566374E+02  0.00000000000E+00 0. -1.
         22    1    3    3    0    0  0.48078961374E+02 -0.55645369925E+01  0.55519578539E+03  0.55730145408E+03  0.00000000000E+00 0. -1.
         22    1    3    3    0    0 -0.34892425175E+02 -0.55294331557E+02  0.19182671484E+03  0.20266334884E+03  0.00000000000E+00 0. -1.
</event>
<event>
 7    1  0.5889087E-006  0.1494723E+03  0.7818608E-02  0.1320317E+00
          2   -1    0    0  502    0  0.00000000000E+00  0.00000000000E+00  0.37346254094E+03  0.37346254094E+03  0.00000000000E+00 0. -1.
          1   -1    0    0  501    0 -0.00000000000E+00 -0.00000000000E+00 -0.12187049928E+04  0.12187049928E+04  0.00000000000E+00 0. -1.
         25    2    1    2    0    0  0.33467214355E+02  0.10491668685E+03 -0.56049124628E+03  0.58472466746E+03  0.12499973590E+03 0.  0.
          2    1    1    2  501    0  0.36486078749E+02  0.28448591381E+02 -0.62951998131E+03  0.63121784129E+03  0.00000000000E+00 0. -1.
          1    1    1    2  502    0 -0.69953293104E+02 -0.13336527823E+03  0.34476877577E+03  0.37622502495E+03  0.00000000000E+00 0. -1.
         22    1    3    3    0    0  0.48241167235E+02 -0.25036827895E-01 -0.29405056610E+03  0.29798145289E+03  0.00000000000E+00 0. -1.
         22    1    3    3    0    0 -0.14773952880E+02  0.10494172367E+03 -0.26644068017E+03  0.28674321457E+03  0.00000000000E+00 0. -1.
</event>
<event>
 7    1  0.5889087E-006  0.8450007E+02  0.7818608E-02  0.1342366E+00
          2   -1    0    0  502    0  0.00000000000E+00  0.00000000000E+00  0.35109323999E+03  0.35109323999E+03  0.00000000000E+00 0. -1.
          1   -1    0    0  501    0 -0.00000000000E+00 -0.00000000000E+00 -0.38089077858E+03  0.38089077858E+03  0.00000000000E+00 0. -1.
         25    2    1    2    0    0 -0.19269538051E+02  0.12289269903E+03 -0.31552498197E+02  0.17914199383E+03  0.12498945251E+03 0.  0.
          2    1    1    2  501    0 -0.29928150994E+02 -0.76769403390E+02 -0.26509376324E+03  0.27760392438E+03  0.00000000000E+00 0. -1.
          1    1    1    2  502    0  0.49197689045E+02 -0.46123295644E+02  0.26684872284E+03  0.27523810036E+03  0.00000000000E+00 0. -1.
         22    1    3    3    0    0 -0.40638807701E+02  0.13366722377E+03 -0.50564660886E+02  0.14857733452E+03  0.00000000000E+00 0. -1.
         22    1    3    3    0    0  0.21369269649E+02 -0.10774524738E+02  0.19012162688E+02  0.30564659311E+02  0.00000000000E+00 0. -1.
</event>
<event>
 7    1  0.5889087E-006  0.2517068E+02  0.7818608E-02  0.1679063E+00
          2   -1    0    0  502    0  0.00000000000E+00  0.00000000000E+00  0.14933910918E+04  0.14933910918E+04  0.00000000000E+00 0. -1.
          1   -1    0    0  501    0 -0.00000000000E+00 -0.00000000000E+00 -0.66305055276E+02  0.66305055276E+02  0.00000000000E+00 0. -1.
         25    2    1    2    0    0  0.31629182334E+02  0.29337730571E+02  0.12989575946E+04  0.13056710279E+04  0.12499957212E+03 0.  0.
          2    1    1    2  501    0 -0.10047950711E+02 -0.23047612204E+02 -0.59740682118E+02  0.64815915034E+02  0.00000000000E+00 0. -1.
          1    1    1    2  502    0 -0.21581231623E+02 -0.62901183668E+01  0.18786912410E+03  0.18920920416E+03  0.00000000000E+00 0. -1.
         22    1    3    3    0    0 -0.23307048118E+02 -0.32407169519E+02  0.22304593604E+03  0.22658978952E+03  0.00000000000E+00 0.  1.
         22    1    3    3    0    0  0.54936230451E+02  0.61744900090E+02  0.10759116585E+04  0.10790812384E+04  0.00000000000E+00 0.  1.
</event>
<event>
 7    1  0.5889087E-006  0.6127661E+02  0.7818608E-02  0.1475863E+00
          2   -1    0    0  502    0  0.00000000000E+00  0.00000000000E+00  0.37411826019E+03  0.37411826019E+03  0.00000000000E+00 0. -1.
          1   -1    0    0  501    0 -0.00000000000E+00 -0.00000000000E+00 -0.81917700242E+03  0.81917700242E+03  0.00000000000E+00 0. -1.
         25    2    1    2    0    0 -0.65819291940E+02  0.46181141544E+02 -0.19490310681E+03  0.24510602101E+03  0.12499945386E+03 0.  0.
          2    1    1    2  501    0  0.63594808636E+01 -0.32066822524E+02 -0.59604593607E+03  0.59694177439E+03  0.00000000000E+00 0. -1.
          1    1    1    2  502    0  0.59459811076E+02 -0.14114319020E+02  0.34589030065E+03  0.35124746721E+03  0.00000000000E+00 0. -1.
         22    1    3    3    0    0  0.68856482166E+01 -0.21926651440E+02  0.33545553757E+01  0.23225917344E+02  0.00000000000E+00 0. -1.
         22    1    3    3    0    0 -0.72704940156E+02  0.68107792984E+02 -0.19825766218E+03  0.22188010367E+03  0.00000000000E+00 0. -1.
</event>
<event>
 7    1  0.5889087E-006  0.4592793E+02  0.7818608E-02  0.1485884E+00
          2   -1    0    0  502    0  0.00000000000E+00  0.00000000000E+00  0.86263838929E+02  0.86263838929E+02  0.00000000000E+00 0. -1.
          1   -1    0    0  501    0 -0.00000000000E+00 -0.00000000000E+00 -0.14852306757E+04  0.14852306757E+04  0.00000000000E+00 0. -1.
         25    2    1    2    0    0  0.20796164642E+02  0.18934028677E+02 -0.57964408612E+02  0.14062019387E+03  0.12499275321E+03 0.  0.
          2    1    1    2  501    0 -0.43895442570E+02  0.14502091212E+02 -0.13762818696E+04  0.13770580617E+04  0.00000000000E+00 0. -1.
          1    1    1    2  502    0  0.23099277929E+02 -0.33436119889E+02  0.35279441458E+02  0.53816259102E+02  0.00000000000E+00 0. -1.
         22    1    3    3    0    0  0.23885578104E+01  0.53975488784E+02 -0.79067508833E+02  0.95763926146E+02  0.00000000000E+00 0. -1.
         22    1    3    3    0    0  0.18407606831E+02 -0.35041460106E+02  0.21103100221E+02  0.44856267729E+02  0.00000000000E+00 0. -1.
</event>
<event>
 7    1  0.5889087E-006  0.1351242E+03  0.7818608E-02  0.1275286E+00
          2   -1    0    0  502    0  0.00000000000E+00  0.00000000000E+00  0.40300295171E+03  0.40300295171E+03  0.00000000000E+00 0. -1.
          1   -1    0    0  501    0 -0.00000000000E+00 -0.00000000000E+00 -0.10057321560E+04  0.10057321560E+04  0.00000000000E+00 0. -1.
         25    2    1    2    0    0 -0.67054056540E+02 -0.25831703357E+02 -0.17056938979E+02  0.14518824960E+03  0.12500066103E+03 0.  0.
          2    1    1    2  501    0 -0.77399923524E+02 -0.60091199619E+01 -0.90673226802E+03  0.91004959401E+03  0.00000000000E+00 0. -1.
          1    1    1    2  502    0  0.14445398006E+03  0.31840823319E+02  0.32106000271E+03  0.35349726410E+03  0.00000000000E+00 0. -1.
         22    1    3    3    0    0 -0.54152226594E+02  0.30061020976E+02 -0.49500067852E+02  0.79286728679E+02  0.00000000000E+00 0. -1.
         22    1    3    3    0    0 -0.12901829946E+02 -0.55892724333E+02  0.32443128872E+02  0.65901520926E+02  0.00000000000E+00 0. -1.
</event>
<event>
 7    1  0.5889087E-006  0.5729135E+02  0.7818608E-02  0.1513806E+00
          2   -1    0    0  502    0  0.00000000000E+00  0.00000000000E+00  0.30089285057E+03  0.30089285057E+03  0.00000000000E+00 0. -1.
          1   -1    0    0  501    0 -0.00000000000E+00 -0.00000000000E+00 -0.56781457844E+03  0.56781457844E+03  0.00000000000E+00 0. -1.
         25    2    1    2    0    0  0.15005162842E+02  0.78871340557E+02 -0.28489208199E+03  0.32130176225E+03  0.12500192308E+03 0.  0.
          2    1    1    2  501    0 -0.15757363891E+02 -0.21788907687E+02 -0.26113808807E+03  0.26251886038E+03  0.00000000000E+00 0. -1.
          1    1    1    2  502    0  0.75220104933E+00 -0.57082432870E+02  0.27910844219E+03  0.28488680638E+03  0.00000000000E+00 0. -1.
         22    1    3    3    0    0 -0.30121651672E+02  0.95351307195E+02 -0.20474315027E+03  0.22785728706E+03  0.00000000000E+00 0. -1.
         22    1    3    3    0    0  0.45126814514E+02 -0.16479966638E+02 -0.80148931718E+02  0.93444475193E+02  0.00000000000E+00 0. -1.
</event>
<event>
 7    1  0.5889087E-006  0.9824850E+02  0.7818608E-02  0.1374805E+00
          2   -1    0    0  502    0  0.00000000000E+00  0.00000000000E+00  0.93218995741E+03  0.93218995741E+03  0.00000000000E+00 0. -1.
          1   -1    0    0  501    0 -0.00000000000E+00 -0.00000000000E+00 -0.18983916418E+03  0.18983916418E+03  0.00000000000E+00 0. -1.
         25    2    1    2    0    0  0.42663581289E+02  0.36934568161E+02  0.32409619893E+02  0.14092898312E+03  0.12500500521E+03 0.  0.
          2    1    1    2  501    0  0.33657379528E+02  0.28548663122E+02 -0.12890321853E+03  0.13624934903E+03  0.00000000000E+00 0. -1.
          1    1    1    2  502    0 -0.76320960817E+02 -0.65483231283E+02  0.83884439187E+03  0.84485078943E+03  0.00000000000E+00 0. -1.
         22    1    3    3    0    0 -0.24161326748E+02 -0.21288821736E+02  0.40713645466E+02  0.51909388055E+02  0.00000000000E+00 0. -1.
         22    1    3    3    0    0  0.66824908037E+02  0.58223389897E+02 -0.83040255724E+01  0.89019595067E+02  0.00000000000E+00 0. -1.
</event>
<event>
 7    1  0.5889087E-006  0.8695762E+02  0.7818608E-02  0.1335520E+00
          2   -1    0    0  502    0  0.00000000000E+00  0.00000000000E+00  0.52376485013E+03  0.52376485013E+03  0.00000000000E+00 0. -1.
          1   -1    0    0  501    0 -0.00000000000E+00 -0.00000000000E+00 -0.81404719916E+03  0.81404719916E+03  0.00000000000E+00 0. -1.
         25    2    1    2    0    0 -0.57341592135E+02 -0.73110281045E+02  0.12020020609E+03  0.19673991855E+03  0.12500133849E+03 0.  0.
          2    1    1    2  501    0  0.86704232803E+02  0.10071194486E+02 -0.76997924297E+03  0.77491101911E+03  0.00000000000E+00 0. -1.
          1    1    1    2  502    0 -0.29362640667E+02  0.63039086559E+02  0.35949668784E+03  0.36616111163E+03  0.00000000000E+00 0. -1.
         22    1    3    3    0    0 -0.62358588714E+02 -0.60786737109E+02  0.12213168647E+02  0.87936241011E+02  0.00000000000E+00 0. -1.
         22    1    3    3    0    0  0.50169965783E+01 -0.12323543935E+02  0.10798703745E+03  0.10880367754E+03  0.00000000000E+00 0. -1.
</event>
<event>
 7    1  0.5889087E-006  0.7450438E+02  0.7818608E-02  0.1367167E+00
          2   -1    0    0  502    0  0.00000000000E+00  0.00000000000E+00  0.26698735321E+04  0.26698735321E+04  0.00000000000E+00 0. -1.
          1   -1    0    0  501    0 -0.00000000000E+00 -0.00000000000E+00 -0.11756785664E+03  0.11756785664E+03  0.00000000000E+00 0. -1.
         25    2    1    2    0    0  0.10161413413E+03  0.78185968130E+02  0.42793792138E+03  0.46388992844E+03  0.12499809312E+03 0.  0.
          2    1    1    2  501    0 -0.42545713931E+02 -0.59370663268E+02 -0.85706318182E+02  0.11260810986E+03  0.00000000000E+00 0. -1.
          1    1    1    2  502    0 -0.59068420197E+02 -0.18815304862E+02  0.22100740723E+04  0.22109433505E+04  0.00000000000E+00 0. -1.
         22    1    3    3    0    0  0.70715684983E+02  0.61589508754E+02  0.11228269220E+03  0.14629210047E+03  0.00000000000E+00 0. -1.
         22    1    3    3    0    0  0.30898449145E+02  0.16596459376E+02  0.31565522918E+03  0.31759782797E+03  0.00000000000E+00 0. -1.
</event>
<event>
 7    1  0.5889087E-006  0.9140412E+02  0.7818608E-02  0.1424062E+00
          2   -1    0    0  502    0  0.00000000000E+00  0.00000000000E+00  0.10990257320E+04  0.10990257320E+04  0.00000000000E+00 0. -1.
          1   -1    0    0  501    0 -0.00000000000E+00 -0.00000000000E+00 -0.53687748301E+02  0.53687748301E+02  0.00000000000E+00 0. -1.
         25    2    1    2    0    0  0.26674865186E+02  0.55579544509E+02  0.11610597099E+03  0.18140158142E+03  0.12500121216E+03 0.  0.
          2    1    1    2  501    0  0.96244997424E+01  0.30627681328E+02 -0.49282222998E+01  0.32480351505E+02  0.00000000000E+00 0. -1.
          1    1    1    2  502    0 -0.36299364928E+02 -0.86207225837E+02  0.93416023502E+03  0.93883154739E+03  0.00000000000E+00 0. -1.
         22    1    3    3    0    0 -0.22676185268E+02 -0.14076045128E+02  0.87327125745E+02  0.91314682914E+02  0.00000000000E+00 0.  1.
         22    1    3    3    0    0  0.49351050454E+02  0.69655589637E+02  0.28778845244E+02  0.90086898504E+02  0.00000000000E+00 0.  1.
</event>
<event>
 7    1  0.5889087E-006  0.1770080E+03  0.7818608E-02  0.1251210E+00
          2   -1    0    0  502    0  0.00000000000E+00  0.00000000000E+00  0.23195706514E+04  0.23195706514E+04  0.00000000000E+00 0. -1.
          1   -1    0    0  501    0 -0.00000000000E+00 -0.00000000000E+00 -0.30407469180E+04  0.30407469180E+04  0.00000000000E+00 0. -1.
         25    2    1    2    0    0 -0.24582918459E+02  0.23985140469E+03 -0.17233793450E+03  0.32164900693E+03  0.12499881512E+03 0.  0.
          2    1    1    2  501    0 -0.24834746118E+02 -0.70759010110E+02 -0.27897927471E+04  0.27908004539E+04  0.00000000000E+00 0. -1.
          1    1    1    2  502    0  0.49417664576E+02 -0.16909239458E+03  0.22409544149E+04  0.22478681085E+04  0.00000000000E+00 0. -1.
         22    1    3    3    0    0  0.25554986187E+02  0.16629017610E+03 -0.60689314165E+02  0.17885377502E+03  0.00000000000E+00 0.  1.
         22    1    3    3    0    0 -0.50137904645E+02  0.73561228588E+02 -0.11164862033E+03  0.14279523191E+03  0.00000000000E+00 0.  1.
</event>
<event>
 7    1  0.5889087E-006  0.7420521E+02  0.7818608E-02  0.1455612E+00
          2   -1    0    0  502    0  0.00000000000E+00  0.00000000000E+00  0.14996964881E+03  0.14996964881E+03  0.00000000000E+00 0. -1.
          1   -1    0    0  501    0 -0.00000000000E+00 -0.00000000000E+00 -0.81012675221E+03  0.81012675221E+03  0.00000000000E+00 0. -1.
         25    2    1    2    0    0 -0.29866688667E+02 -0.34485468983E+02 -0.74851759606E+03  0.76025337054E+03  0.12500131658E+03 0.  0.
          2    1    1    2  501    0 -0.67721201823E+01 -0.30493967167E+02 -0.40379961941E+02  0.51051787155E+02  0.00000000000E+00 0. -1.
          1    1    1    2  502    0  0.36638808849E+02  0.64979436150E+02  0.12874045460E+03  0.14879124332E+03  0.00000000000E+00 0. -1.
         22    1    3    3    0    0 -0.74280034183E+02  0.18420260982E+01 -0.47562889046E+03  0.48139771289E+03  0.00000000000E+00 0. -1.
         22    1    3    3    0    0  0.44413345516E+02 -0.36327495081E+02 -0.27288870560E+03  0.27885565765E+03  0.00000000000E+00 0. -1.
</event>
<event>
 7    1  0.5889087E-006  0.3100019E+03  0.7818608E-02  0.1276206E+00
          2   -1    0    0  502    0  0.00000000000E+00  0.00000000000E+00  0.11592396962E+04  0.11592396962E+04  0.00000000000E+00 0. -1.
          1   -1    0    0  501    0 -0.00000000000E+00 -0.00000000000E+00 -0.56828738710E+03  0.56828738710E+03  0.00000000000E+00 0. -1.
         25    2    1    2    0    0  0.26752313755E+03 -0.87898946104E+02  0.20009892074E+03  0.36736804870E+03  0.12499940509E+03 0.  0.
          2    1    1    2  501    0 -0.29944128566E+03  0.98207688715E+02 -0.43304818984E+03  0.53557498859E+03  0.00000000000E+00 0. -1.
          1    1    1    2  502    0  0.31918148106E+02 -0.10308742610E+02  0.82390157820E+03  0.82458404599E+03  0.00000000000E+00 0. -1.
         22    1    3    3    0    0  0.16757255681E+03 -0.34948272848E+02  0.18697568730E+03  0.25349921343E+03  0.00000000000E+00 0.  1.
         22    1    3    3    0    0  0.99950580745E+02 -0.52950673256E+02  0.13123233440E+02  0.11386883527E+03  0.00000000000E+00 0.  1.
</event>
<event>
 7    1  0.5889087E-006  0.1171280E+03  0.7818608E-02  0.1326732E+00
          2   -1    0    0  502    0  0.00000000000E+00  0.00000000000E+00  0.29682463944E+03  0.29682463944E+03  0.00000000000E+00 0. -1.
          1   -1    0    0  501    0 -0.00000000000E+00 -0.00000000000E+00 -0.29664718689E+03  0.29664718689E+03  0.00000000000E+00 0. -1.
         25    2    1    2    0    0  0.68429864769E+02  0.86006245495E+02  0.16325114441E+02  0.16724620724E+03  0.12500025528E+03 0.  0.
          2    1    1    2  501    0 -0.11003594479E+03 -0.48866550300E+02 -0.20036214974E+03  0.23375380196E+03  0.00000000000E+00 0. -1.
          1    1    1    2  502    0  0.41606080017E+02 -0.37139695195E+02  0.18421448785E+03  0.19247181713E+03  0.00000000000E+00 0. -1.
         22    1    3    3    0    0  0.73220820435E+02  0.38421160753E+02 -0.41243038799E+02  0.92403800724E+02  0.00000000000E+00 0. -1.
         22    1    3    3    0    0 -0.47909556669E+01  0.47585084742E+02  0.57568153239E+02  0.74842406519E+02  0.00000000000E+00 0. -1.
</event>
<event>
 7    1  0.5889087E-006  0.7185933E+02  0.7818608E-02  0.1392926E+00
          2   -1    0    0  502    0  0.00000000000E+00  0.00000000000E+00  0.57411468686E+03  0.57411468686E+03  0.00000000000E+00 0. -1.
          1   -1    0    0  501    0 -0.00000000000E+00 -0.00000000000E+00 -0.90643981691E+02  0.90643981691E+02  0.00000000000E+00 0. -1.
         25    2    1    2    0    0  0.23327205814E+02  0.11351019315E+02  0.37999769885E+03  0.40086916390E+03  0.12499932508E+03 0.  0.
          2    1    1    2  501    0 -0.74100966172E+02  0.31075899158E+00 -0.58076148225E+02  0.94148227554E+02  0.00000000000E+00 0. -1.
          1    1    1    2  502    0  0.50773760359E+02 -0.11661778307E+02  0.16154915455E+03  0.16974127710E+03  0.00000000000E+00 0. -1.
         22    1    3    3    0    0  0.72792691898E+01 -0.48016557790E+02  0.72372881283E+02  0.87157395138E+02  0.00000000000E+00 0.  1.
         22    1    3    3    0    0  0.16047936624E+02  0.59367577105E+02  0.30762481756E+03  0.31371176877E+03  0.00000000000E+00 0.  1.
</event>
<event>
 7    1  0.5889087E-006  0.1574338E+03  0.7818608E-02  0.1216845E+00
          2   -1    0    0  502    0  0.00000000000E+00  0.00000000000E+00  0.27168549168E+04  0.27168549168E+04  0.00000000000E+00 0. -1.
          1   -1    0    0  501    0 -0.00000000000E+00 -0.00000000000E+00 -0.41978698293E+03  0.41978698293E+03  0.00000000000E+00 0. -1.
         25    2    1    2    0    0  0.27353431959E+03 -0.11097848426E+02  0.16006387013E+03  0.34086824087E+03  0.12500611538E+03 0.  0.
          2    1    1    2  501    0 -0.11989832334E+03 -0.34555125048E+01 -0.31595894206E+03  0.33796094682E+03  0.00000000000E+00 0. -1.
          1    1    1    2  502    0 -0.15363599625E+03  0.14553360931E+02  0.24529630058E+04  0.24578127120E+04  0.00000000000E+00 0. -1.
         22    1    3    3    0    0  0.21355414563E+03  0.49610969105E+01  0.57907802741E+02  0.22132170977E+03  0.00000000000E+00 0. -1.
         22    1    3    3    0    0  0.59980173958E+02 -0.16058945337E+02  0.10215606739E+03  0.11954653110E+03  0.00000000000E+00 0. -1.
</event>
<event>
 7    1  0.5889087E-006  0.7741644E+02  0.7818608E-02  0.1393074E+00
          2   -1    0    0  502    0  0.00000000000E+00  0.00000000000E+00  0.73964630533E+03  0.73964630533E+03  0.00000000000E+00 0. -1.
          1   -1    0    0  501    0 -0.00000000000E+00 -0.00000000000E+00 -0.38317663503E+03  0.38317663503E+03  0.00000000000E+00 0. -1.
         25    2    1    2    0    0  0.43731539237E+02  0.80912846629E+02  0.22462781220E+02  0.15680727761E+03  0.12499843798E+03 0.  0.
          2    1    1    2  501    0  0.23313875045E+02 -0.42299724751E+02 -0.31183636138E+03  0.31555462247E+03  0.00000000000E+00 0. -1.
          1    1    1    2  502    0 -0.67045414282E+02 -0.38613121878E+02  0.64584325046E+03  0.65046104028E+03  0.00000000000E+00 0. -1.
         22    1    3    3    0    0  0.36113809326E+02 -0.49678616458E+01  0.53871674805E+02  0.65046477381E+02  0.00000000000E+00 0.  1.
         22    1    3    3    0    0  0.76177299103E+01  0.85880708275E+02 -0.31408893585E+02  0.91760800231E+02  0.00000000000E+00 0.  1.
</event>
<event>
 7    1  0.5889087E-006  0.5649451E+02  0.7818608E-02  0.1424485E+00
          2   -1    0    0  502    0  0.00000000000E+00  0.00000000000E+00  0.57563852316E+03  0.57563852316E+03  0.00000000000E+00 0. -1.
          1   -1    0    0  501    0 -0.00000000000E+00 -0.00000000000E+00 -0.18609820908E+03  0.18609820908E+03  0.00000000000E+00 0. -1.
         25    2    1    2    0    0 -0.10905042066E+02 -0.41869716103E+02 -0.47213686193E+02  0.14044176207E+03  0.12499105288E+03 0.  0.
          2    1    1    2  501    0 -0.40398083941E+02  0.48841113507E+02 -0.79936913858E+02  0.10201651705E+03  0.00000000000E+00 0. -1.
          1    1    1    2  502    0  0.51303126007E+02 -0.69713974044E+01  0.51669091413E+03  0.51927845311E+03  0.00000000000E+00 0. -1.
         22    1    3    3    0    0  0.11602614067E+02 -0.15426793173E+02  0.41175800191E+02  0.45475852078E+02  0.00000000000E+00 0.  1.
         22    1    3    3    0    0 -0.22507656134E+02 -0.26442922930E+02 -0.88389486384E+02  0.94965909994E+02  0.00000000000E+00 0.  1.
</event>
<event>
 7    1  0.5889087E-006  0.1023784E+03  0.7818608E-02  0.1455454E+00
          2   -1    0    0  502    0  0.00000000000E+00  0.00000000000E+00  0.54399985457E+03  0.54399985457E+03  0.00000000000E+00 0. -1.
          1   -1    0    0  501    0 -0.00000000000E+00 -0.00000000000E+00 -0.12320179815E+03  0.12320179815E+03  0.00000000000E+00 0. -1.
         25    2    1    2    0    0  0.72190642622E+01 -0.11190519046E+03  0.39550537874E+03  0.42967544664E+03  0.12498639245E+03 0.  0.
          2    1    1    2  501    0 -0.12585809910E+02  0.18851839527E+02 -0.87969405058E+02  0.90842780070E+02  0.00000000000E+00 0. -1.
          1    1    1    2  502    0  0.53667456478E+01  0.93053350929E+02  0.11326208274E+03  0.14668342600E+03  0.00000000000E+00 0. -1.
         22    1    3    3    0    0 -0.13055923353E+02 -0.13314979216E+03  0.35702649615E+03  0.38127056435E+03  0.00000000000E+00 0. -1.
         22    1    3    3    0    0  0.20274987615E+02  0.21244601709E+02  0.38478882589E+02  0.48404882294E+02  0.00000000000E+00 0. -1.
</event>
<event>
 7    1  0.5889087E-006  0.7708982E+02  0.7818608E-02  0.1347359E+00
          2   -1    0    0  502    0  0.00000000000E+00  0.00000000000E+00  0.93471304308E+02  0.93471304308E+02  0.00000000000E+00 0. -1.
          1   -1    0    0  501    0 -0.00000000000E+00 -0.00000000000E+00 -0.35726003161E+04  0.35726003161E+04  0.00000000000E+00 0. -1.
         25    2    1    2    0    0 -0.14552357759E+03  0.87992922943E+01 -0.17752512758E+03  0.26152461303E+03  0.12500165247E+03 0.  0.
          2    1    1    2  501    0  0.74957234296E+02 -0.14706021410E+02 -0.33280723698E+04  0.33289488660E+04  0.00000000000E+00 0. -1.
          1    1    1    2  502    0  0.70566343295E+02  0.59067291155E+01  0.26468485539E+02  0.75598141390E+02  0.00000000000E+00 0. -1.
         22    1    3    3    0    0 -0.11679046649E+03 -0.48050016557E+02 -0.99346494092E+02  0.16068149564E+03  0.00000000000E+00 0. -1.
         22    1    3    3    0    0 -0.28733111101E+02  0.56849308851E+02 -0.78178633483E+02  0.10084311738E+03  0.00000000000E+00 0. -1.
</event>
<event>
 7    1  0.5889087E-006  0.8089838E+02  0.7818608E-02  0.1336103E+00
          2   -1    0    0  502    0  0.00000000000E+00  0.00000000000E+00  0.39852595284E+03  0.39852595284E+03  0.00000000000E+00 0. -1.
          1   -1    0    0  501    0 -0.00000000000E+00 -0.00000000000E+00 -0.89120908610E+03  0.89120908610E+03  0.00000000000E+00 0. -1.
         25    2    1    2    0    0 -0.10429154314E+02  0.11090384646E+02  0.33016183013E+02  0.13017608108E+03  0.12499591935E+03 0.  0.
          2    1    1    2  501    0 -0.58767166536E+02 -0.55596477846E+02 -0.83530239613E+03  0.83921072514E+03  0.00000000000E+00 0. -1.
          1    1    1    2  502    0  0.69196320849E+02  0.44506093199E+02  0.30960307985E+03  0.32034823272E+03  0.00000000000E+00 0. -1.
         22    1    3    3    0    0  0.19520843283E+02 -0.50206995947E+02 -0.11400525536E+01  0.53880474054E+02  0.00000000000E+00 0. -1.
         22    1    3    3    0    0 -0.29949997597E+02  0.61297380593E+02  0.34156235566E+02  0.76295607027E+02  0.00000000000E+00 0. -1.
</event>
<event>
 7    1  0.5889087E-006  0.8130057E+02  0.7818608E-02  0.1392846E+00
          2   -1    0    0  502    0  0.00000000000E+00  0.00000000000E+00  0.69781208276E+02  0.69781208276E+02  0.00000000000E+00 0. -1.
          1   -1    0    0  501    0 -0.00000000000E+00 -0.00000000000E+00 -0.99621841534E+03  0.99621841534E+03  0.00000000000E+00 0. -1.
         25    2    1    2    0    0  0.34808880282E+02  0.54235360310E+02 -0.15129845723E+03  0.20658028458E+03  0.12502423110E+03 0.  0.
          2    1    1    2  501    0 -0.31779230853E+02  0.33362450884E+02 -0.77025641389E+03  0.77163327804E+03  0.00000000000E+00 0. -1.
          1    1    1    2  502    0 -0.30296494289E+01 -0.87597811193E+02 -0.48823359455E+01  0.87786060999E+02  0.00000000000E+00 0. -1.
         22    1    3    3    0    0 -0.46664077330E+02  0.10125494560E+02 -0.57484005766E+02  0.74729329397E+02  0.00000000000E+00 0. -1.
         22    1    3    3    0    0  0.81472957612E+02  0.44109865749E+02 -0.93814451465E+02  0.13185095518E+03  0.00000000000E+00 0. -1.
</event>
<event>
 7    1  0.5889087E-006  0.5042240E+02  0.7818608E-02  0.1485831E+00
          2   -1    0    0  502    0  0.00000000000E+00  0.00000000000E+00  0.15394791362E+04  0.15394791362E+04  0.00000000000E+00 0. -1.
          1   -1    0    0  501    0 -0.00000000000E+00 -0.00000000000E+00 -0.47119754108E+02  0.47119754108E+02  0.00000000000E+00 0. -1.
         25    2    1    2    0    0  0.48233086885E+01 -0.77653074635E+02  0.44042825567E+03  0.46438706261E+03  0.12500012489E+03 0.  0.
          2    1    1    2  501    0 -0.21573161664E+02  0.44627144901E+02 -0.17179079321E+02  0.52460500689E+02  0.00000000000E+00 0. -1.
          1    1    1    2  502    0  0.16749852975E+02  0.33025929734E+02  0.10691102057E+04  0.10697513270E+04  0.00000000000E+00 0. -1.
         22    1    3    3    0    0 -0.46742046704E+02  0.70030083144E+01  0.16637655617E+03  0.17295958920E+03  0.00000000000E+00 0. -1.
         22    1    3    3    0    0  0.51565355392E+02 -0.84656082949E+02  0.27405169950E+03  0.29142747341E+03  0.00000000000E+00 0. -1.
</event>
<event>
 7    1  0.5889087E-006  0.1019145E+03  0.7818608E-02  0.1321192E+00
          2   -1    0    0  502    0  0.00000000000E+00  0.00000000000E+00  0.12728736769E+04  0.12728736769E+04  0.00000000000E+00 0. -1.
          1   -1    0    0  501    0 -0.00000000000E+00 -0.00000000000E+00 -0.28424145215E+02  0.28424145215E+02  0.00000000000E+00 0. -1.
         25    2    1    2    0    0 -0.29584626949E+02  0.77712691723E+02  0.46658953952E+03  0.49014627108E+03  0.12499222397E+03 0.  0.
          2    1    1    2  501    0 -0.65696464499E+02 -0.14733440217E+02  0.82558231119E+02  0.10653150348E+03  0.00000000000E+00 0. -1.
          1    1    1    2  502    0  0.95281091447E+02 -0.62979251506E+02  0.69530176104E+03  0.70462004756E+03  0.00000000000E+00 0. -1.
         22    1    3    3    0    0  0.24326034246E+02  0.79445461750E+02  0.37285655807E+03  0.38200176731E+03  0.00000000000E+00 0. -1.
         22    1    3    3    0    0 -0.53910661195E+02 -0.17327700268E+01  0.93732981450E+02  0.10814450376E+03  0.00000000000E+00 0. -1.
</event>
<event>
 7    1  0.5889087E-006  0.3216549E+03  0.7818608E-02  0.1201927E+00
          2   -1    0    0  502    0  0.00000000000E+00  0.00000000000E+00  0.11627968704E+04  0.11627968704E+04  0.00000000000E+00 0. -1.
          1   -1    0    0  501    0 -0.00000000000E+00 -0.00000000000E+00 -0.16137780353E+04  0.16137780353E+04  0.00000000000E+00 0. -1.
         25    2    1    2    0    0 -0.33731309832E+03 -0.56206245619E+02  0.35177247080E+03  0.50626941906E+03  0.12500234045E+03 0.  0.
          2    1    1    2  501    0  0.30013291799E+03  0.11416266445E+03 -0.15180813580E+04  0.15516713221E+04  0.00000000000E+00 0. -1.
          1    1    1    2  502    0  0.37180180333E+02 -0.57956418830E+02  0.71532772221E+03  0.71863416455E+03  0.00000000000E+00 0. -1.
         22    1    3    3    0    0 -0.15938838706E+03 -0.62829500943E+02  0.24401086486E+03  0.29815014052E+03  0.00000000000E+00 0. -1.
         22    1    3    3    0    0 -0.17792471126E+03  0.66232553241E+01  0.10776160594E+03  0.20811927855E+03  0.00000000000E+00 0. -1.
</event>
<event>
 7    1  0.5889087E-006  0.4697896E+02  0.7818608E-02  0.1470022E+00
          2   -1    0    0  502    0  0.00000000000E+00  0.00000000000E+00  0.34816519084E+04  0.34816519084E+04  0.00000000000E+00 0. -1.
          1   -1    0    0  501    0 -0.00000000000E+00 -0.00000000000E+00 -0.99452807283E+02  0.99452807283E+02  0.00000000000E+00 0. -1.
         25    2    1    2    0    0  0.16957447547E+01 -0.16267771998E+02  0.30546923181E+03  0.33045103231E+03  0.12497566650E+03 0.  0.
          2    1    1    2  501    0 -0.46029246390E+02  0.12985610770E+02 -0.80217930869E+02  0.93392901460E+02  0.00000000000E+00 0. -1.
          1    1    1    2  502    0  0.44333501636E+02  0.32821612276E+01  0.31569478002E+04  0.31572607819E+04  0.00000000000E+00 0. -1.
         22    1    3    3    0    0 -0.26232725165E+02  0.30023230662E+02  0.30447303880E+02  0.50165611354E+02  0.00000000000E+00 0. -1.
         22    1    3    3    0    0  0.27928469919E+02 -0.46291002660E+02  0.27502192793E+03  0.28028542096E+03  0.00000000000E+00 0. -1.
</event>
<event>
 7    1  0.5889087E-006  0.5658141E+02  0.7818608E-02  0.1436373E+00
          2   -1    0    0  502    0  0.00000000000E+00  0.00000000000E+00  0.39215607491E+03  0.39215607491E+03  0.00000000000E+00 0. -1.
          1   -1    0    0  501    0 -0.00000000000E+00 -0.00000000000E+00 -0.32832568120E+03  0.32832568120E+03  0.00000000000E+00 0. -1.
         25    2    1    2    0    0  0.12426528192E+02 -0.85477309684E+01  0.10212145861E+03  0.16211793228E+03  0.12500379735E+03 0.  0.
          2    1    1    2  501    0 -0.14202989145E+02  0.55757228705E+02 -0.29336376921E+03  0.29895299720E+03  0.00000000000E+00 0. -1.
          1    1    1    2  502    0  0.17764609533E+01 -0.47209497736E+02  0.25507270430E+03  0.25941082663E+03  0.00000000000E+00 0. -1.
         22    1    3    3    0    0 -0.50485033368E+02 -0.17180732574E+02  0.17106122306E+02  0.56004781816E+02  0.00000000000E+00 0. -1.
         22    1    3    3    0    0  0.62911561560E+02  0.86330016054E+01  0.85015336305E+02  0.10611315047E+03  0.00000000000E+00 0. -1.
</event>
<event>
 7    1  0.5889087E-006  0.4120602E+02  0.7818608E-02  0.1502812E+00
          2   -1    0    0  502    0  0.00000000000E+00  0.00000000000E+00  0.19282295830E+03  0.19282295830E+03  0.00000000000E+00 0. -1.
          1   -1    0    0  501    0 -0.00000000000E+00 -0.00000000000E+00 -0.30381332722E+03  0.30381332722E+03  0.00000000000E+00 0. -1.
         25    2    1    2    0    0  0.62886093884E+02  0.21150611492E+02 -0.34495100233E+02  0.14568217441E+03  0.12502549672E+03 0.  0.
          2    1    1    2  501    0 -0.23771465632E+02 -0.32524737861E+02 -0.20873272524E+03  0.21258478717E+03  0.00000000000E+00 0. -1.
          1    1    1    2  502    0 -0.39114628252E+02  0.11374126369E+02  0.13223745655E+03  0.13836932395E+03  0.00000000000E+00 0. -1.
         22    1    3    3    0    0 -0.79642427325E+01  0.52343980081E+02 -0.42448402945E+02  0.67861537896E+02  0.00000000000E+00 0. -1.
         22    1    3    3    0    0  0.70850336617E+02 -0.31193368589E+02  0.79533027118E+01  0.77820636509E+02  0.00000000000E+00 0. -1.
</event>
<event>
 7    1  0.5889087E-006  0.5715425E+02  0.7818608E-02  0.1471585E+00
          2   -1    0    0  502    0  0.00000000000E+00  0.00000000000E+00  0.14178315346E+03  0.14178315346E+03  0.00000000000E+00 0. -1.
          1   -1    0    0  501    0 -0.00000000000E+00 -0.00000000000E+00 -0.56597214573E+03  0.56597214573E+03  0.00000000000E+00 0. -1.
         25    2    1    2    0    0 -0.61436609150E+02 -0.55277625762E+02 -0.37915662254E+03  0.40769332051E+03  0.12499610521E+03 0.  0.
          2    1    1    2  501    0  0.35848082280E+02  0.45372141051E+01 -0.16415174376E+03  0.16808172505E+03  0.00000000000E+00 0. -1.
          1    1    1    2  502    0  0.25588526870E+02  0.50740411657E+02  0.11911937403E+03  0.13198025364E+03  0.00000000000E+00 0. -1.
         22    1    3    3    0    0 -0.71798092951E+01 -0.60038748513E+02 -0.32609558988E+03  0.33165423972E+03  0.00000000000E+00 0.  1.
         22    1    3    3    0    0 -0.54256799855E+02  0.47611227507E+01 -0.53061032658E+02  0.76039080788E+02  0.00000000000E+00 0.  1.
</event>
<event>
 7    1  0.5889087E-006  0.3243128E+02  0.7818608E-02  0.1635120E+00
          2   -1    0    0  502    0  0.00000000000E+00  0.00000000000E+00  0.87775260207E+03  0.87775260207E+03  0.00000000000E+00 0. -1.
          1   -1    0    0  501    0 -0.00000000000E+00 -0.00000000000E+00 -0.32268291022E+02  0.32268291022E+02  0.00000000000E+00 0. -1.
         25    2    1    2    0    0 -0.20194853693E+02  0.98979869832E+00  0.25222039873E+03  0.28222860643E+03  0.12501617868E+03 0.  0.
          2    1    1    2  501    0 -0.54897768581E+01 -0.21626323530E+02 -0.94122074882E+01  0.24216217070E+02  0.00000000000E+00 0. -1.
          1    1    1    2  502    0  0.25684630551E+02  0.20636524832E+02  0.60267611981E+03  0.60357606960E+03  0.00000000000E+00 0. -1.
         22    1    3    3    0    0  0.11653968862E+02 -0.38527716484E+02  0.21638866777E+03  0.22010055763E+03  0.00000000000E+00 0. -1.
         22    1    3    3    0    0 -0.31848822555E+02  0.39517515182E+02  0.35831730961E+02  0.62128048802E+02  0.00000000000E+00 0. -1.
</event>
<event>
 7    1  0.5889087E-006  0.7137126E+02  0.7818608E-02  0.1525112E+00
          2   -1    0    0  502    0  0.00000000000E+00  0.00000000000E+00  0.42473326078E+03  0.42473326078E+03  0.00000000000E+00 0. -1.
          1   -1    0    0  501    0 -0.00000000000E+00 -0.00000000000E+00 -0.21778180101E+03  0.21778180101E+03  0.00000000000E+00 0. -1.
         25    2    1    2    0    0  0.82440939120E+02 -0.20169318044E+02 -0.29938387765E+01  0.15111888172E+03  0.12499857402E+03 0.  0.
          2    1    1    2  501    0 -0.11745388317E+02  0.16202864498E+02 -0.13641364557E+03  0.13787374537E+03  0.00000000000E+00 0. -1.
          1    1    1    2  502    0 -0.70695550804E+02  0.39664535462E+01  0.34635894412E+03  0.35352243469E+03  0.00000000000E+00 0. -1.
         22    1    3    3    0    0  0.65343006886E+02  0.46460732103E+02  0.10979973555E+02  0.80925076433E+02  0.00000000000E+00 0.  1.
         22    1    3    3    0    0  0.17097932235E+02 -0.66630050148E+02 -0.13973812331E+02  0.70193805285E+02  0.00000000000E+00 0.  1.
</event>
<event>
 7    1  0.5889087E-006  0.1247017E+03  0.7818608E-02  0.1360783E+00
          2   -1    0    0  502    0  0.00000000000E+00  0.00000000000E+00  0.96904838481E+02  0.96904838481E+02  0.00000000000E+00 0. -1.
          1   -1    0    0  501    0 -0.00000000000E+00 -0.00000000000E+00 -0.87287919335E+03  0.87287919335E+03  0.00000000000E+00 0. -1.
         25    2    1    2    0    0  0.11074586536E+03  0.11305398636E+03 -0.32506862761E+03  0.38254615928E+03  0.12500440312E+03 0.  0.
          2    1    1    2  501    0 -0.30898489670E+02 -0.23905870134E+02 -0.46508431864E+03  0.46672222010E+03  0.00000000000E+00 0. -1.
          1    1    1    2  502    0 -0.79847375693E+02 -0.89148116225E+02  0.14178591381E+02  0.12051565245E+03  0.00000000000E+00 0. -1.
         22    1    3    3    0    0 -0.66682193395E+01 -0.21778068342E+02 -0.40815104298E+02  0.46739941686E+02  0.00000000000E+00 0. -1.
         22    1    3    3    0    0  0.11741408470E+03  0.13483205470E+03 -0.28425352331E+03  0.33580621760E+03  0.00000000000E+00 0. -1.
</event>
<event>
 7    1  0.5889087E-006  0.1502614E+03  0.7818608E-02  0.1253297E+00
          2   -1    0    0  502    0  0.00000000000E+00  0.00000000000E+00  0.90631833790E+03  0.90631833790E+03  0.00000000000E+00 0. -1.
          1   -1    0    0  501    0 -0.00000000000E+00 -0.00000000000E+00 -0.11125910952E+04  0.11125910952E+04  0.00000000000E+00 0. -1.
         25    2    1    2    0    0 -0.11097564701E+03  0.14679609251E+03  0.40104237522E+03  0.45861123641E+03  0.12499836970E+03 0.  0.
          2    1    1    2  501    0 -0.17653476762E+02 -0.84703834469E+02 -0.10713194737E+04  0.10748077965E+04  0.00000000000E+00 0. -1.
          1    1    1    2  502    0  0.12862912377E+03 -0.62092258044E+02  0.46400434118E+03  0.48549040014E+03  0.00000000000E+00 0. -1.
         22    1    3    3    0    0 -0.10799116064E+03  0.12753474365E+03  0.21874815934E+03  0.27527796648E+03  0.00000000000E+00 0. -1.
         22    1    3    3    0    0 -0.29844863694E+01  0.19261348865E+02  0.18229421588E+03  0.18333326993E+03  0.00000000000E+00 0. -1.
</event>
<event>
 7    1  0.5889087E-006  0.6175580E+02  0.7818608E-02  0.1422468E+00
          2   -1    0    0  502    0  0.00000000000E+00  0.00000000000E+00  0.71590522250E+03  0.71590522250E+03  0.00000000000E+00 0. -1.
          1   -1    0    0  501    0 -0.00000000000E+00 -0.00000000000E+00 -0.15926608098E+04  0.15926608098E+04  0.00000000000E+00 0. -1.
         25    2    1    2    0    0  0.17351726733E+02 -0.20786073343E+02 -0.18146359248E+03  0.22200173073E+03  0.12499035878E+03 0.  0.
          2    1    1    2  501    0 -0.63011900877E+02  0.56597263958E+01 -0.13893759667E+04  0.13908156273E+04  0.00000000000E+00 0. -1.
          1    1    1    2  502    0  0.45660174144E+02  0.15126346947E+02  0.69408397185E+03  0.69574867435E+03  0.00000000000E+00 0. -1.
         22    1    3    3    0    0  0.45557412693E+02 -0.48446821189E+02 -0.16730188604E+03  0.18003470057E+03  0.00000000000E+00 0. -1.
         22    1    3    3    0    0 -0.28205685960E+02  0.27660747846E+02 -0.14161706433E+02  0.41967030166E+02  0.00000000000E+00 0. -1.
</event>
<event>
 7    1  0.5889087E-006  0.8521342E+02  0.7818608E-02  0.1427845E+00
          2   -1    0    0  502    0  0.00000000000E+00  0.00000000000E+00  0.97619629141E+03  0.97619629141E+03  0.00000000000E+00 0. -1.
          1   -1    0    0  501    0 -0.00000000000E+00 -0.00000000000E+00 -0.19919219549E+02  0.19919219549E+02  0.00000000000E+00 0. -1.
         25    2    1    2    0    0 -0.20247500545E+02 -0.86571431907E+02  0.44586157917E+03  0.47151864501E+03  0.12503083904E+03 0.  0.
          2    1    1    2  501    0  0.49137803371E+02  0.69696911240E+02  0.31505649612E+03  0.32639359507E+03  0.00000000000E+00 0. -1.
          1    1    1    2  502    0 -0.28890302826E+02  0.16874520667E+02  0.19535899657E+03  0.19820327087E+03  0.00000000000E+00 0. -1.
         22    1    3    3    0    0 -0.36213213031E+02  0.19152339657E+02  0.18718078320E+03  0.19161120665E+03  0.00000000000E+00 0. -1.
         22    1    3    3    0    0  0.15965712486E+02 -0.10572377156E+03  0.25868079597E+03  0.27990743837E+03  0.00000000000E+00 0. -1.
</event>
<event>
 7    1  0.5889087E-006  0.1321762E+03  0.7818608E-02  0.1315736E+00
          2   -1    0    0  502    0  0.00000000000E+00  0.00000000000E+00  0.59704262943E+03  0.59704262943E+03  0.00000000000E+00 0. -1.
          1   -1    0    0  501    0 -0.00000000000E+00 -0.00000000000E+00 -0.14915585631E+04  0.14915585631E+04  0.00000000000E+00 0. -1.
         25    2    1    2    0    0 -0.60616288731E+02 -0.17359964843E+03 -0.56857683932E+03  0.61050472872E+03  0.12500091674E+03 0.  0.
          2    1    1    2  501    0  0.29588669778E+02  0.45783883301E+02 -0.89366893064E+03  0.89533000114E+03  0.00000000000E+00 0. -1.
          1    1    1    2  502    0  0.31027618953E+02  0.12781576513E+03  0.56772983631E+03  0.58276646265E+03  0.00000000000E+00 0. -1.
         22    1    3    3    0    0 -0.37233770340E+01 -0.13615054230E+03 -0.24966200715E+03  0.28439752376E+03  0.00000000000E+00 0. -1.
         22    1    3    3    0    0 -0.56892911697E+02 -0.37449106131E+02 -0.31891483218E+03  0.32610720497E+03  0.00000000000E+00 0. -1.
</event>
<event>
 7    1  0.5889087E-006  0.6249691E+02  0.7818608E-02  0.1450516E+00
          2   -1    0    0  502    0  0.00000000000E+00  0.00000000000E+00  0.82552308187E+03  0.82552308187E+03  0.00000000000E+00 0. -1.
          1   -1    0    0  501    0 -0.00000000000E+00 -0.00000000000E+00 -0.34185937405E+03  0.34185937405E+03  0.00000000000E+00 0. -1.
         25    2    1    2    0    0 -0.36938710109E+02 -0.24779970877E+02 -0.23218942924E+03  0.26742412801E+03  0.12500087172E+03 0.  0.
          2    1    1    2  501    0 -0.25562424348E+02  0.28790948436E+02 -0.86752744522E+02  0.94912564671E+02  0.00000000000E+00 0. -1.
          1    1    1    2  502    0  0.62501134457E+02 -0.40109775586E+01  0.80260588158E+03  0.80504576323E+03  0.00000000000E+00 0. -1.
         22    1    3    3    0    0  0.40995890092E+01 -0.60971084683E+02 -0.18612125080E+03  0.19589640068E+03  0.00000000000E+00 0. -1.
         22    1    3    3    0    0 -0.41038299118E+02  0.36191113806E+02 -0.46068178437E+02  0.71527727334E+02  0.00000000000E+00 0. -1.
</event>
<event>
 7    1  0.5889087E-006  0.1788662E+03  0.7818608E-02  0.1359057E+00
          2   -1    0    0  502    0  0.00000000000E+00  0.00000000000E+00  0.14348210915E+04  0.14348210915E+04  0.00000000000E+00 0. -1.
          1   -1    0    0  501    0 -0.00000000000E+00 -0.00000000000E+00 -0.53697020492E+03  0.53697020492E+03  0.00000000000E+00 0. -1.
         25    2    1    2    0    0 -0.69212038701E+02  0.14946784844E+03  0.15287947378E+03  0.25715355725E+03  0.12499949794E+03 0.  0.
          2    1    1    2  501    0  0.96734456125E+02 -0.15195431547E+03 -0.46793898895E+03  0.50141257101E+03  0.00000000000E+00 0. -1.
          1    1    1    2  502    0 -0.27522417424E+02  0.24864670301E+01  0.12129104018E+04  0.12132251682E+04  0.00000000000E+00 0. -1.
         22    1    3    3    0    0  0.23600436114E+02  0.67679348789E+02  0.98997554327E+02  0.12222107265E+03  0.00000000000E+00 0. -1.
         22    1    3    3    0    0 -0.92812474815E+02  0.81788499650E+02  0.53881919451E+02  0.13493248460E+03  0.00000000000E+00 0. -1.
</event>
<event>
 7    1  0.5889087E-006  0.1649736E+03  0.7818608E-02  0.1372128E+00
          2   -1    0    0  502    0  0.00000000000E+00  0.00000000000E+00  0.10393371133E+04  0.10393371133E+04  0.00000000000E+00 0. -1.
          1   -1    0    0  501    0 -0.00000000000E+00 -0.00000000000E+00 -0.10042712194E+04  0.10042712194E+04  0.00000000000E+00 0. -1.
         25    2    1    2    0    0 -0.15209293916E+03  0.24958680742E+02 -0.26870493552E+03  0.33404143702E+03  0.12500456547E+03 0.  0.
          2    1    1    2  501    0 -0.49801898723E+01  0.26404132357E+02 -0.69585469977E+03  0.69637327899E+03  0.00000000000E+00 0. -1.
          1    1    1    2  502    0  0.15707312903E+03 -0.51362813100E+02  0.99962552920E+03  0.10131936168E+04  0.00000000000E+00 0. -1.
         22    1    3    3    0    0 -0.34972926862E+02  0.54429664895E+02 -0.41881986757E+02  0.77070064543E+02  0.00000000000E+00 0. -1.
         22    1    3    3    0    0 -0.11712001230E+03 -0.29470984153E+02 -0.22682294877E+03  0.25697137248E+03  0.00000000000E+00 0. -1.
</event>
<event>
 7    1  0.5889087E-006  0.5901529E+02  0.7818608E-02  0.1403580E+00
          2   -1    0    0  502    0  0.00000000000E+00  0.00000000000E+00  0.13044466942E+04  0.13044466942E+04  0.00000000000E+00 0. -1.
          1   -1    0    0  501    0 -0.00000000000E+00 -0.00000000000E+00 -0.32246279298E+02  0.32246279298E+02  0.00000000000E+00 0. -1.
         25    2    1    2    0    0  0.16440996574E+01 -0.42338142856E+02  0.66181982217E+03  0.67485146453E+03  0.12499520295E+03 0.  0.
          2    1    1    2  501    0 -0.58240203359E+02  0.24069933238E+01  0.12059255907E+02  0.59524285440E+02  0.00000000000E+00 0. -1.
          1    1    1    2  502    0  0.56596103701E+02  0.39931149532E+02  0.59832133686E+03  0.60231722357E+03  0.00000000000E+00 0. -1.
         22    1    3    3    0    0  0.23648316439E+02 -0.59743843547E+02  0.16247233041E+03  0.17471642127E+03  0.00000000000E+00 0. -1.
         22    1    3    3    0    0 -0.22004216782E+02  0.17405700691E+02  0.49934749176E+03  0.50013504326E+03  0.00000000000E+00 0. -1.
</event>
<event>
 7    1  0.5889087E-006  0.1004102E+03  0.7818608E-02  0.1335455E+00
          2   -1    0    0  502    0  0.00000000000E+00  0.00000000000E+00  0.74981817455E+03  0.74981817455E+03  0.00000000000E+00 0. -1.
          1   -1    0    0  501    0 -0.00000000000E+00 -0.00000000000E+00 -0.86468993855E+03  0.86468993855E+03  0.00000000000E+00 0. -1.
         25    2    1    2    0    0 -0.14321315015E+02 -0.52930196926E+02  0.84601171915E+02  0.16058888767E+03  0.12499890696E+03 0.  0.
          2    1    1    2  501    0  0.30023482677E+02 -0.52247092580E+02 -0.82107650988E+03  0.82328476438E+03  0.00000000000E+00 0. -1.
          1    1    1    2  502    0 -0.15702167661E+02  0.10517728951E+03  0.62160357396E+03  0.63063446105E+03  0.00000000000E+00 0. -1.
         22    1    3    3    0    0 -0.30340313453E+02 -0.85712538691E+01 -0.25669261531E+02  0.40656020475E+02  0.00000000000E+00 0. -1.
         22    1    3    3    0    0  0.16018998437E+02 -0.44358943057E+02  0.11027043345E+03  0.11993286719E+03  0.00000000000E+00 0. -1.
</event>
<event>
 7    1  0.5889087E-006  0.8976373E+02  0.7818608E-02  0.1304691E+00
          2   -1    0    0  502    0  0.00000000000E+00  0.00000000000E+00  0.21324642679E+04  0.21324642679E+04  0.00000000000E+00 0. -1.
          1   -1    0    0  501    0 -0.00000000000E+00 -0.00000000000E+00 -0.43045009016E+03  0.43045009016E+03  0.00000000000E+00 0. -1.
         25    2    1    2    0    0  0.84400095963E+01  0.25713983327E+02  0.24076179021E+03  0.27260898950E+03  0.12496791120E+03 0.  0.
          2    1    1    2  501    0  0.87029411335E+02 -0.17282017062E+02 -0.40853698876E+03  0.41806130859E+03  0.00000000000E+00 0. -1.
          1    1    1    2  502    0 -0.95469420931E+02 -0.84319662650E+01  0.18697893763E+04  0.18722440600E+04  0.00000000000E+00 0. -1.
         22    1    3    3    0    0 -0.35137289919E+02  0.61742256973E+02  0.12500628616E+03  0.14378215125E+03  0.00000000000E+00 0. -1.
         22    1    3    3    0    0  0.43577299516E+02 -0.36028273646E+02  0.11575550405E+03  0.12882683824E+03  0.00000000000E+00 0. -1.
</event>
<event>
 7    1  0.5889087E-006  0.1670570E+03  0.7818608E-02  0.1343997E+00
          2   -1    0    0  502    0  0.00000000000E+00  0.00000000000E+00  0.27520960206E+04  0.27520960206E+04  0.00000000000E+00 0. -1.
          1   -1    0    0  501    0 -0.00000000000E+00 -0.00000000000E+00 -0.63452505518E+03  0.63452505518E+03  0.00000000000E+00 0. -1.
         25    2    1    2    0    0 -0.14602056128E+03  0.12927613370E+03  0.47732643581E+03  0.53056557880E+03  0.12499993606E+03 0.  0.
          2    1    1    2  501    0  0.13486696115E+03 -0.97544704958E+02 -0.59638342467E+03  0.61917465702E+03  0.00000000000E+00 0. -1.
          1    1    1    2  502    0  0.11153600129E+02 -0.31731428739E+02  0.22366279542E+04  0.22368808399E+04  0.00000000000E+00 0. -1.
         22    1    3    3    0    0 -0.97504706147E+02  0.70987251695E+02  0.41570855503E+03  0.43285096783E+03  0.00000000000E+00 0.  1.
         22    1    3    3    0    0 -0.48515855129E+02  0.58288882001E+02  0.61617880781E+02  0.97714610964E+02  0.00000000000E+00 0.  1.
</event>
<event>
 7    1  0.5889087E-006  0.1300144E+03  0.7818608E-02  0.1229492E+00
          2   -1    0    0  502    0  0.00000000000E+00  0.00000000000E+00  0.13171738608E+04  0.13171738608E+04  0.00000000000E+00 0. -1.
          1   -1    0    0  501    0 -0.00000000000E+00 -0.00000000000E+00 -0.15462939848E+04  0.15462939848E+04  0.00000000000E+00 0. -1.
         25    2    1    2    0    0 -0.42134233131E+02 -0.16433121544E+03 -0.58638870233E+01  0.21080787960E+03  0.12500213983E+03 0.  0.
          2    1    1    2  501    0  0.11561310619E+03  0.60409002498E+02 -0.14316508131E+04  0.14375811938E+04  0.00000000000E+00 0. -1.
          1    1    1    2  502    0 -0.73478873057E+02  0.10392221294E+03  0.12083945762E+04  0.12150787723E+04  0.00000000000E+00 0. -1.
         22    1    3    3    0    0 -0.13004236958E+00 -0.10103628976E+03 -0.60016581475E+02  0.11751739791E+03  0.00000000000E+00 0. -1.
         22    1    3    3    0    0 -0.42004190761E+02 -0.63294925681E+02  0.54152694452E+02  0.93290481695E+02  0.00000000000E+00 0. -1.
</event>
<event>
 7    1  0.5889087E-006  0.1139030E+03  0.7818608E-02  0.1337578E+00
          2   -1    0    0  502    0  0.00000000000E+00  0.00000000000E+00  0.14095797316E+04  0.14095797316E+04  0.00000000000E+00 0. -1.
          1   -1    0    0  501    0 -0.00000000000E+00 -0.00000000000E+00 -0.99923154859E+02  0.99923154859E+02  0.00000000000E+00 0. -1.
         25    2    1    2    0    0 -0.48758704824E+02 -0.49961738721E+02  0.23902528289E+03  0.27862676895E+03  0.12500481544E+03 0.  0.
          2    1    1    2  501    0  0.88030240244E+02  0.84271389482E+02 -0.32809306346E+02  0.12620396533E+03  0.00000000000E+00 0. -1.
          1    1    1    2  502    0 -0.39271535420E+02 -0.34309650761E+02  0.11034406002E+04  0.11046721521E+04  0.00000000000E+00 0. -1.
         22    1    3    3    0    0  0.40593696603E+02 -0.19168677638E+02  0.49374324343E+02  0.66731629013E+02  0.00000000000E+00 0.  1.
         22    1    3    3    0    0 -0.89352401427E+02 -0.30793061083E+02  0.18965095855E+03  0.21189513994E+03  0.00000000000E+00 0.  1.
</event>
<event>
 7    1  0.5889087E-006  0.1318469E+03  0.7818608E-02  0.1287472E+00
          2   -1    0    0  502    0  0.00000000000E+00  0.00000000000E+00  0.23019187249E+04  0.23019187249E+04  0.00000000000E+00 0. -1.
          1   -1    0    0  501    0 -0.00000000000E+00 -0.00000000000E+00 -0.18556547731E+03  0.18556547731E+03  0.00000000000E+00 0. -1.
         25    2    1    2    0    0  0.13062162803E+03  0.18849173469E+02  0.15171095865E+03  0.23676737502E+03  0.12500109539E+03 0.  0.
          2    1    1    2  501    0 -0.12413038962E+03  0.51722042993E+02 -0.11069190040E+03  0.17417296051E+03  0.00000000000E+00 0. -1.
          1    1    1    2  502    0 -0.64912384075E+01 -0.70571216463E+02  0.20753341894E+04  0.20765438667E+04  0.00000000000E+00 0. -1.
         22    1    3    3    0    0  0.86956834941E+02  0.59732474524E+02  0.45540832371E+02  0.11490616637E+03  0.00000000000E+00 0. -1.
         22    1    3    3    0    0  0.43664793090E+02 -0.40883301055E+02  0.10617012627E+03  0.12186120865E+03  0.00000000000E+00 0. -1.
</event>
<event>
 7    1  0.1106606E-005  0.1335231E+03  0.7818608E-02  0.1316636E+00
          2   -1    0    0  502    0  0.00000000000E+00  0.00000000000E+00  0.20313108853E+04  0.20313108853E+04  0.00000000000E+00 0. -1.
          1   -1    0    0  501    0 -0.00000000000E+00 -0.00000000000E+00 -0.16383832791E+04  0.16383832791E+04  0.00000000000E+00 0. -1.
         25    2    1    2    0    0  0.74693996606E+02 -0.48398622072E+02 -0.29162472470E+03  0.32953728565E+03  0.12501289066E+03 0.  0.
          2    1    1    2  501    0 -0.12069658748E+03  0.75767063476E+02 -0.13236209383E+04  0.13312703341E+04  0.00000000000E+00 0. -1.
          1    1    1    2  502    0  0.46002590879E+02 -0.27368441403E+02  0.20081732693E+04  0.20088865447E+04  0.00000000000E+00 0. -1.
         22    1    3    3    0    0  0.84411848821E+02 -0.51786618233E+02 -0.30021801523E+03  0.31612983206E+03  0.00000000000E+00 0. -1.
         22    1    3    3    0    0 -0.97178522151E+01  0.33879961604E+01  0.85932905315E+01  0.13407453592E+02  0.00000000000E+00 0. -1.
</event>
<event>
 7    1  0.5889087E-006  0.1192612E+03  0.7818608E-02  0.1258169E+00
          2   -1    0    0  502    0  0.00000000000E+00  0.00000000000E+00  0.93723858397E+03  0.93723858397E+03  0.00000000000E+00 0. -1.
          1   -1    0    0  501    0 -0.00000000000E+00 -0.00000000000E+00 -0.10571273651E+03  0.10571273651E+03  0.00000000000E+00 0. -1.
         25    2    1    2    0    0 -0.37741102559E+02  0.22799268591E+01  0.92433454405E+02  0.15999873984E+03  0.12500425740E+03 0.  0.
          2    1    1    2  501    0 -0.72512957170E+02  0.74387207820E+02 -0.25246486448E+02  0.10690636428E+03  0.00000000000E+00 0. -1.
          1    1    1    2  502    0  0.11025405973E+03 -0.76667134679E+02  0.76433887950E+03  0.77604621637E+03  0.00000000000E+00 0. -1.
         22    1    3    3    0    0  0.46054854806E+01  0.48636305404E+02  0.72834128554E+00  0.48859299841E+02  0.00000000000E+00 0. -1.
         22    1    3    3    0    0 -0.42346588039E+02 -0.46356378545E+02  0.91705113120E+02  0.11113944000E+03  0.00000000000E+00 0. -1.
</event>
<event>
 7    1  0.5889087E-006  0.9272921E+02  0.7818608E-02  0.1349982E+00
          2   -1    0    0  502    0  0.00000000000E+00  0.00000000000E+00  0.22422044400E+04  0.22422044400E+04  0.00000000000E+00 0. -1.
          1   -1    0    0  501    0 -0.00000000000E+00 -0.00000000000E+00 -0.72702758714E+02  0.72702758714E+02  0.00000000000E+00 0. -1.
         25    2    1    2    0    0 -0.92817835827E+02  0.12899713516E+02  0.23291719069E+03  0.28045947850E+03  0.12500219240E+03 0.  0.
          2    1    1    2  501    0  0.10212021677E+02 -0.56652060049E+02 -0.30498301637E+02  0.65145127963E+02  0.00000000000E+00 0. -1.
          1    1    1    2  502    0  0.82605814150E+02  0.43752346533E+02  0.19670827922E+04  0.19693025922E+04  0.00000000000E+00 0. -1.
         22    1    3    3    0    0 -0.55555284624E+02 -0.46298789263E+02  0.60132244512E+02  0.94052402239E+02  0.00000000000E+00 0. -1.
         22    1    3    3    0    0 -0.37262551203E+02  0.59198502779E+02  0.17278494618E+03  0.18640707626E+03  0.00000000000E+00 0. -1.
</event>
<event>
 7    1  0.5889087E-006  0.5183875E+02  0.7818608E-02  0.1488654E+00
          2   -1    0    0  502    0  0.00000000000E+00  0.00000000000E+00  0.19231882683E+03  0.19231882683E+03  0.00000000000E+00 0. -1.
          1   -1    0    0  501    0 -0.00000000000E+00 -0.00000000000E+00 -0.52118932678E+03  0.52118932678E+03  0.00000000000E+00 0. -1.
         25    2    1    2    0    0  0.23868160910E+02 -0.40056962737E+02 -0.24271138332E+03  0.27695513685E+03  0.12498433048E+03 0.  0.
          2    1    1    2  501    0 -0.51305214365E+02  0.17823278593E+02 -0.25670573320E+03  0.26238850535E+03  0.00000000000E+00 0. -1.
          1    1    1    2  502    0  0.27437053454E+02  0.22233684144E+02  0.17054661656E+03  0.17416451141E+03  0.00000000000E+00 0. -1.
         22    1    3    3    0    0  0.28800003074E+02 -0.95492534256E+01  0.18981294676E+01  0.30401172897E+02  0.00000000000E+00 0.  1.
         22    1    3    3    0    0 -0.49318421635E+01 -0.30507709312E+02 -0.24460951279E+03  0.24655396395E+03  0.00000000000E+00 0.  1.
</event>
<event>
 7    1  0.5889087E-006  0.5942449E+02  0.7818608E-02  0.1524586E+00
          2   -1    0    0  502    0  0.00000000000E+00  0.00000000000E+00  0.25842999243E+03  0.25842999243E+03  0.00000000000E+00 0. -1.
          1   -1    0    0  501    0 -0.00000000000E+00 -0.00000000000E+00 -0.83080586553E+03  0.83080586553E+03  0.00000000000E+00 0. -1.
         25    2    1    2    0    0 -0.53718033255E+02  0.37173837087E+02 -0.51752797613E+02  0.15023851318E+03  0.12500295005E+03 0.  0.
          2    1    1    2  501    0  0.57855506422E+02 -0.13411684574E+02 -0.72790151104E+03  0.73032030143E+03  0.00000000000E+00 0. -1.
          1    1    1    2  502    0 -0.41374731678E+01 -0.23762152513E+02  0.20727843555E+03  0.20867704335E+03  0.00000000000E+00 0. -1.
         22    1    3    3    0    0 -0.19902432559E+02  0.56809562164E+02 -0.81348653648E+02  0.10119800702E+03  0.00000000000E+00 0. -1.
         22    1    3    3    0    0 -0.33815600696E+02 -0.19635725077E+02  0.29595856035E+02  0.49040506157E+02  0.00000000000E+00 0. -1.
</event>
<event>
 7    1  0.5889087E-006  0.1441812E+03  0.7818608E-02  0.1377486E+00
          2   -1    0    0  502    0  0.00000000000E+00  0.00000000000E+00  0.60728935686E+03  0.60728935686E+03  0.00000000000E+00 0. -1.
          1   -1    0    0  501    0 -0.00000000000E+00 -0.00000000000E+00 -0.29279487758E+04  0.29279487758E+04  0.00000000000E+00 0. -1.
         25    2    1    2    0    0  0.15793467678E+03  0.51093606387E+02 -0.88668663737E+02  0.22592148924E+03  0.12499787449E+03 0.  0.
          2    1    1    2  501    0 -0.13014348922E+03 -0.60747304304E+02 -0.27683890718E+04  0.27721121218E+04  0.00000000000E+00 0. -1.
          1    1    1    2  502    0 -0.27791187554E+02  0.96536979167E+01  0.53639831662E+03  0.53720452163E+03  0.00000000000E+00 0. -1.
         22    1    3    3    0    0 -0.15944436559E+02 -0.86823159752E+01  0.59913277579E+01  0.19118150438E+02  0.00000000000E+00 0.  1.
         22    1    3    3    0    0  0.17387911333E+03  0.59775922362E+02 -0.94659991495E+02  0.20680333880E+03  0.00000000000E+00 0.  1.
</event>
<event>
 7    1  0.5889087E-006  0.1926146E+03  0.7818608E-02  0.1250501E+00
          2   -1    0    0  502    0  0.00000000000E+00  0.00000000000E+00  0.24923945412E+04  0.24923945412E+04  0.00000000000E+00 0. -1.
          1   -1    0    0  501    0 -0.00000000000E+00 -0.00000000000E+00 -0.61809906307E+02  0.61809906307E+02  0.00000000000E+00 0. -1.
         25    2    1    2    0    0 -0.13527050765E+03 -0.14590617217E+03  0.13312014716E+04  0.13517799134E+04  0.12499941993E+03 0.  0.
          2    1    1    2  501    0  0.17240942165E+03  0.87274869523E+02  0.13542244421E+03  0.23596853586E+03  0.00000000000E+00 0. -1.
          1    1    1    2  502    0 -0.37138913992E+02  0.58631302646E+02  0.96396071909E+03  0.96645599824E+03  0.00000000000E+00 0. -1.
         22    1    3    3    0    0 -0.15484362627E+03 -0.98149072748E+02  0.10298392259E+04  0.10460299328E+04  0.00000000000E+00 0. -1.
         22    1    3    3    0    0  0.19573118618E+02 -0.47757099421E+02  0.30136224570E+03  0.30574998063E+03  0.00000000000E+00 0. -1.
</event>
<event>
 7    1  0.5889087E-006  0.5466566E+02  0.7818608E-02  0.1469987E+00
          2   -1    0    0  502    0  0.00000000000E+00  0.00000000000E+00  0.18047823332E+04  0.18047823332E+04  0.00000000000E+00 0. -1.
          1   -1    0    0  501    0 -0.00000000000E+00 -0.00000000000E+00 -0.10911946011E+03  0.10911946011E+03  0.00000000000E+00 0. -1.
         25    2    1    2    0    0  0.41209367297E+01 -0.74079486568E+02  0.28894666860E+03  0.32344992386E+03  0.12499969400E+03 0.  0.
          2    1    1    2  501    0  0.24384991430E+02  0.48629871539E+02 -0.83547706674E+02  0.99698101805E+02  0.00000000000E+00 0. -1.
          1    1    1    2  502    0 -0.28505928160E+02  0.25449615030E+02  0.14902639111E+04  0.14907537676E+04  0.00000000000E+00 0. -1.
         22    1    3    3    0    0 -0.53339503534E+02 -0.32076231801E+02  0.20040027854E+03  0.20984341524E+03  0.00000000000E+00 0.  1.
         22    1    3    3    0    0  0.57460440264E+02 -0.42003254767E+02  0.88546390061E+02  0.11360650861E+03  0.00000000000E+00 0.  1.
</event>
<event>
 7    1  0.5889087E-006  0.9820863E+02  0.7818608E-02  0.1356129E+00
          2   -1    0    0  502    0  0.00000000000E+00  0.00000000000E+00  0.22544557259E+04  0.22544557259E+04  0.00000000000E+00 0. -1.
          1   -1    0    0  501    0 -0.00000000000E+00 -0.00000000000E+00 -0.24667677271E+02  0.24667677271E+02  0.00000000000E+00 0. -1.
         25    2    1    2    0    0  0.30762511346E+02  0.10198496199E+03  0.71534941267E+03  0.73396004933E+03  0.12500122892E+03 0.  0.
          2    1    1    2  501    0  0.20542736960E+02 -0.96585766688E+02  0.14900114858E+03  0.17875166194E+03  0.00000000000E+00 0. -1.
          1    1    1    2  502    0 -0.51305248305E+02 -0.53991952974E+01  0.13654374874E+04  0.13664116919E+04  0.00000000000E+00 0. -1.
         22    1    3    3    0    0  0.33211734552E+02  0.60522005982E+02  0.66551469921E+03  0.66908575488E+03  0.00000000000E+00 0. -1.
         22    1    3    3    0    0 -0.24492232063E+01  0.41462956004E+02  0.49834713463E+02  0.64874294453E+02  0.00000000000E+00 0. -1.
</event>
<event>
 7    1  0.5889087E-006  0.9287765E+02  0.7818608E-02  0.1301803E+00
          2   -1    0    0  502    0  0.00000000000E+00  0.00000000000E+00  0.62987027590E+02  0.62987027590E+02  0.00000000000E+00 0. -1.
          1   -1    0    0  501    0 -0.00000000000E+00 -0.00000000000E+00 -0.21891164836E+04  0.21891164836E+04  0.00000000000E+00 0. -1.
         25    2    1    2    0    0  0.93092230737E+02  0.70707363929E+02 -0.11251130310E+04  0.11380554041E+04  0.12500030185E+03 0.  0.
          2    1    1    2  501    0 -0.92640418149E+02  0.17346606337E+02 -0.10196884898E+04  0.10240350424E+04  0.00000000000E+00 0. -1.
          1    1    1    2  502    0 -0.45181258884E+00 -0.88053970266E+02  0.18672064807E+02  0.90013064709E+02  0.00000000000E+00 0. -1.
         22    1    3    3    0    0  0.34646770070E+02 -0.16371207400E+02 -0.66664402668E+03  0.66774446716E+03  0.00000000000E+00 0. -1.
         22    1    3    3    0    0  0.58445460667E+02  0.87078571329E+02 -0.45846900435E+03  0.47031093695E+03  0.00000000000E+00 0. -1.
</event>
<event>
 7    1  0.5889087E-006  0.1549046E+03  0.7818608E-02  0.1328646E+00
          2   -1    0    0  502    0  0.00000000000E+00  0.00000000000E+00  0.68296214833E+03  0.68296214833E+03  0.00000000000E+00 0. -1.
          1   -1    0    0  501    0 -0.00000000000E+00 -0.00000000000E+00 -0.14837495595E+03  0.14837495595E+03  0.00000000000E+00 0. -1.
         25    2    1    2    0    0 -0.16066910874E+03  0.57288366948E+02  0.38099744182E+03  0.43575314470E+03  0.12500093181E+03 0.  0.
          2    1    1    2  501    0  0.15260128223E+03 -0.16617242883E+02 -0.69621702322E+02  0.16855404337E+03  0.00000000000E+00 0. -1.
          1    1    1    2  502    0  0.80678265035E+01 -0.40671124066E+02  0.22321145289E+03  0.22702991622E+03  0.00000000000E+00 0. -1.
         22    1    3    3    0    0  0.13474259712E+01 -0.18685685901E+02  0.10611844162E+03  0.10775942681E+03  0.00000000000E+00 0.  1.
         22    1    3    3    0    0 -0.16201653471E+03  0.75974052849E+02  0.27487900020E+03  0.32799371789E+03  0.00000000000E+00 0.  1.
</event>
<event>
 7    1  0.5889087E-006  0.6749598E+02  0.7818608E-02  0.1393051E+00
          2   -1    0    0  502    0  0.00000000000E+00  0.00000000000E+00  0.19529208598E+04  0.19529208598E+04  0.00000000000E+00 0. -1.
          1   -1    0    0  501    0 -0.00000000000E+00 -0.00000000000E+00 -0.57420421619E+03  0.57420421619E+03  0.00000000000E+00 0. -1.
         25    2    1    2    0    0  0.20143490624E+02  0.17556642967E+02  0.13748232685E+03  0.18772873131E+03  0.12500676156E+03 0.  0.
          2    1    1    2  501    0 -0.21050933030E+02  0.51253849588E+02 -0.54701967950E+03  0.54981872344E+03  0.00000000000E+00 0. -1.
          1    1    1    2  502    0  0.90744240614E+00 -0.68810492555E+02  0.17882539963E+04  0.17895776213E+04  0.00000000000E+00 0. -1.
         22    1    3    3    0    0 -0.47717350057E+02  0.33166460828E+02  0.59120345133E+02  0.82898581586E+02  0.00000000000E+00 0. -1.
         22    1    3    3    0    0  0.67860840681E+02 -0.15609817861E+02  0.78361981721E+02  0.10483014972E+03  0.00000000000E+00 0. -1.
</event>
<event>
 7    1  0.5889087E-006  0.6618433E+02  0.7818608E-02  0.1468032E+00
          2   -1    0    0  502    0  0.00000000000E+00  0.00000000000E+00  0.82253605141E+03  0.82253605141E+03  0.00000000000E+00 0. -1.
          1   -1    0    0  501    0 -0.00000000000E+00 -0.00000000000E+00 -0.33094845799E+03  0.33094845799E+03  0.00000000000E+00 0. -1.
         25    2    1    2    0    0 -0.67489484904E+02  0.75043309965E+01  0.15876940565E+03  0.21317595951E+03  0.12500047994E+03 0.  0.
          2    1    1    2  501    0  0.61803564974E+02  0.23995097776E+02 -0.29971797097E+03  0.30696303928E+03  0.00000000000E+00 0. -1.
          1    1    1    2  502    0  0.56859199295E+01 -0.31499428773E+02  0.63253615874E+03  0.63334551061E+03  0.00000000000E+00 0. -1.
         22    1    3    3    0    0  0.35518101411E+02  0.15873994000E+02  0.42786033316E+02  0.57828745969E+02  0.00000000000E+00 0.  1.
         22    1    3    3    0    0 -0.10300758631E+03 -0.83696630036E+01  0.11598337234E+03  0.15534721354E+03  0.00000000000E+00 0.  1.
</event>
<event>
 7    1  0.5889087E-006  0.5763268E+02  0.7818608E-02  0.1471677E+00
          2   -1    0    0  502    0  0.00000000000E+00  0.00000000000E+00  0.35858496313E+04  0.35858496313E+04  0.00000000000E+00 0. -1.
          1   -1    0    0  501    0 -0.00000000000E+00 -0.00000000000E+00 -0.29955355760E+03  0.29955355760E+03  0.00000000000E+00 0. -1.
         25    2    1    2    0    0 -0.16052142002E+02  0.41042326203E+02  0.71046843720E+03  0.72272485854E+03  0.12499470823E+03 0.  0.
          2    1    1    2  501    0  0.32337602194E+02  0.15384186596E+02 -0.29203097689E+03  0.29421843106E+03  0.00000000000E+00 0. -1.
          1    1    1    2  502    0 -0.16285460193E+02 -0.56426512799E+02  0.28678586133E+04  0.28684598993E+04  0.00000000000E+00 0. -1.
         22    1    3    3    0    0 -0.70564257673E+02  0.21329197233E+02  0.35656674536E+03  0.36410725482E+03  0.00000000000E+00 0. -1.
         22    1    3    3    0    0  0.54512115671E+02  0.19713128970E+02  0.35390169184E+03  0.35861760371E+03  0.00000000000E+00 0. -1.
</event>
<event>
 7    1  0.5889087E-006  0.1223280E+03  0.7818608E-02  0.1250624E+00
          2   -1    0    0  502    0  0.00000000000E+00  0.00000000000E+00  0.17696843483E+04  0.17696843483E+04  0.00000000000E+00 0. -1.
          1   -1    0    0  501    0 -0.00000000000E+00 -0.00000000000E+00 -0.52671545318E+03  0.52671545318E+03  0.00000000000E+00 0. -1.
         25    2    1    2    0    0  0.60707342217E+02  0.25438867070E+02  0.34986077508E+03  0.37730407535E+03  0.12499314373E+03 0.  0.
          2    1    1    2  501    0 -0.12858102377E+02 -0.12353908700E+03 -0.50331466583E+03  0.51841382085E+03  0.00000000000E+00 0. -1.
          1    1    1    2  502    0 -0.47849239840E+02  0.98100219931E+02  0.13964227859E+04  0.14006819053E+04  0.00000000000E+00 0. -1.
         22    1    3    3    0    0  0.32610781600E+02  0.11689714792E+02  0.34367680561E+03  0.34541838286E+03  0.00000000000E+00 0. -1.
         22    1    3    3    0    0  0.28096560617E+02  0.13749152278E+02  0.61839694725E+01  0.31885692486E+02  0.00000000000E+00 0. -1.
</event>
<event>
 7    1  0.5889087E-006  0.6323867E+02  0.7818608E-02  0.1394764E+00
          2   -1    0    0  502    0  0.00000000000E+00  0.00000000000E+00  0.28627281006E+03  0.28627281006E+03  0.00000000000E+00 0. -1.
          1   -1    0    0  501    0 -0.00000000000E+00 -0.00000000000E+00 -0.17808372339E+04  0.17808372339E+04  0.00000000000E+00 0. -1.
         25    2    1    2    0    0 -0.94958672567E+01 -0.53228313743E+02 -0.21592024511E+03  0.25528416873E+03  0.12500011871E+03 0.  0.
          2    1    1    2  501    0  0.59854727722E+02  0.23785192236E+02 -0.15413632786E+04  0.15427083588E+04  0.00000000000E+00 0. -1.
          1    1    1    2  502    0 -0.50358860465E+02  0.29443121507E+02  0.26271909984E+03  0.26911751643E+03  0.00000000000E+00 0. -1.
         22    1    3    3    0    0 -0.12347907810E+01 -0.91853058065E+02 -0.11688395965E+03  0.14866192858E+03  0.00000000000E+00 0.  1.
         22    1    3    3    0    0 -0.82610764757E+01  0.38624744322E+02 -0.99036285457E+02  0.10662224015E+03  0.00000000000E+00 0.  1.
</event>
<event>
 7    1  0.5889087E-006  0.9964913E+02  0.7818608E-02  0.1299867E+00
          2   -1    0    0  502    0  0.00000000000E+00  0.00000000000E+00  0.52245439696E+02  0.52245439696E+02  0.00000000000E+00 0. -1.
          1   -1    0    0  501    0 -0.00000000000E+00 -0.00000000000E+00 -0.94933819368E+03  0.94933819368E+03  0.00000000000E+00 0. -1.
         25    2    1    2    0    0  0.61215883565E+02  0.26754597635E+02 -0.33438259007E+03  0.36318001490E+03  0.12499925514E+03 0.  0.
          2    1    1    2  501    0 -0.11572347116E+03  0.36563520900E+02 -0.53765141898E+03  0.55117861095E+03  0.00000000000E+00 0. -1.
          1    1    1    2  502    0  0.54507587594E+02 -0.63318118535E+02 -0.25058744931E+02  0.87225007524E+02  0.00000000000E+00 0. -1.
         22    1    3    3    0    0  0.74506624594E+02  0.21610017514E+02 -0.91843366139E+02  0.12022243497E+03  0.00000000000E+00 0.  1.
         22    1    3    3    0    0 -0.13290741029E+02  0.51445801211E+01 -0.24253922394E+03  0.24295757994E+03  0.00000000000E+00 0.  1.
</event>
<event>
 7    1  0.5889087E-006  0.1731602E+03  0.7818608E-02  0.1329486E+00
          2   -1    0    0  502    0  0.00000000000E+00  0.00000000000E+00  0.16647309638E+04  0.16647309638E+04  0.00000000000E+00 0. -1.
          1   -1    0    0  501    0 -0.00000000000E+00 -0.00000000000E+00 -0.16426636122E+03  0.16426636122E+03  0.00000000000E+00 0. -1.
         25    2    1    2    0    0 -0.12179888034E+03  0.99889663500E+02  0.39484659624E+03  0.44310436132E+03  0.12499891330E+03 0.  0.
          2    1    1    2  501    0 -0.34003249803E+02 -0.14121229714E+02 -0.13124350507E+03  0.13631026281E+03  0.00000000000E+00 0. -1.
          1    1    1    2  502    0  0.15580213015E+03 -0.85768433786E+02  0.12368615114E+04  0.12495827009E+04  0.00000000000E+00 0. -1.
         22    1    3    3    0    0 -0.81813774567E+02 -0.57441266107E+01  0.22161005728E+03  0.23629961106E+03  0.00000000000E+00 0.  1.
         22    1    3    3    0    0 -0.39985105778E+02  0.10563379011E+03  0.17323653896E+03  0.20680475026E+03  0.00000000000E+00 0.  1.
</event>
<event>
 7    1  0.5889087E-006  0.1025645E+03  0.7818608E-02  0.1379478E+00
          2   -1    0    0  502    0  0.00000000000E+00  0.00000000000E+00  0.66796808102E+03  0.66796808102E+03  0.00000000000E+00 0. -1.
          1   -1    0    0  501    0 -0.00000000000E+00 -0.00000000000E+00 -0.52744128307E+03  0.52744128307E+03  0.00000000000E+00 0. -1.
         25    2    1    2    0    0  0.89899756259E+02  0.10855067936E+03  0.41558440081E+03  0.45629462865E+03  0.12501670998E+03 0.  0.
          2    1    1    2  501    0 -0.56828878499E+02 -0.84845176623E+02 -0.50010191540E+03  0.51042154266E+03  0.00000000000E+00 0. -1.
          1    1    1    2  502    0 -0.33070877760E+02 -0.23705502739E+02  0.22504431254E+03  0.22869319277E+03  0.00000000000E+00 0. -1.
         22    1    3    3    0    0  0.11708400741E+03  0.10086276871E+03  0.38394219208E+03  0.41387627349E+03  0.00000000000E+00 0. -1.
         22    1    3    3    0    0 -0.27184251153E+02  0.76879106554E+01  0.31642208736E+02  0.42418355162E+02  0.00000000000E+00 0. -1.
</event>
<event>
 7    1  0.5889087E-006  0.5099318E+02  0.7818608E-02  0.1512337E+00
          2   -1    0    0  502    0  0.00000000000E+00  0.00000000000E+00  0.54632086197E+03  0.54632086197E+03  0.00000000000E+00 0. -1.
          1   -1    0    0  501    0 -0.00000000000E+00 -0.00000000000E+00 -0.19408182071E+04  0.19408182071E+04  0.00000000000E+00 0. -1.
         25    2    1    2    0    0  0.21423821115E+02  0.20281556133E+01  0.19196438736E+02  0.12828380975E+03  0.12500055623E+03 0.  0.
          2    1    1    2  501    0  0.30321208886E+02 -0.34060799333E+01 -0.18847332155E+04  0.18849801778E+04  0.00000000000E+00 0. -1.
          1    1    1    2  502    0 -0.51745030001E+02  0.13779243200E+01  0.47103943160E+03  0.47387508156E+03  0.00000000000E+00 0. -1.
         22    1    3    3    0    0  0.73936969780E+02  0.39979595657E+00  0.15992371359E+02  0.75647810800E+02  0.00000000000E+00 0.  1.
         22    1    3    3    0    0 -0.52513148666E+02  0.16283596567E+01  0.32040673771E+01  0.52635998952E+02  0.00000000000E+00 0.  1.
</event>
<event>
 7    1  0.5889087E-006  0.1153526E+03  0.7818608E-02  0.1363605E+00
          2   -1    0    0  502    0  0.00000000000E+00  0.00000000000E+00  0.82453104190E+03  0.82453104190E+03  0.00000000000E+00 0. -1.
          1   -1    0    0  501    0 -0.00000000000E+00 -0.00000000000E+00 -0.31623621104E+03  0.31623621104E+03  0.00000000000E+00 0. -1.
         25    2    1    2    0    0 -0.91851201564E+02  0.11573402098E+03  0.10892499409E+02  0.19384328823E+03  0.12500226801E+03 0.  0.
          2    1    1    2  501    0  0.61193203181E+01 -0.40789944709E+02 -0.21832901222E+03  0.22219096122E+03  0.00000000000E+00 0. -1.
          1    1    1    2  502    0  0.85731881246E+02 -0.74944076274E+02  0.71573134367E+03  0.72473300349E+03  0.00000000000E+00 0. -1.
         22    1    3    3    0    0 -0.44997639146E+02  0.41242948106E+02  0.66089278393E+02  0.89964220753E+02  0.00000000000E+00 0. -1.
         22    1    3    3    0    0 -0.46853562418E+02  0.74491072877E+02 -0.55196778984E+02  0.10387906748E+03  0.00000000000E+00 0. -1.
</event>
<event>
 7    1  0.5889087E-006  0.1941780E+03  0.7818608E-02  0.1220643E+00
          2   -1    0    0  502    0  0.00000000000E+00  0.00000000000E+00  0.59154473465E+03  0.59154473465E+03  0.00000000000E+00 0. -1.
          1   -1    0    0  501    0 -0.00000000000E+00 -0.00000000000E+00 -0.21350467562E+03  0.21350467562E+03  0.00000000000E+00 0. -1.
         25    2    1    2    0    0 -0.96614514260E+02  0.10958631451E+03  0.44205273794E+02  0.19728644498E+03  0.12499724176E+03 0.  0.
          2    1    1    2  501    0  0.17467039323E+03 -0.16095279792E+03 -0.23250076960E+02  0.23865480407E+03  0.00000000000E+00 0. -1.
          1    1    1    2  502    0 -0.78055878965E+02  0.51366483410E+02  0.35708486220E+03  0.36910816121E+03  0.00000000000E+00 0. -1.
         22    1    3    3    0    0 -0.71561926102E+02  0.27633524583E+01  0.50110969214E+02  0.87406261903E+02  0.00000000000E+00 0.  1.
         22    1    3    3    0    0 -0.25052588158E+02  0.10682296205E+03 -0.59056954199E+01  0.10988018308E+03  0.00000000000E+00 0.  1.
</event>
<event>
 7    1  0.5889087E-006  0.1335362E+03  0.7818608E-02  0.1264981E+00
          2   -1    0    0  502    0  0.00000000000E+00  0.00000000000E+00  0.17838899041E+04  0.17838899041E+04  0.00000000000E+00 0. -1.
          1   -1    0    0  501    0 -0.00000000000E+00 -0.00000000000E+00 -0.11124285755E+04  0.11124285755E+04  0.00000000000E+00 0. -1.
         25    2    1    2    0    0 -0.68593615766E+02 -0.83552006660E+02  0.27898702311E+03  0.32426170507E+03  0.12500348945E+03 0.  0.
          2    1    1    2  501    0 -0.68469636546E+02  0.53325057847E+02 -0.10847316637E+04  0.10881977923E+04  0.00000000000E+00 0. -1.
          1    1    1    2  502    0  0.13706325231E+03  0.30226948814E+02  0.14772059692E+04  0.14838589822E+04  0.00000000000E+00 0. -1.
         22    1    3    3    0    0  0.19951253556E+02  0.16321205339E+02  0.84773178526E+02  0.88605451636E+02  0.00000000000E+00 0. -1.
         22    1    3    3    0    0 -0.88544869323E+02 -0.99873211999E+02  0.19421384458E+03  0.23565625344E+03  0.00000000000E+00 0. -1.
</event>
<event>
 7    1  0.5889087E-006  0.5805918E+02  0.7818608E-02  0.1412955E+00
          2   -1    0    0  502    0  0.00000000000E+00  0.00000000000E+00  0.84135857199E+03  0.84135857199E+03  0.00000000000E+00 0. -1.
          1   -1    0    0  501    0 -0.00000000000E+00 -0.00000000000E+00 -0.17150599931E+04  0.17150599931E+04  0.00000000000E+00 0. -1.
         25    2    1    2    0    0  0.43984745354E+01  0.29166639484E+02 -0.27051741357E+03  0.29945420136E+03  0.12499243269E+03 0.  0.
          2    1    1    2  501    0 -0.55057905713E+02 -0.45488278035E+00 -0.14285180292E+04  0.14295787280E+04  0.00000000000E+00 0. -1.
          1    1    1    2  502    0  0.50659431178E+02 -0.28711756704E+02  0.82533402163E+03  0.82738563573E+03  0.00000000000E+00 0. -1.
         22    1    3    3    0    0  0.26672070166E+02  0.34209484964E+02 -0.27305242783E+03  0.27647661118E+03  0.00000000000E+00 0. -1.
         22    1    3    3    0    0 -0.22273595630E+02 -0.50428454803E+01  0.25350142605E+01  0.22977590172E+02  0.00000000000E+00 0. -1.
</event>
<event>
 7    1  0.5889087E-006  0.5596622E+02  0.7818608E-02  0.1465626E+00
          2   -1    0    0  502    0  0.00000000000E+00  0.00000000000E+00  0.88724795037E+02  0.88724795037E+02  0.00000000000E+00 0. -1.
          1   -1    0    0  501    0 -0.00000000000E+00 -0.00000000000E+00 -0.68045550292E+03  0.68045550292E+03  0.00000000000E+00 0. -1.
         25    2    1    2    0    0  0.89332602102E+02  0.16477363731E+02 -0.44036313883E+03  0.46668565016E+03  0.12499593877E+03 0.  0.
          2    1    1    2  501    0 -0.38251339291E+02  0.44850456008E+01 -0.21489877162E+03  0.21832261137E+03  0.00000000000E+00 0. -1.
          1    1    1    2  502    0 -0.51081262810E+02 -0.20962409332E+02  0.63531202573E+02  0.84172036424E+02  0.00000000000E+00 0. -1.
         22    1    3    3    0    0 -0.14747870018E+02  0.38618296329E+02 -0.19348129144E+03  0.19784813018E+03  0.00000000000E+00 0.  1.
         22    1    3    3    0    0  0.10408047212E+03 -0.22140932598E+02 -0.24688184740E+03  0.26883751998E+03  0.00000000000E+00 0.  1.
</event>
<event>
 7    1  0.5889087E-006  0.1131076E+03  0.7818608E-02  0.1327165E+00
          2   -1    0    0  502    0  0.00000000000E+00  0.00000000000E+00  0.19919517880E+04  0.19919517880E+04  0.00000000000E+00 0. -1.
          1   -1    0    0  501    0 -0.00000000000E+00 -0.00000000000E+00 -0.15702645457E+03  0.15702645457E+03  0.00000000000E+00 0. -1.
         25    2    1    2    0    0 -0.75516852837E+02 -0.67747975361E+02  0.15464870584E+03  0.22323975258E+03  0.12500872644E+03 0.  0.
          2    1    1    2  501    0  0.37033640757E+02  0.11051590515E+03 -0.94486437320E+02  0.15004313605E+03  0.00000000000E+00 0. -1.
          1    1    1    2  502    0  0.38483212080E+02 -0.42767929790E+02  0.17747630649E+04  0.17756953540E+04  0.00000000000E+00 0. -1.
         22    1    3    3    0    0 -0.98669134988E+02 -0.86389619596E+02  0.12944854283E+03  0.18427069711E+03  0.00000000000E+00 0.  1.
         22    1    3    3    0    0  0.23152282150E+02  0.18641644235E+02  0.25200163005E+02  0.38969055468E+02  0.00000000000E+00 0.  1.
</event>
<event>
 7    1  0.5889087E-006  0.6004315E+02  0.7818608E-02  0.1451083E+00
          2   -1    0    0  502    0  0.00000000000E+00  0.00000000000E+00  0.32459741899E+03  0.32459741899E+03  0.00000000000E+00 0. -1.
          1   -1    0    0  501    0 -0.00000000000E+00 -0.00000000000E+00 -0.90273250601E+03  0.90273250601E+03  0.00000000000E+00 0. -1.
         25    2    1    2    0    0  0.20042742967E+02 -0.20187071040E+02 -0.38391211488E+03  0.40474970963E+03  0.12499834443E+03 0.  0.
          2    1    1    2  501    0  0.39060724609E+02  0.81800731974E+01 -0.50471229355E+03  0.50628761891E+03  0.00000000000E+00 0. -1.
          1    1    1    2  502    0 -0.59103467576E+02  0.12006997843E+02  0.31048932140E+03  0.31629259647E+03  0.00000000000E+00 0. -1.
         22    1    3    3    0    0 -0.14333509096E+02 -0.22752134610E+02 -0.91489036760E+01  0.28404428366E+02  0.00000000000E+00 0. -1.
         22    1    3    3    0    0  0.34376252062E+02  0.25650635702E+01 -0.37476321120E+03  0.37634528126E+03  0.00000000000E+00 0. -1.
</event>
<event>
 7    1  0.5889087E-006  0.1338638E+03  0.7818608E-02  0.1376873E+00
          2   -1    0    0  502    0  0.00000000000E+00  0.00000000000E+00  0.97608340108E+02  0.97608340108E+02  0.00000000000E+00 0. -1.
          1   -1    0    0  501    0 -0.00000000000E+00 -0.00000000000E+00 -0.92611786355E+03  0.92611786355E+03  0.00000000000E+00 0. -1.
         25    2    1    2    0    0  0.96244741751E+02  0.54780683913E+02 -0.17124155560E+03  0.23919158071E+03  0.12499987309E+03 0.  0.
          2    1    1    2  501    0 -0.12804101493E+03 -0.52985220072E+02 -0.70974729571E+03  0.72314808914E+03  0.00000000000E+00 0. -1.
          1    1    1    2  502    0  0.31796273178E+02 -0.17954638407E+01  0.52479327879E+02  0.61386533808E+02  0.00000000000E+00 0. -1.
         22    1    3    3    0    0 -0.14039241313E+02  0.41572401926E+02 -0.94489810216E+02  0.10418104018E+03  0.00000000000E+00 0. -1.
         22    1    3    3    0    0  0.11028398306E+03  0.13208281987E+02 -0.76751745385E+02  0.13501054053E+03  0.00000000000E+00 0. -1.
</event>
<event>
 7    1  0.5889087E-006  0.2415260E+03  0.7818608E-02  0.1218340E+00
          2   -1    0    0  502    0  0.00000000000E+00  0.00000000000E+00  0.19951419499E+04  0.19951419499E+04  0.00000000000E+00 0. -1.
          1   -1    0    0  501    0 -0.00000000000E+00 -0.00000000000E+00 -0.39261768464E+03  0.39261768464E+03  0.00000000000E+00 0. -1.
         25    2    1    2    0    0 -0.21342798032E+03  0.14888218075E+03 -0.15283564665E+03  0.32665430498E+03  0.12500757396E+03 0.  0.
          2    1    1    2  501    0  0.14230365972E+03 -0.17828813298E+03 -0.66507013413E+02  0.23761349449E+03  0.00000000000E+00 0. -1.
          1    1    1    2  502    0  0.71124320599E+02  0.29405952236E+02  0.18218669253E+04  0.18234918351E+04  0.00000000000E+00 0. -1.
         22    1    3    3    0    0 -0.18887605507E+02 -0.11451807239E+02  0.12304148592E+02  0.25283939634E+02  0.00000000000E+00 0. -1.
         22    1    3    3    0    0 -0.19454037481E+03  0.16033398799E+03 -0.16513979524E+03  0.30137036534E+03  0.00000000000E+00 0. -1.
</event>
<event>
 7    1  0.5889087E-006  0.1678240E+03  0.7818608E-02  0.1232748E+00
          2   -1    0    0  502    0  0.00000000000E+00  0.00000000000E+00  0.81899591836E+03  0.81899591836E+03  0.00000000000E+00 0. -1.
          1   -1    0    0  501    0 -0.00000000000E+00 -0.00000000000E+00 -0.42533535314E+03  0.42533535314E+03  0.00000000000E+00 0. -1.
         25    2    1    2    0    0  0.12883792410E+03 -0.30218144856E+02  0.33649850433E+02  0.18511728993E+03  0.12499500642E+03 0.  0.
          2    1    1    2  501    0  0.37116234020E+02  0.87826091344E+02 -0.33191416759E+03  0.34533759106E+03  0.00000000000E+00 0. -1.
          1    1    1    2  502    0 -0.16595415812E+03 -0.57607946488E+02  0.69192488237E+03  0.71387639052E+03  0.00000000000E+00 0. -1.
         22    1    3    3    0    0  0.10498892560E+03 -0.76506849763E+02  0.21971721832E+02  0.13175252984E+03  0.00000000000E+00 0. -1.
         22    1    3    3    0    0  0.23848998496E+02  0.46288704906E+02  0.11678128601E+02  0.53364760084E+02  0.00000000000E+00 0. -1.
</event>
<event>
 7    1  0.5889087E-006  0.7857895E+02  0.7818608E-02  0.1441905E+00
          2   -1    0    0  502    0  0.00000000000E+00  0.00000000000E+00  0.47670382490E+03  0.47670382490E+03  0.00000000000E+00 0. -1.
          1   -1    0    0  501    0 -0.00000000000E+00 -0.00000000000E+00 -0.11068170108E+03  0.11068170108E+03  0.00000000000E+00 0. -1.
         25    2    1    2    0    0 -0.68826985688E+02 -0.28370519088E+02  0.13600248251E+03  0.19914376077E+03  0.12497808565E+03 0.  0.
          2    1    1    2  501    0  0.79757240017E+02 -0.23833326508E+01 -0.57831383468E+02  0.98546265903E+02  0.00000000000E+00 0. -1.
          1    1    1    2  502    0 -0.10930254329E+02  0.30753851739E+02  0.28785102478E+03  0.28969549931E+03  0.00000000000E+00 0. -1.
         22    1    3    3    0    0 -0.87312736091E+02 -0.46636831722E+02  0.14139620935E+03  0.17260184233E+03  0.00000000000E+00 0. -1.
         22    1    3    3    0    0  0.18485750403E+02  0.18266312634E+02 -0.53937268420E+01  0.26541918439E+02  0.00000000000E+00 0. -1.
</event>
<event>
 7    1  0.5889087E-006  0.9020562E+02  0.7818608E-02  0.1344155E+00
          2   -1    0    0  502    0  0.00000000000E+00  0.00000000000E+00  0.59700995211E+03  0.59700995211E+03  0.00000000000E+00 0. -1.
          1   -1    0    0  501    0 -0.00000000000E+00 -0.00000000000E+00 -0.27085733330E+03  0.27085733330E+03  0.00000000000E+00 0. -1.
         25    2    1    2    0    0  0.11577104057E+03  0.86483824626E+02 -0.39417725620E+02  0.19509487776E+03  0.12500347386E+03 0.  0.
          2    1    1    2  501    0 -0.67618840831E+02 -0.47102463811E+02 -0.14050500148E+03  0.16288832117E+03  0.00000000000E+00 0. -1.
          1    1    1    2  502    0 -0.48152199739E+02 -0.39381360814E+02  0.50607534591E+03  0.50988408649E+03  0.00000000000E+00 0. -1.
         22    1    3    3    0    0  0.11737761867E+03  0.10277568543E+03 -0.61421469305E+02  0.16766914973E+03  0.00000000000E+00 0. -1.
         22    1    3    3    0    0 -0.16065780986E+01 -0.16291860802E+02  0.22003743685E+02  0.27425728026E+02  0.00000000000E+00 0. -1.
</event>
<event>
 7    1  0.5889087E-006  0.7555731E+02  0.7818608E-02  0.1437685E+00
          2   -1    0    0  502    0  0.00000000000E+00  0.00000000000E+00  0.79052692537E+03  0.79052692537E+03  0.00000000000E+00 0. -1.
          1   -1    0    0  501    0 -0.00000000000E+00 -0.00000000000E+00 -0.40259900443E+03  0.40259900443E+03  0.00000000000E+00 0. -1.
         25    2    1    2    0    0 -0.37087094607E+02  0.86780753984E+02  0.53248253677E+03  0.55503960121E+03  0.12499982037E+03 0.  0.
          2    1    1    2  501    0  0.29747669610E+02 -0.18500735115E+02 -0.38573348227E+03  0.38732095269E+03  0.00000000000E+00 0. -1.
          1    1    1    2  502    0  0.73394249973E+01 -0.68280018870E+02  0.24117886644E+03  0.25076537591E+03  0.00000000000E+00 0. -1.
         22    1    3    3    0    0 -0.95313065706E+01  0.78432765048E+01 -0.32965299116E+01  0.12776145770E+02  0.00000000000E+00 0. -1.
         22    1    3    3    0    0 -0.27555788036E+02  0.78937477480E+02  0.53577906668E+03  0.54226345544E+03  0.00000000000E+00 0. -1.
</event>
<event>
 7    1  0.5889087E-006  0.1227970E+03  0.7818608E-02  0.1305937E+00
          2   -1    0    0  502    0  0.00000000000E+00  0.00000000000E+00  0.45940545121E+03  0.45940545121E+03  0.00000000000E+00 0. -1.
          1   -1    0    0  501    0 -0.00000000000E+00 -0.00000000000E+00 -0.18444430379E+04  0.18444430379E+04  0.00000000000E+00 0. -1.
         25    2    1    2    0    0  0.42223145985E+02  0.77127004883E+02 -0.51613912875E+02  0.16131177549E+03  0.12500449579E+03 0.  0.
          2    1    1    2  501    0 -0.10545775184E+03 -0.66475020548E+02 -0.17331862672E+04  0.17376636333E+04  0.00000000000E+00 0. -1.
          1    1    1    2  502    0  0.63234605855E+02 -0.10651984335E+02  0.39976259334E+03  0.40487308033E+03  0.00000000000E+00 0. -1.
         22    1    3    3    0    0  0.61871128432E+02  0.97970387600E+02 -0.61283177726E+02  0.13107959892E+03  0.00000000000E+00 0.  1.
         22    1    3    3    0    0 -0.19647982446E+02 -0.20843382717E+02  0.96692648508E+01  0.30232176569E+02  0.00000000000E+00 0.  1.
</event>
<event>
 7    1  0.5889087E-006  0.4383317E+02  0.7818608E-02  0.1493212E+00
          2   -1    0    0  502    0  0.00000000000E+00  0.00000000000E+00  0.17514730187E+04  0.17514730187E+04  0.00000000000E+00 0. -1.
          1   -1    0    0  501    0 -0.00000000000E+00 -0.00000000000E+00 -0.82412232216E+02  0.82412232216E+02  0.00000000000E+00 0. -1.
         25    2    1    2    0    0  0.47777953196E+02 -0.39056801069E+02  0.18165779698E+03  0.22898238685E+03  0.12500084705E+03 0.  0.
          2    1    1    2  501    0 -0.75138276857E+01  0.43040398044E+02 -0.50323741997E+02  0.66643923045E+02  0.00000000000E+00 0. -1.
          1    1    1    2  502    0 -0.40264125511E+02 -0.39835969752E+01  0.15377267315E+04  0.15382589410E+04  0.00000000000E+00 0. -1.
         22    1    3    3    0    0 -0.19074277147E+02  0.30661017463E+02  0.84918972600E+02  0.92277613472E+02  0.00000000000E+00 0.  1.
         22    1    3    3    0    0  0.66852230344E+02 -0.69717818532E+02  0.96738824376E+02  0.13670477338E+03  0.00000000000E+00 0.  1.
</event>
<event>
 7    1  0.5889087E-006  0.1353035E+03  0.7818608E-02  0.1295903E+00
          2   -1    0    0  502    0  0.00000000000E+00  0.00000000000E+00  0.10586486506E+04  0.10586486506E+04  0.00000000000E+00 0. -1.
          1   -1    0    0  501    0 -0.00000000000E+00 -0.00000000000E+00 -0.11424931947E+04  0.11424931947E+04  0.00000000000E+00 0. -1.
         25    2    1    2    0    0 -0.65435015447E+02  0.53977491238E+02  0.13934052104E+03  0.20551401568E+03  0.12499967612E+03 0.  0.
          2    1    1    2  501    0  0.12874300764E+03 -0.45836084216E+02 -0.11040387680E+04  0.11124645208E+04  0.00000000000E+00 0. -1.
          1    1    1    2  502    0 -0.63307992197E+02 -0.81414070223E+01  0.88085370282E+03  0.88316330888E+03  0.00000000000E+00 0. -1.
         22    1    3    3    0    0  0.21327492182E+02 -0.19954956264E+02  0.55182156191E+01  0.29723944992E+02  0.00000000000E+00 0. -1.
         22    1    3    3    0    0 -0.86762507629E+02  0.73932447502E+02  0.13382230542E+03  0.17579007069E+03  0.00000000000E+00 0. -1.
</event>
<event>
 7    1  0.5889087E-006  0.1263038E+03  0.7818608E-02  0.1339090E+00
          2   -1    0    0  502    0  0.00000000000E+00  0.00000000000E+00  0.11866854679E+04  0.11866854679E+04  0.00000000000E+00 0. -1.
          1   -1    0    0  501    0 -0.00000000000E+00 -0.00000000000E+00 -0.17280645431E+03  0.17280645431E+03  0.00000000000E+00 0. -1.
         25    2    1    2    0    0  0.25473302778E+02 -0.78053326212E+02  0.50853796067E+03  0.53007224415E+03  0.12499806274E+03 0.  0.
          2    1    1    2  501    0 -0.42025884824E+02  0.12141592228E+03 -0.13559840061E+03  0.18680183999E+03  0.00000000000E+00 0. -1.
          1    1    1    2  502    0  0.16552582046E+02 -0.43362596063E+02  0.64093945351E+03  0.64261783804E+03  0.00000000000E+00 0. -1.
         22    1    3    3    0    0  0.61033237137E+02  0.26401458983E+01  0.19234913806E+03  0.20181728697E+03  0.00000000000E+00 0.  1.
         22    1    3    3    0    0 -0.35559934360E+02 -0.80693472110E+02  0.31618882261E+03  0.32825495718E+03  0.00000000000E+00 0.  1.
</event>
<event>
 7    1  0.5889087E-006  0.5250997E+03  0.7818608E-02  0.1148406E+00
          2   -1    0    0  502    0  0.00000000000E+00  0.00000000000E+00  0.28085421009E+04  0.28085421009E+04  0.00000000000E+00 0. -1.
          1   -1    0    0  501    0 -0.00000000000E+00 -0.00000000000E+00 -0.14992155984E+04  0.14992155984E+04  0.00000000000E+00 0. -1.
         25    2    1    2    0    0  0.88627463678E+02 -0.55082702529E+03  0.79145436230E+03  0.97636582291E+03  0.12499989378E+03 0.  0.
          2    1    1    2  501    0  0.52696599601E+02  0.56677849595E+02 -0.13713368799E+04  0.13735188926E+04  0.00000000000E+00 0. -1.
          1    1    1    2  502    0 -0.14132406328E+03  0.49414917569E+03  0.18892090201E+04  0.19578729837E+04  0.00000000000E+00 0. -1.
         22    1    3    3    0    0  0.11936553636E+03 -0.46700915449E+03  0.68133564125E+03  0.83460406043E+03  0.00000000000E+00 0. -1.
         22    1    3    3    0    0 -0.30738072679E+02 -0.83817870801E+02  0.11011872104E+03  0.14176176248E+03  0.00000000000E+00 0. -1.
</event>
<event>
 7    1  0.5889087E-006  0.3870726E+03  0.7818608E-02  0.1219779E+00
          2   -1    0    0  502    0  0.00000000000E+00  0.00000000000E+00  0.22308806872E+04  0.22308806872E+04  0.00000000000E+00 0. -1.
          1   -1    0    0  501    0 -0.00000000000E+00 -0.00000000000E+00 -0.14168743762E+04  0.14168743762E+04  0.00000000000E+00 0. -1.
         25    2    1    2    0    0 -0.26849063067E+03 -0.23929552459E+03  0.10395752281E+03  0.39469052849E+03  0.12499551946E+03 0.  0.
          2    1    1    2  501    0  0.26541996873E+03  0.28649818907E+03 -0.12412246977E+04  0.13012177844E+04  0.00000000000E+00 0. -1.
          1    1    1    2  502    0  0.30706619448E+01 -0.47202664486E+02  0.19512734860E+04  0.19518467505E+04  0.00000000000E+00 0. -1.
         22    1    3    3    0    0  0.61148198768E+01 -0.51239532741E+01  0.23663662294E+02  0.24972281282E+02  0.00000000000E+00 0. -1.
         22    1    3    3    0    0 -0.27460545055E+03 -0.23417157131E+03  0.80293860515E+02  0.36971824721E+03  0.00000000000E+00 0. -1.
</event>
<event>
 7    1  0.5889087E-006  0.1342404E+03  0.7818608E-02  0.1258573E+00
          2   -1    0    0  502    0  0.00000000000E+00  0.00000000000E+00  0.32435563386E+04  0.32435563386E+04  0.00000000000E+00 0. -1.
          1   -1    0    0  501    0 -0.00000000000E+00 -0.00000000000E+00 -0.17494931875E+04  0.17494931875E+04  0.00000000000E+00 0. -1.
         25    2    1    2    0    0 -0.16760764851E+03  0.25117665552E+02 -0.34827140065E+03  0.40699040170E+03  0.12499999042E+03 0.  0.
          2    1    1    2  501    0  0.45162525230E+02 -0.80064891539E+02 -0.13689191817E+04  0.13720021015E+04  0.00000000000E+00 0. -1.
          1    1    1    2  502    0  0.12244512328E+03  0.54947225987E+02  0.32112537335E+04  0.32140570229E+04  0.00000000000E+00 0. -1.
         22    1    3    3    0    0 -0.91016961947E+02 -0.49529014313E+02 -0.17417681741E+03  0.20266912529E+03  0.00000000000E+00 0. -1.
         22    1    3    3    0    0 -0.76590686562E+02  0.74646679865E+02 -0.17409458324E+03  0.20432127642E+03  0.00000000000E+00 0. -1.
</event>
<event>
 7    1  0.5889087E-006  0.3679446E+03  0.7818608E-02  0.1217920E+00
          2   -1    0    0  502    0  0.00000000000E+00  0.00000000000E+00  0.22819656266E+04  0.22819656266E+04  0.00000000000E+00 0. -1.
          1   -1    0    0  501    0 -0.00000000000E+00 -0.00000000000E+00 -0.12635150564E+04  0.12635150564E+04  0.00000000000E+00 0. -1.
         25    2    1    2    0    0 -0.10284806177E+03 -0.33470605720E+03  0.24714485376E+03  0.44643157654E+03  0.12495881423E+03 0.  0.
          2    1    1    2  501    0  0.39804429628E+02 -0.31473577377E+02 -0.11454689641E+04  0.11465923976E+04  0.00000000000E+00 0. -1.
          1    1    1    2  502    0  0.63043632146E+02  0.36617963458E+03  0.19167746805E+04  0.19524567089E+04  0.00000000000E+00 0. -1.
         22    1    3    3    0    0 -0.44908093050E+02 -0.33993404113E+02  0.79125148725E+02  0.97124031554E+02  0.00000000000E+00 0.  1.
         22    1    3    3    0    0 -0.57939968724E+02 -0.30071265309E+03  0.16801970503E+03  0.34930754498E+03  0.00000000000E+00 0.  1.
</event>
<event>
 7    1  0.5889087E-006  0.5024050E+02  0.7818608E-02  0.1444556E+00
          2   -1    0    0  502    0  0.00000000000E+00  0.00000000000E+00  0.97709428167E+02  0.97709428167E+02  0.00000000000E+00 0. -1.
          1   -1    0    0  501    0 -0.00000000000E+00 -0.00000000000E+00 -0.37711799175E+03  0.37711799175E+03  0.00000000000E+00 0. -1.
         25    2    1    2    0    0  0.55673680582E+02  0.26606649223E+02 -0.12626207435E+03  0.18808121789E+03  0.12499984244E+03 0.  0.
          2    1    1    2  501    0 -0.11396107182E+02 -0.49944402620E+02 -0.20698846513E+03  0.21323353233E+03  0.00000000000E+00 0. -1.
          1    1    1    2  502    0 -0.44277573400E+02  0.23337753397E+02  0.53841975889E+02  0.73512669707E+02  0.00000000000E+00 0. -1.
         22    1    3    3    0    0  0.46712648900E+02  0.46878353152E+02 -0.14478723012E+03  0.15919482896E+03  0.00000000000E+00 0.  1.
         22    1    3    3    0    0  0.89610316819E+01 -0.20271703929E+02  0.18525155772E+02  0.28886388929E+02  0.00000000000E+00 0.  1.
</event>
<event>
 7    1  0.5889087E-006  0.2104644E+03  0.7818608E-02  0.1225298E+00
          2   -1    0    0  502    0  0.00000000000E+00  0.00000000000E+00  0.10191684350E+04  0.10191684350E+04  0.00000000000E+00 0. -1.
          1   -1    0    0  501    0 -0.00000000000E+00 -0.00000000000E+00 -0.43147779522E+03  0.43147779522E+03  0.00000000000E+00 0. -1.
         25    2    1    2    0    0  0.88138725803E+02  0.24547703204E+03 -0.44814789094E+02  0.29267816452E+03  0.12499893768E+03 0.  0.
          2    1    1    2  501    0 -0.10659127722E+03 -0.16545871822E+03 -0.22362783396E+03  0.29790551512E+03  0.00000000000E+00 0. -1.
          1    1    1    2  502    0  0.18452551417E+02 -0.80018313817E+02  0.85613326288E+03  0.86006255063E+03  0.00000000000E+00 0. -1.
         22    1    3    3    0    0  0.11597234836E+03  0.16037307905E+03 -0.45760425621E+02  0.20313327306E+03  0.00000000000E+00 0.  1.
         22    1    3    3    0    0 -0.27833622562E+02  0.85103952983E+02  0.94563652687E+00  0.89544891461E+02  0.00000000000E+00 0.  1.
</event>
<event>
 7    1  0.5889087E-006  0.4269493E+02  0.7818608E-02  0.1546682E+00
          2   -1    0    0  502    0  0.00000000000E+00  0.00000000000E+00  0.50843975549E+03  0.50843975549E+03  0.00000000000E+00 0. -1.
          1   -1    0    0  501    0 -0.00000000000E+00 -0.00000000000E+00 -0.25668349285E+03  0.25668349285E+03  0.00000000000E+00 0. -1.
         25    2    1    2    0    0  0.44175495622E+02  0.54057140659E+02  0.29388344877E+03  0.32689370647E+03  0.12497345719E+03 0.  0.
          2    1    1    2  501    0 -0.20447122548E+02 -0.37299996422E+02 -0.23721107830E+03  0.24099475144E+03  0.00000000000E+00 0. -1.
          1    1    1    2  502    0 -0.23728373074E+02 -0.16757144238E+02  0.19508389217E+03  0.19723479043E+03  0.00000000000E+00 0. -1.
         22    1    3    3    0    0  0.76278182883E+02  0.62819277863E+02  0.26501996170E+03  0.28284307125E+03  0.00000000000E+00 0. -1.
         22    1    3    3    0    0 -0.32102687261E+02 -0.87621372039E+01  0.28863487071E+02  0.44050635224E+02  0.00000000000E+00 0. -1.
</event>
<event>
 7    1  0.5889087E-006  0.3902266E+02  0.7818608E-02  0.1543193E+00
          2   -1    0    0  502    0  0.00000000000E+00  0.00000000000E+00  0.12464401494E+04  0.12464401494E+04  0.00000000000E+00 0. -1.
          1   -1    0    0  501    0 -0.00000000000E+00 -0.00000000000E+00 -0.17874418906E+03  0.17874418906E+03  0.00000000000E+00 0. -1.
         25    2    1    2    0    0 -0.39685791340E+02 -0.54499693218E+02  0.62509252343E+03  0.64102331698E+03  0.12500020586E+03 0.  0.
          2    1    1    2  501    0  0.12336748049E+02  0.36927658058E+02 -0.16812186718E+03  0.17257117229E+03  0.00000000000E+00 0. -1.
          1    1    1    2  502    0  0.27349043291E+02  0.17572035160E+02  0.61072530404E+03  0.61158984915E+03  0.00000000000E+00 0. -1.
         22    1    3    3    0    0 -0.74212636643E+02 -0.20188066283E+02  0.22080481613E+03  0.23381582557E+03  0.00000000000E+00 0.  1.
         22    1    3    3    0    0  0.34526845303E+02 -0.34311626935E+02  0.40428770730E+03  0.40720749141E+03  0.00000000000E+00 0.  1.
</event>
<event>
 7    1  0.1042794E-005  0.6770991E+02  0.7818608E-02  0.1411947E+00
          2   -1    0    0  502    0  0.00000000000E+00  0.00000000000E+00  0.12061288853E+04  0.12061288853E+04  0.00000000000E+00 0. -1.
          1   -1    0    0  501    0 -0.00000000000E+00 -0.00000000000E+00 -0.10886142950E+04  0.10886142950E+04  0.00000000000E+00 0. -1.
         25    2    1    2    0    0  0.61910971943E+02  0.81016049837E+02 -0.13377832144E+03  0.20956773704E+03  0.12500171335E+03 0.  0.
          2    1    1    2  501    0 -0.44946508756E+02 -0.15620558201E+02 -0.91534600308E+03  0.91658196351E+03  0.00000000000E+00 0. -1.
          1    1    1    2  502    0 -0.16964463188E+02 -0.65395491636E+02  0.11666389148E+04  0.11685934798E+04  0.00000000000E+00 0. -1.
         22    1    3    3    0    0  0.58208018029E+02  0.63503659510E+02 -0.12584166208E+02  0.87058884516E+02  0.00000000000E+00 0. -1.
         22    1    3    3    0    0  0.37029539140E+01  0.17512390326E+02 -0.12119415523E+03  0.12250885252E+03  0.00000000000E+00 0. -1.
</event>
<event>
 7    1  0.5889087E-006  0.3974034E+02  0.7818608E-02  0.1584197E+00
          2   -1    0    0  502    0  0.00000000000E+00  0.00000000000E+00  0.12167780247E+04  0.12167780247E+04  0.00000000000E+00 0. -1.
          1   -1    0    0  501    0 -0.00000000000E+00 -0.00000000000E+00 -0.79977856065E+03  0.79977856065E+03  0.00000000000E+00 0. -1.
         25    2    1    2    0    0  0.45184606184E+02  0.26983525209E+02  0.10058963421E+04  0.10149981593E+04  0.12499621218E+03 0.  0.
          2    1    1    2  501    0 -0.39625292339E+02 -0.29738955353E+01 -0.79399309774E+03  0.79498682197E+03  0.00000000000E+00 0. -1.
          1    1    1    2  502    0 -0.55593138447E+01 -0.24009629674E+02  0.20509621967E+03  0.20657160408E+03  0.00000000000E+00 0. -1.
         22    1    3    3    0    0  0.83000425676E+02  0.44024155733E+02  0.72220798022E+03  0.72829359715E+03  0.00000000000E+00 0.  1.
         22    1    3    3    0    0 -0.37815819492E+02 -0.17040630524E+02  0.28368836193E+03  0.28670456220E+03  0.00000000000E+00 0.  1.
</event>
<event>
 7    1  0.5889087E-006  0.5094209E+02  0.7818608E-02  0.1490898E+00
          2   -1    0    0  502    0  0.00000000000E+00  0.00000000000E+00  0.35510303805E+03  0.35510303805E+03  0.00000000000E+00 0. -1.
          1   -1    0    0  501    0 -0.00000000000E+00 -0.00000000000E+00 -0.33247469234E+03  0.33247469234E+03  0.00000000000E+00 0. -1.
         25    2    1    2    0    0 -0.79670686089E+02  0.27007019107E+02 -0.28772262676E+02  0.15339044726E+03  0.12499595557E+03 0.  0.
          2    1    1    2  501    0  0.35171976458E+02 -0.38188359575E+01 -0.23792588309E+03  0.24054184102E+03  0.00000000000E+00 0. -1.
          1    1    1    2  502    0  0.44498709631E+02 -0.23188183149E+02  0.28932649148E+03  0.29364544210E+03  0.00000000000E+00 0. -1.
         22    1    3    3    0    0 -0.15111902298E+02  0.26940676265E+02  0.45491997698E+02  0.54988103106E+02  0.00000000000E+00 0. -1.
         22    1    3    3    0    0 -0.64558783791E+02  0.66342842090E-01 -0.74264260374E+02  0.98402344153E+02  0.00000000000E+00 0. -1.
</event>
<event>
 7    1  0.5889087E-006  0.5711500E+02  0.7818608E-02  0.1413481E+00
          2   -1    0    0  502    0  0.00000000000E+00  0.00000000000E+00  0.35912437397E+03  0.35912437397E+03  0.00000000000E+00 0. -1.
          1   -1    0    0  501    0 -0.00000000000E+00 -0.00000000000E+00 -0.43954667732E+03  0.43954667732E+03  0.00000000000E+00 0. -1.
         25    2    1    2    0    0  0.22279991932E+02  0.87736025106E+01  0.11646828390E+03  0.17253853604E+03  0.12502524194E+03 0.  0.
          2    1    1    2  501    0 -0.35996601662E+02  0.45254364716E+02 -0.40580772843E+03  0.40990684956E+03  0.00000000000E+00 0. -1.
          1    1    1    2  502    0  0.13716609730E+02 -0.54027967227E+02  0.20891714118E+03  0.21622566569E+03  0.00000000000E+00 0. -1.
         22    1    3    3    0    0 -0.42938599298E+02  0.13241626015E+02  0.92635341334E+02  0.10295810038E+03  0.00000000000E+00 0. -1.
         22    1    3    3    0    0  0.65218591230E+02 -0.44680235042E+01  0.23832942570E+02  0.69580435667E+02  0.00000000000E+00 0. -1.
</event>
<event>
 7    1  0.5889087E-006  0.4611615E+02  0.7818608E-02  0.1478410E+00
          2   -1    0    0  502    0  0.00000000000E+00  0.00000000000E+00  0.24919210152E+03  0.24919210152E+03  0.00000000000E+00 0. -1.
          1   -1    0    0  501    0 -0.00000000000E+00 -0.00000000000E+00 -0.64289871845E+03  0.64289871845E+03  0.00000000000E+00 0. -1.
         25    2    1    2    0    0  0.43921962022E+02  0.63883128405E+02 -0.28657407268E+03  0.32211790950E+03  0.12500022259E+03 0.  0.
          2    1    1    2  501    0 -0.32350652549E+01 -0.42537890903E+02 -0.33490570671E+03  0.33761186323E+03  0.00000000000E+00 0. -1.
          1    1    1    2  502    0 -0.40686896767E+02 -0.21345237502E+02  0.22777316246E+03  0.23236104723E+03  0.00000000000E+00 0. -1.
         22    1    3    3    0    0 -0.37133416279E+00 -0.36592612495E+02 -0.85809058860E+02  0.93286396440E+02  0.00000000000E+00 0. -1.
         22    1    3    3    0    0  0.44293296185E+02  0.10047574090E+03 -0.20076501382E+03  0.22883151306E+03  0.00000000000E+00 0. -1.
</event>
<event>
 7    1  0.5889087E-006  0.8124525E+02  0.7818608E-02  0.1418906E+00
          2   -1    0    0  502    0  0.00000000000E+00  0.00000000000E+00  0.51844980512E+03  0.51844980512E+03  0.00000000000E+00 0. -1.
          1   -1    0    0  501    0 -0.00000000000E+00 -0.00000000000E+00 -0.61240657928E+03  0.61240657928E+03  0.00000000000E+00 0. -1.
         25    2    1    2    0    0  0.10932048326E+03 -0.14062617117E+02  0.16153136121E+03  0.23209188423E+03  0.12500214722E+03 0.  0.
          2    1    1    2  501    0 -0.80281372614E+02 -0.97849368410E+01 -0.57318024332E+03  0.57885787125E+03  0.00000000000E+00 0. -1.
          1    1    1    2  502    0 -0.29039110642E+02  0.23847553958E+02  0.31769210795E+03  0.31990662892E+03  0.00000000000E+00 0. -1.
         22    1    3    3    0    0  0.37694029944E+02 -0.41555709309E+02  0.14235206876E+03  0.15300924270E+03  0.00000000000E+00 0. -1.
         22    1    3    3    0    0  0.71626453312E+02  0.27493092193E+02  0.19179292450E+02  0.79082641529E+02  0.00000000000E+00 0. -1.
</event>
<event>
 7    1  0.5889087E-006  0.1876807E+03  0.7818608E-02  0.1186851E+00
          2   -1    0    0  502    0  0.00000000000E+00  0.00000000000E+00  0.60206117794E+03  0.60206117794E+03  0.00000000000E+00 0. -1.
          1   -1    0    0  501    0 -0.00000000000E+00 -0.00000000000E+00 -0.33808637542E+03  0.33808637542E+03  0.00000000000E+00 0. -1.
         25    2    1    2    0    0  0.50480523302E+02 -0.61743430157E+02  0.17382127388E+03  0.22847234739E+03  0.12500097547E+03 0.  0.
          2    1    1    2  501    0 -0.55597027910E+02  0.20087189962E+03 -0.26095402382E+03  0.33397238227E+03  0.00000000000E+00 0. -1.
          1    1    1    2  502    0  0.51165046075E+01 -0.13912846946E+03  0.35110755246E+03  0.37770282370E+03  0.00000000000E+00 0. -1.
         22    1    3    3    0    0 -0.23458285775E+01 -0.71783205198E+02  0.35600763983E+02  0.80160750099E+02  0.00000000000E+00 0.  1.
         22    1    3    3    0    0  0.52826351880E+02  0.10039775041E+02  0.13822050990E+03  0.14831159729E+03  0.00000000000E+00 0.  1.
</event>
<event>
 7    1  0.5889087E-006  0.6459220E+02  0.7818608E-02  0.1430687E+00
          2   -1    0    0  502    0  0.00000000000E+00  0.00000000000E+00  0.82893094225E+03  0.82893094225E+03  0.00000000000E+00 0. -1.
          1   -1    0    0  501    0 -0.00000000000E+00 -0.00000000000E+00 -0.10687826432E+03  0.10687826432E+03  0.00000000000E+00 0. -1.
         25    2    1    2    0    0 -0.86785905376E+02 -0.44581399125E+02  0.27683959255E+03  0.31903484841E+03  0.12499511980E+03 0.  0.
          2    1    1    2  501    0  0.25443810552E+02  0.34908711911E+02 -0.78388599082E+02  0.89502950391E+02  0.00000000000E+00 0. -1.
          1    1    1    2  502    0  0.61342094824E+02  0.96726872135E+01  0.52360168447E+03  0.52727140777E+03  0.00000000000E+00 0. -1.
         22    1    3    3    0    0 -0.27474060890E+02 -0.66374080724E+02  0.22835749795E+03  0.23938982744E+03  0.00000000000E+00 0. -1.
         22    1    3    3    0    0 -0.59311844486E+02  0.21792681600E+02  0.48482094609E+02  0.79645020970E+02  0.00000000000E+00 0. -1.
</event>
<event>
 7    1  0.5889087E-006  0.7321477E+02  0.7818608E-02  0.1372777E+00
          2   -1    0    0  502    0  0.00000000000E+00  0.00000000000E+00  0.26736484230E+03  0.26736484230E+03  0.00000000000E+00 0. -1.
          1   -1    0    0  501    0 -0.00000000000E+00 -0.00000000000E+00 -0.14815423647E+04  0.14815423647E+04  0.00000000000E+00 0. -1.
         25    2    1    2    0    0 -0.24228925027E+02 -0.11365182801E+02  0.69347873551E+02  0.14543588338E+03  0.12500504158E+03 0.  0.
          2    1    1    2  501    0  0.18598210784E+02  0.71323098503E+02 -0.14368524316E+04  0.14387417378E+04  0.00000000000E+00 0. -1.
          1    1    1    2  502    0  0.56307142435E+01 -0.59957915702E+02  0.15332703564E+03  0.16472958585E+03  0.00000000000E+00 0. -1.
         22    1    3    3    0    0  0.31684698768E+02 -0.11961905180E+02 -0.20514920851E+02  0.39596329238E+02  0.00000000000E+00 0. -1.
         22    1    3    3    0    0 -0.55913623795E+02  0.59672237861E+00  0.89862794402E+02  0.10583955414E+03  0.00000000000E+00 0. -1.
</event>
<event>
 7    1  0.5889087E-006  0.5507493E+02  0.7818608E-02  0.1551875E+00
          2   -1    0    0  502    0  0.00000000000E+00  0.00000000000E+00  0.50126005955E+03  0.50126005955E+03  0.00000000000E+00 0. -1.
          1   -1    0    0  501    0 -0.00000000000E+00 -0.00000000000E+00 -0.51896928153E+03  0.51896928153E+03  0.00000000000E+00 0. -1.
         25    2    1    2    0    0 -0.47774512125E+02  0.19421533661E+02 -0.23676182260E+03  0.27265617349E+03  0.12500251326E+03 0.  0.
          2    1    1    2  501    0 -0.73371054274E+01 -0.20506546030E+02 -0.26223568482E+03  0.26313856794E+03  0.00000000000E+00 0. -1.
          1    1    1    2  502    0  0.55111617552E+02  0.10850123690E+01  0.48128828544E+03  0.48443459965E+03  0.00000000000E+00 0. -1.
         22    1    3    3    0    0 -0.90687755489E+02  0.14930484375E+02 -0.15470437770E+03  0.17994619429E+03  0.00000000000E+00 0.  1.
         22    1    3    3    0    0  0.42913243364E+02  0.44910492859E+01 -0.82057444901E+02  0.92709979200E+02  0.00000000000E+00 0.  1.
</event>
<event>
 7    1  0.5889087E-006  0.8136218E+02  0.7818608E-02  0.1361355E+00
          2   -1    0    0  502    0  0.00000000000E+00  0.00000000000E+00  0.43554762123E+03  0.43554762123E+03  0.00000000000E+00 0. -1.
          1   -1    0    0  501    0 -0.00000000000E+00 -0.00000000000E+00 -0.26879828983E+03  0.26879828983E+03  0.00000000000E+00 0. -1.
         25    2    1    2    0    0  0.31039466332E+02  0.53204265993E+02  0.85289303026E+02  0.16338157511E+03  0.12500052593E+03 0.  0.
          2    1    1    2  501    0  0.21775659850E+02 -0.80799574966E+02 -0.21910894654E+03  0.23454526457E+03  0.00000000000E+00 0. -1.
          1    1    1    2  502    0 -0.52815126183E+02  0.27595308973E+02  0.30056897491E+03  0.30641907139E+03  0.00000000000E+00 0. -1.
         22    1    3    3    0    0  0.27145405045E+02  0.80354708659E+02  0.12672576665E+02  0.85757486076E+02  0.00000000000E+00 0. -1.
         22    1    3    3    0    0  0.38940612871E+01 -0.27150442666E+02  0.72616726361E+02  0.77624089030E+02  0.00000000000E+00 0. -1.
</event>
<event>
 7    1  0.5889087E-006  0.1079218E+03  0.7818608E-02  0.1345215E+00
          2   -1    0    0  502    0  0.00000000000E+00  0.00000000000E+00  0.73581418486E+03  0.73581418486E+03  0.00000000000E+00 0. -1.
          1   -1    0    0  501    0 -0.00000000000E+00 -0.00000000000E+00 -0.50241852867E+03  0.50241852867E+03  0.00000000000E+00 0. -1.
         25    2    1    2    0    0  0.10671605729E+03  0.79013642702E+02 -0.38239776718E+02  0.18632993073E+03  0.12500035978E+03 0.  0.
          2    1    1    2  501    0 -0.10262904584E+03 -0.27654110237E+02 -0.38186139666E+03  0.39637809869E+03  0.00000000000E+00 0. -1.
          1    1    1    2  502    0 -0.40870114419E+01 -0.51359532465E+02  0.65349682956E+03  0.65552468412E+03  0.00000000000E+00 0. -1.
         22    1    3    3    0    0  0.11036479892E+03  0.22037585077E+02 -0.57103358267E+02  0.12620157496E+03  0.00000000000E+00 0.  1.
         22    1    3    3    0    0 -0.36487416380E+01  0.56976057625E+02  0.18863581549E+02  0.60128355764E+02  0.00000000000E+00 0.  1.
</event>
<event>
 7    1  0.5889087E-006  0.6490128E+02  0.7818608E-02  0.1486144E+00
          2   -1    0    0  502    0  0.00000000000E+00  0.00000000000E+00  0.41446560795E+03  0.41446560795E+03  0.00000000000E+00 0. -1.
          1   -1    0    0  501    0 -0.00000000000E+00 -0.00000000000E+00 -0.74663332096E+03  0.74663332096E+03  0.00000000000E+00 0. -1.
         25    2    1    2    0    0  0.19424040943E+02 -0.38835247702E+02  0.17488930215E+03  0.21930773097E+03  0.12499657205E+03 0.  0.
          2    1    1    2  501    0  0.11630694263E+01 -0.28682747936E+02 -0.71839936345E+03  0.71897266858E+03  0.00000000000E+00 0. -1.
          1    1    1    2  502    0 -0.20587110369E+02  0.67517995638E+02  0.21134234829E+03  0.22281852937E+03  0.00000000000E+00 0. -1.
         22    1    3    3    0    0 -0.33227222896E+02 -0.65290929484E+02  0.91890913563E+02  0.11751975923E+03  0.00000000000E+00 0. -1.
         22    1    3    3    0    0  0.52651263839E+02  0.26455681782E+02  0.82998388584E+02  0.10178797174E+03  0.00000000000E+00 0. -1.
</event>
<event>
 7    1  0.5889087E-006  0.6737431E+02  0.7818608E-02  0.1378327E+00
          2   -1    0    0  502    0  0.00000000000E+00  0.00000000000E+00  0.96355681368E+03  0.96355681368E+03  0.00000000000E+00 0. -1.
          1   -1    0    0  501    0 -0.00000000000E+00 -0.00000000000E+00 -0.47907514949E+03  0.47907514949E+03  0.00000000000E+00 0. -1.
         25    2    1    2    0    0 -0.55306768548E+02  0.19103730476E+02 -0.52254565722E+02  0.14757788180E+03  0.12499960157E+03 0.  0.
          2    1    1    2  501    0  0.16127435669E+02 -0.67834128919E+02 -0.37487342342E+03  0.38130256597E+03  0.00000000000E+00 0. -1.
          1    1    1    2  502    0  0.39179332879E+02  0.48730398443E+02  0.91160965333E+03  0.91375151541E+03  0.00000000000E+00 0. -1.
         22    1    3    3    0    0 -0.87429421437E+02 -0.93056774011E+01 -0.56458023992E+02  0.10448927140E+03  0.00000000000E+00 0.  1.
         22    1    3    3    0    0  0.32122652889E+02  0.28409407877E+02  0.42034582700E+01  0.43088610397E+02  0.00000000000E+00 0.  1.
</event>
<event>
 7    1  0.5889087E-006  0.1947955E+03  0.7818608E-02  0.1186482E+00
          2   -1    0    0  502    0  0.00000000000E+00  0.00000000000E+00  0.36720299262E+03  0.36720299262E+03  0.00000000000E+00 0. -1.
          1   -1    0    0  501    0 -0.00000000000E+00 -0.00000000000E+00 -0.29688838200E+03  0.29688838200E+03  0.00000000000E+00 0. -1.
         25    2    1    2    0    0  0.45518021814E+02 -0.87904784091E+02  0.20964647840E+03  0.26336805235E+03  0.12494776395E+03 0.  0.
          2    1    1    2  501    0 -0.12078850267E+03  0.19959848557E+03 -0.48557698528E+02  0.23830079292E+03  0.00000000000E+00 0. -1.
          1    1    1    2  502    0  0.75270480857E+02 -0.11169370148E+03 -0.90774169244E+02  0.16242252935E+03  0.00000000000E+00 0. -1.
         22    1    3    3    0    0 -0.26129368488E+02  0.10753696004E+02  0.82506372909E+02  0.87210592510E+02  0.00000000000E+00 0. -1.
         22    1    3    3    0    0  0.71647390302E+02 -0.98658480096E+02  0.12714010549E+03  0.17615745984E+03  0.00000000000E+00 0. -1.
</event>
<event>
 7    1  0.5889087E-006  0.9584459E+02  0.7818608E-02  0.1310121E+00
          2   -1    0    0  502    0  0.00000000000E+00  0.00000000000E+00  0.11627638084E+03  0.11627638084E+03  0.00000000000E+00 0. -1.
          1   -1    0    0  501    0 -0.00000000000E+00 -0.00000000000E+00 -0.23692277255E+04  0.23692277255E+04  0.00000000000E+00 0. -1.
         25    2    1    2    0    0  0.45510103696E+02  0.11121168260E+03 -0.34371778152E+03  0.38497593628E+03  0.12500140119E+03 0.  0.
          2    1    1    2  501    0  0.40303009470E+02 -0.68048659137E+02 -0.19797735014E+04  0.19813525858E+04  0.00000000000E+00 0. -1.
          1    1    1    2  502    0 -0.85813113166E+02 -0.43163023462E+02  0.70539938255E+02  0.11917558422E+03  0.00000000000E+00 0. -1.
         22    1    3    3    0    0  0.88939002147E+02  0.82322544991E+02 -0.23642655264E+03  0.26567774146E+03  0.00000000000E+00 0.  1.
         22    1    3    3    0    0 -0.43428898451E+02  0.28889137608E+02 -0.10729122888E+03  0.11929819481E+03  0.00000000000E+00 0.  1.
</event>
<event>
 7    1  0.5889087E-006  0.8214568E+02  0.7818608E-02  0.1365851E+00
          2   -1    0    0  502    0  0.00000000000E+00  0.00000000000E+00  0.13665601453E+03  0.13665601453E+03  0.00000000000E+00 0. -1.
          1   -1    0    0  501    0 -0.00000000000E+00 -0.00000000000E+00 -0.38690619937E+03  0.38690619937E+03  0.00000000000E+00 0. -1.
         25    2    1    2    0    0  0.89683794346E+02  0.87896103373E+02  0.27745598607E+02  0.17934123288E+03  0.12499820643E+03 0.  0.
          2    1    1    2  501    0 -0.72720361887E+02 -0.33641301068E+02 -0.27594148415E+03  0.28733898247E+03  0.00000000000E+00 0. -1.
          1    1    1    2  502    0 -0.16963432459E+02 -0.54254802305E+02 -0.20542992975E+01  0.56881998554E+02  0.00000000000E+00 0. -1.
         22    1    3    3    0    0  0.92877071945E+01  0.90001360445E+01  0.60632965123E+02  0.61996938742E+02  0.00000000000E+00 0.  1.
         22    1    3    3    0    0  0.80396087151E+02  0.78895967329E+02 -0.32887366517E+02  0.11734429414E+03  0.00000000000E+00 0.  1.
</event>
<event>
 7    1  0.5889087E-006  0.1420221E+03  0.7818608E-02  0.1348249E+00
          2   -1    0    0  502    0  0.00000000000E+00  0.00000000000E+00  0.18949490684E+04  0.18949490684E+04  0.00000000000E+00 0. -1.
          1   -1    0    0  501    0 -0.00000000000E+00 -0.00000000000E+00 -0.26615725967E+03  0.26615725967E+03  0.00000000000E+00 0. -1.
         25    2    1    2    0    0  0.11759350473E+03  0.39204456774E+02 -0.42683732072E+02  0.18114116513E+03  0.12499999574E+03 0.  0.
          2    1    1    2  501    0 -0.15120319511E+03 -0.21162870140E+02 -0.11621014704E+03  0.19187253988E+03  0.00000000000E+00 0. -1.
          1    1    1    2  502    0  0.33609690377E+02 -0.18041586634E+02  0.17876856879E+04  0.17880926231E+04  0.00000000000E+00 0. -1.
         22    1    3    3    0    0  0.92436682853E+02 -0.16939586309E+02  0.16913337751E+02  0.95485867619E+02  0.00000000000E+00 0. -1.
         22    1    3    3    0    0  0.25156821880E+02  0.56144043083E+02 -0.59597069823E+02  0.85655297514E+02  0.00000000000E+00 0. -1.
</event>
<event>
 7    1  0.5889087E-006  0.1446860E+03  0.7818608E-02  0.1343259E+00
          2   -1    0    0  502    0  0.00000000000E+00  0.00000000000E+00  0.18345766180E+04  0.18345766180E+04  0.00000000000E+00 0. -1.
          1   -1    0    0  501    0 -0.00000000000E+00 -0.00000000000E+00 -0.20705208122E+03  0.20705208122E+03  0.00000000000E+00 0. -1.
         25    2    1    2    0    0  0.62044066801E+01  0.12230749948E+03  0.34535693276E+03  0.38716228028E+03  0.12500240467E+03 0.  0.
          2    1    1    2  501    0  0.32478858594E+02  0.21739289690E+02 -0.18026227278E+03  0.18445042683E+03  0.00000000000E+00 0. -1.
          1    1    1    2  502    0 -0.38683265274E+02 -0.14404678917E+03  0.14624298768E+04  0.14700159921E+04  0.00000000000E+00 0. -1.
         22    1    3    3    0    0  0.15380725996E+02 -0.20278062415E+02  0.21987960203E+02  0.33633865989E+02  0.00000000000E+00 0.  1.
         22    1    3    3    0    0 -0.91763193157E+01  0.14258556190E+03  0.32336897256E+03  0.35352841429E+03  0.00000000000E+00 0.  1.
</event>
<event>
 7    1  0.5889087E-006  0.3564367E+02  0.7818608E-02  0.1616540E+00
          2   -1    0    0  502    0  0.00000000000E+00  0.00000000000E+00  0.93438781794E+02  0.93438781794E+02  0.00000000000E+00 0. -1.
          1   -1    0    0  501    0 -0.00000000000E+00 -0.00000000000E+00 -0.12370546908E+03  0.12370546908E+03  0.00000000000E+00 0. -1.
         25    2    1    2    0    0 -0.21361957604E+02 -0.54470596725E+01 -0.35059588140E+02  0.13167781205E+03  0.12499547101E+03 0.  0.
          2    1    1    2  501    0  0.28360399137E+02  0.26957500900E+02 -0.26204978476E+02  0.47092674493E+02  0.00000000000E+00 0. -1.
          1    1    1    2  502    0 -0.69984415334E+01 -0.21510441227E+02  0.30997879334E+02  0.38373764331E+02  0.00000000000E+00 0. -1.
         22    1    3    3    0    0  0.27541464607E+02 -0.34720507031E+02  0.23329193360E+02  0.50082902711E+02  0.00000000000E+00 0. -1.
         22    1    3    3    0    0 -0.48903422211E+02  0.29273447359E+02 -0.58388781500E+02  0.81594909334E+02  0.00000000000E+00 0. -1.
</event>
<event>
 7    1  0.5889087E-006  0.4873283E+02  0.7818608E-02  0.1503288E+00
          2   -1    0    0  502    0  0.00000000000E+00  0.00000000000E+00  0.18508351977E+04  0.18508351977E+04  0.00000000000E+00 0. -1.
          1   -1    0    0  501    0 -0.00000000000E+00 -0.00000000000E+00 -0.65555671277E+02  0.65555671277E+02  0.00000000000E+00 0. -1.
         25    2    1    2    0    0 -0.15988103772E+02  0.43995558759E+02  0.34736262385E+02  0.13792300491E+03  0.12499967482E+03 0.  0.
          2    1    1    2  501    0 -0.26916393405E+02 -0.20695411788E+02  0.75387100597E+01  0.34779655725E+02  0.00000000000E+00 0. -1.
          1    1    1    2  502    0  0.42904497176E+02 -0.23300146970E+02  0.17430045540E+04  0.17436882084E+04  0.00000000000E+00 0. -1.
         22    1    3    3    0    0  0.27618662191E+02  0.36617913414E+02  0.68391604795E+02  0.82347274942E+02  0.00000000000E+00 0.  1.
         22    1    3    3    0    0 -0.43606765963E+02  0.73776453442E+01 -0.33655342410E+02  0.55575729966E+02  0.00000000000E+00 0.  1.
</event>
<event>
 7    1  0.5889087E-006  0.1983664E+03  0.7818608E-02  0.1283585E+00
          2   -1    0    0  502    0  0.00000000000E+00  0.00000000000E+00  0.42640842491E+03  0.42640842491E+03  0.00000000000E+00 0. -1.
          1   -1    0    0  501    0 -0.00000000000E+00 -0.00000000000E+00 -0.13806002414E+04  0.13806002414E+04  0.00000000000E+00 0. -1.
         25    2    1    2    0    0 -0.16951874877E+03  0.16866392976E+03 -0.66492064666E+03  0.71758541761E+03  0.12500095130E+03 0.  0.
          2    1    1    2  501    0  0.14981581678E+02 -0.46509982892E+02 -0.66414767929E+03  0.66594276496E+03  0.00000000000E+00 0. -1.
          1    1    1    2  502    0  0.15453716709E+03 -0.12215394686E+03  0.37487650947E+03  0.42348048373E+03  0.00000000000E+00 0. -1.
         22    1    3    3    0    0 -0.11420640495E+03  0.11733247423E+03 -0.27197253124E+03  0.31745719427E+03  0.00000000000E+00 0. -1.
         22    1    3    3    0    0 -0.55312343814E+02  0.51331455525E+02 -0.39294811542E+03  0.40012822335E+03  0.00000000000E+00 0. -1.
</event>
<event>
 7    1  0.5889087E-006  0.7594505E+02  0.7818608E-02  0.1365904E+00
          2   -1    0    0  502    0  0.00000000000E+00  0.00000000000E+00  0.67811790568E+03  0.67811790568E+03  0.00000000000E+00 0. -1.
          1   -1    0    0  501    0 -0.00000000000E+00 -0.00000000000E+00 -0.20411622380E+03  0.20411622380E+03  0.00000000000E+00 0. -1.
         25    2    1    2    0    0 -0.25615627441E+01  0.44451842015E+02  0.20480888277E+03  0.24406680567E+03  0.12505758396E+03 0.  0.
          2    1    1    2  501    0  0.58340836642E+02  0.19327427519E+02 -0.17525304239E+03  0.18571707391E+03  0.00000000000E+00 0. -1.
          1    1    1    2  502    0 -0.55779273898E+02 -0.63779269533E+02  0.44444584149E+03  0.45245024990E+03  0.00000000000E+00 0. -1.
         22    1    3    3    0    0  0.69982361272E+01  0.53630356097E+02  0.21845132884E+03  0.22504704725E+03  0.00000000000E+00 0. -1.
         22    1    3    3    0    0 -0.95597988713E+01 -0.91785140829E+01 -0.13642446076E+02  0.19019758415E+02  0.00000000000E+00 0. -1.
</event>
<event>
 7    1  0.5889087E-006  0.1113517E+03  0.7818608E-02  0.1446848E+00
          2   -1    0    0  502    0  0.00000000000E+00  0.00000000000E+00  0.57983877885E+03  0.57983877885E+03  0.00000000000E+00 0. -1.
          1   -1    0    0  501    0 -0.00000000000E+00 -0.00000000000E+00 -0.31643108306E+03  0.31643108306E+03  0.00000000000E+00 0. -1.
         25    2    1    2    0    0  0.82038790894E+02  0.38457545588E+02 -0.76527117108E+02  0.17230992723E+03  0.12499986138E+03 0.  0.
          2    1    1    2  501    0  0.21711667835E+02  0.46412186949E+01 -0.18541105873E+03  0.18673563702E+03  0.00000000000E+00 0. -1.
          1    1    1    2  502    0 -0.10375045873E+03 -0.43098764283E+02  0.52534587163E+03  0.53722429767E+03  0.00000000000E+00 0. -1.
         22    1    3    3    0    0  0.55095113221E+02  0.84253630091E+02 -0.42896030127E+02  0.10942675671E+03  0.00000000000E+00 0.  1.
         22    1    3    3    0    0  0.26943677673E+02 -0.45796084503E+02 -0.33631086981E+02  0.62883170514E+02  0.00000000000E+00 0.  1.
</event>
<event>
 7    1  0.5889087E-006  0.1791026E+03  0.7818608E-02  0.1240008E+00
          2   -1    0    0  502    0  0.00000000000E+00  0.00000000000E+00  0.26001252730E+04  0.26001252730E+04  0.00000000000E+00 0. -1.
          1   -1    0    0  501    0 -0.00000000000E+00 -0.00000000000E+00 -0.25862331291E+03  0.25862331291E+03  0.00000000000E+00 0. -1.
         25    2    1    2    0    0  0.12388345011E+03 -0.18762150100E+03  0.46715651460E+03  0.53330011451E+03  0.12499946461E+03 0.  0.
          2    1    1    2  501    0 -0.14108772297E+03  0.10646924747E+03 -0.18996222552E+03  0.25947464877E+03  0.00000000000E+00 0. -1.
          1    1    1    2  502    0  0.17204272856E+02  0.81152253531E+02  0.20643076710E+04  0.20659738226E+04  0.00000000000E+00 0. -1.
         22    1    3    3    0    0 -0.12718899229E+02  0.61978706610E+01  0.73289739543E+01  0.15934172634E+02  0.00000000000E+00 0. -1.
         22    1    3    3    0    0  0.13660234934E+03 -0.19381937166E+03  0.45982754064E+03  0.51736594187E+03  0.00000000000E+00 0. -1.
</event>
<event>
 7    1  0.5889087E-006  0.9682558E+02  0.7818608E-02  0.1290485E+00
          2   -1    0    0  502    0  0.00000000000E+00  0.00000000000E+00  0.20523986514E+04  0.20523986514E+04  0.00000000000E+00 0. -1.
          1   -1    0    0  501    0 -0.00000000000E+00 -0.00000000000E+00 -0.26850909112E+02  0.26850909112E+02  0.00000000000E+00 0. -1.
         25    2    1    2    0    0 -0.32583550704E+02 -0.94495687636E+02  0.36801168083E+03  0.40130888060E+03  0.12500039065E+03 0.  0.
          2    1    1    2  501    0 -0.60956640961E+02  0.10164666579E+03  0.13778921334E+04  0.13829802920E+04  0.00000000000E+00 0. -1.
          1    1    1    2  502    0  0.93540191665E+02 -0.71509781496E+01  0.27964392805E+03  0.29496038792E+03  0.00000000000E+00 0. -1.
         22    1    3    3    0    0 -0.71846920871E+02 -0.20682426117E+02  0.14499670523E+03  0.16313732656E+03  0.00000000000E+00 0.  1.
         22    1    3    3    0    0  0.39263370167E+02 -0.73813261519E+02  0.22301497560E+03  0.23817155404E+03  0.00000000000E+00 0.  1.
</event>
<event>
 7    1  0.5889087E-006  0.5320174E+02  0.7818608E-02  0.1474127E+00
          2   -1    0    0  502    0  0.00000000000E+00  0.00000000000E+00  0.23438532788E+03  0.23438532788E+03  0.00000000000E+00 0. -1.
          1   -1    0    0  501    0 -0.00000000000E+00 -0.00000000000E+00 -0.15115061253E+04  0.15115061253E+04  0.00000000000E+00 0. -1.
         25    2    1    2    0    0  0.43614879418E+02  0.67915235152E+02 -0.13727313926E+03  0.20244292707E+03  0.12499794832E+03 0.  0.
          2    1    1    2  501    0 -0.43665156651E+02 -0.29794503743E+02 -0.13393217477E+04  0.13403645408E+04  0.00000000000E+00 0. -1.
          1    1    1    2  502    0  0.50277232236E-01 -0.38120731409E+02  0.19947408955E+03  0.20308398532E+03  0.00000000000E+00 0. -1.
         22    1    3    3    0    0  0.47345606057E+01 -0.28713484605E+02  0.12520587000E+01  0.29128129244E+02  0.00000000000E+00 0. -1.
         22    1    3    3    0    0  0.38880318813E+02  0.96628719757E+02 -0.13852519796E+03  0.17331479782E+03  0.00000000000E+00 0. -1.
</event>
<event>
 7    1  0.5889087E-006  0.2270245E+03  0.7818608E-02  0.1305465E+00
          2   -1    0    0  502    0  0.00000000000E+00  0.00000000000E+00  0.17642502296E+04  0.17642502296E+04  0.00000000000E+00 0. -1.
          1   -1    0    0  501    0 -0.00000000000E+00 -0.00000000000E+00 -0.20965798897E+03  0.20965798897E+03  0.00000000000E+00 0. -1.
         25    2    1    2    0    0 -0.25308463896E+03 -0.28328436759E+02 -0.14367460000E+02  0.28405202861E+03  0.12499918498E+03 0.  0.
          2    1    1    2  501    0  0.27581589453E+02  0.21277746810E+02 -0.46844371123E+02  0.58377064777E+02  0.00000000000E+00 0. -1.
          1    1    1    2  502    0  0.22550304951E+03  0.70506899494E+01  0.16158040718E+04  0.16314791252E+04  0.00000000000E+00 0. -1.
         22    1    3    3    0    0 -0.65541586709E+02 -0.55573089671E+02 -0.36284591580E+02  0.93277218387E+02  0.00000000000E+00 0. -1.
         22    1    3    3    0    0 -0.18754305225E+03  0.27244652911E+02  0.21917131580E+02  0.19077481023E+03  0.00000000000E+00 0. -1.
</event>
<event>
 7    1  0.5889087E-006  0.1361529E+03  0.7818608E-02  0.1306883E+00
          2   -1    0    0  502    0  0.00000000000E+00  0.00000000000E+00  0.25689926242E+03  0.25689926242E+03  0.00000000000E+00 0. -1.
          1   -1    0    0  501    0 -0.00000000000E+00 -0.00000000000E+00 -0.59170174110E+03  0.59170174110E+03  0.00000000000E+00 0. -1.
         25    2    1    2    0    0  0.11984070802E+03 -0.14035251834E+03 -0.14458375731E+03  0.26568770654E+03  0.12499947931E+03 0.  0.
          2    1    1    2  501    0 -0.87294428021E+02  0.93146881458E+02 -0.37147821755E+03  0.39280112627E+03  0.00000000000E+00 0. -1.
          1    1    1    2  502    0 -0.32546280000E+02  0.47205636878E+02  0.18125949617E+03  0.19011217070E+03  0.00000000000E+00 0. -1.
         22    1    3    3    0    0  0.11213956267E+03 -0.14423504315E+03 -0.16332366563E+03  0.24505846025E+03  0.00000000000E+00 0.  1.
         22    1    3    3    0    0  0.77011453526E+01  0.38825248125E+01  0.18739908318E+02  0.20629246288E+02  0.00000000000E+00 0.  1.
</event>
<event>
 7    1  0.5889087E-006  0.1564738E+03  0.7818608E-02  0.1261660E+00
          2   -1    0    0  502    0  0.00000000000E+00  0.00000000000E+00  0.27067045235E+04  0.27067045235E+04  0.00000000000E+00 0. -1.
          1   -1    0    0  501    0 -0.00000000000E+00 -0.00000000000E+00 -0.49669980574E+02  0.49669980574E+02  0.00000000000E+00 0. -1.
         25    2    1    2    0    0 -0.15717903828E+03 -0.11846794940E+03  0.92354691367E+03  0.95252549782E+03  0.12500406850E+03 0.  0.
          2    1    1    2  501    0  0.81200320026E+02  0.12744208502E+03  0.13232725030E+03  0.20086183853E+03  0.00000000000E+00 0. -1.
          1    1    1    2  502    0  0.75978718255E+02 -0.89741356213E+01  0.16011603790E+04  0.16029871677E+04  0.00000000000E+00 0. -1.
         22    1    3    3    0    0 -0.16438161578E+03 -0.10942318656E+03  0.91920183645E+03  0.94017379537E+03  0.00000000000E+00 0. -1.
         22    1    3    3    0    0  0.72025774991E+01 -0.90447628386E+01  0.43450772184E+01  0.12351702452E+02  0.00000000000E+00 0. -1.
</event>
<event>
 7    1  0.5889087E-006  0.6923160E+02  0.7818608E-02  0.1421452E+00
          2   -1    0    0  502    0  0.00000000000E+00  0.00000000000E+00  0.21493518977E+04  0.21493518977E+04  0.00000000000E+00 0. -1.
          1   -1    0    0  501    0 -0.00000000000E+00 -0.00000000000E+00 -0.23515909671E+03  0.23515909671E+03  0.00000000000E+00 0. -1.
         25    2    1    2    0    0 -0.88916648921E+02 -0.36783307236E+02  0.18914493762E+03  0.24629271267E+03  0.12500044296E+03 0.  0.
          2    1    1    2  501    0  0.47607836059E+02  0.49568168240E+02 -0.20061958389E+03  0.21206538331E+03  0.00000000000E+00 0. -1.
          1    1    1    2  502    0  0.41308812862E+02 -0.12784861003E+02  0.19256674473E+04  0.19261528985E+04  0.00000000000E+00 0. -1.
         22    1    3    3    0    0  0.53008165453E+01  0.33415110780E+02  0.75941254838E+02  0.83136889952E+02  0.00000000000E+00 0. -1.
         22    1    3    3    0    0 -0.94217465467E+02 -0.70198418016E+02  0.11320368278E+03  0.16315582272E+03  0.00000000000E+00 0. -1.
</event>
<event>
 7    1  0.5889087E-006  0.1475885E+03  0.7818608E-02  0.1363176E+00
          2   -1    0    0  502    0  0.00000000000E+00  0.00000000000E+00  0.22652745257E+03  0.22652745257E+03  0.00000000000E+00 0. -1.
          1   -1    0    0  501    0 -0.00000000000E+00 -0.00000000000E+00 -0.84571945227E+03  0.84571945227E+03  0.00000000000E+00 0. -1.
         25    2    1    2    0    0  0.13379357351E+02  0.17151378656E+03 -0.17973705934E+03  0.27843470494E+03  0.12499795292E+03 0.  0.
          2    1    1    2  501    0 -0.25074581978E+02 -0.14134815697E+03 -0.60670720581E+03  0.62345943712E+03  0.00000000000E+00 0. -1.
          1    1    1    2  502    0  0.11695224627E+02 -0.30165629586E+02  0.16725226545E+03  0.17035276278E+03  0.00000000000E+00 0. -1.
         22    1    3    3    0    0 -0.60941697131E+01 -0.18462839107E+02 -0.62383185172E+01  0.20418911584E+02  0.00000000000E+00 0. -1.
         22    1    3    3    0    0  0.19473527064E+02  0.18997662567E+03 -0.17349874082E+03  0.25801579336E+03  0.00000000000E+00 0. -1.
</event>
<event>
 7    1  0.5889087E-006  0.9839665E+02  0.7818608E-02  0.1315120E+00
          2   -1    0    0  502    0  0.00000000000E+00  0.00000000000E+00  0.27459663721E+03  0.27459663721E+03  0.00000000000E+00 0. -1.
          1   -1    0    0  501    0 -0.00000000000E+00 -0.00000000000E+00 -0.26968398219E+03  0.26968398219E+03  0.00000000000E+00 0. -1.
         25    2    1    2    0    0  0.95901118812E+02 -0.37019137362E+02 -0.23327605365E+02  0.16351729001E+03  0.12500514325E+03 0.  0.
          2    1    1    2  501    0 -0.95532074814E+02 -0.36613906722E+02 -0.15361526790E+03  0.18456599366E+03  0.00000000000E+00 0. -1.
          1    1    1    2  502    0 -0.36904399835E+00  0.73633044084E+02  0.18185552830E+03  0.19619733573E+03  0.00000000000E+00 0. -1.
         22    1    3    3    0    0  0.99317013660E+02 -0.68671747789E+02  0.50747093938E+01  0.12085293055E+03  0.00000000000E+00 0.  1.
         22    1    3    3    0    0 -0.34158948476E+01  0.31652610427E+02 -0.28402314759E+02  0.42664359460E+02  0.00000000000E+00 0.  1.
</event>
<event>
 7    1  0.5889087E-006  0.2311293E+02  0.7818608E-02  0.1715003E+00
          2   -1    0    0  502    0  0.00000000000E+00  0.00000000000E+00  0.11400220300E+04  0.11400220300E+04  0.00000000000E+00 0. -1.
          1   -1    0    0  501    0 -0.00000000000E+00 -0.00000000000E+00 -0.22181296798E+03  0.22181296798E+03  0.00000000000E+00 0. -1.
         25    2    1    2    0    0  0.92865345258E+01 -0.35844424790E+02  0.24823624476E+02  0.13271098224E+03  0.12499971985E+03 0.  0.
          2    1    1    2  501    0 -0.15057172320E+02  0.13485814080E+02 -0.16713466548E+03  0.16835255277E+03  0.00000000000E+00 0. -1.
          1    1    1    2  502    0  0.57706377941E+01  0.22358610710E+02  0.10605201030E+04  0.10607714629E+04  0.00000000000E+00 0. -1.
         22    1    3    3    0    0  0.62480561236E+02 -0.37804064425E+02 -0.21039880463E+01  0.73057474533E+02  0.00000000000E+00 0. -1.
         22    1    3    3    0    0 -0.53194026710E+02  0.19596396343E+01  0.26927612523E+02  0.59653507703E+02  0.00000000000E+00 0. -1.
</event>
<event>
 7    1  0.5889087E-006  0.3455944E+02  0.7818608E-02  0.1567673E+00
          2   -1    0    0  502    0  0.00000000000E+00  0.00000000000E+00  0.35500595404E+03  0.35500595404E+03  0.00000000000E+00 0. -1.
          1   -1    0    0  501    0 -0.00000000000E+00 -0.00000000000E+00 -0.67269211679E+02  0.67269211679E+02  0.00000000000E+00 0. -1.
         25    2    1    2    0    0  0.54602687409E+02  0.34552655643E+01  0.21838858401E+03  0.25751110549E+03  0.12500001399E+03 0.  0.
          2    1    1    2  501    0 -0.30137612545E+02  0.16228672019E+02 -0.39039007452E+02  0.51920030703E+02  0.00000000000E+00 0. -1.
          1    1    1    2  502    0 -0.24465074864E+02 -0.19683937583E+02  0.10838716580E+03  0.11284402952E+03  0.00000000000E+00 0. -1.
         22    1    3    3    0    0  0.48863448705E+02  0.10234875194E+02  0.23415321507E+03  0.23941620124E+03  0.00000000000E+00 0. -1.
         22    1    3    3    0    0  0.57392387040E+01 -0.67796096301E+01 -0.15764631059E+02  0.18094904257E+02  0.00000000000E+00 0. -1.
</event>
<event>
 7    1  0.5889087E-006  0.7464282E+02  0.7818608E-02  0.1397150E+00
          2   -1    0    0  502    0  0.00000000000E+00  0.00000000000E+00  0.96181794600E+02  0.96181794600E+02  0.00000000000E+00 0. -1.
          1   -1    0    0  501    0 -0.00000000000E+00 -0.00000000000E+00 -0.47257558886E+03  0.47257558886E+03  0.00000000000E+00 0. -1.
         25    2    1    2    0    0 -0.22857768224E+02 -0.35223068076E+02 -0.57089460031E+02  0.14369162065E+03  0.12499973322E+03 0.  0.
          2    1    1    2  501    0 -0.43403009730E+02 -0.21624482762E+02 -0.33315806770E+03  0.33666858716E+03  0.00000000000E+00 0. -1.
          1    1    1    2  502    0  0.66260777954E+02  0.56847550838E+02  0.13853733472E+02  0.88397175647E+02  0.00000000000E+00 0. -1.
         22    1    3    3    0    0  0.22720057266E+02  0.38566668821E+02 -0.24593424651E+02  0.51072746961E+02  0.00000000000E+00 0.  1.
         22    1    3    3    0    0 -0.45577825490E+02 -0.73789736897E+02 -0.32496035380E+02  0.92618873687E+02  0.00000000000E+00 0.  1.
</event>
<event>
 7    1  0.5889087E-006  0.1275122E+03  0.7818608E-02  0.1329469E+00
          2   -1    0    0  502    0  0.00000000000E+00  0.00000000000E+00  0.14869172819E+04  0.14869172819E+04  0.00000000000E+00 0. -1.
          1   -1    0    0  501    0 -0.00000000000E+00 -0.00000000000E+00 -0.31076062187E+03  0.31076062187E+03  0.00000000000E+00 0. -1.
         25    2    1    2    0    0 -0.15347645549E+03  0.59394852615E+02 -0.81527721983E+02  0.22215899236E+03  0.12500031011E+03 0.  0.
          2    1    1    2  501    0  0.11213627837E+03 -0.31258096476E+02 -0.13709024315E+03  0.17984812562E+03  0.00000000000E+00 0. -1.
          1    1    1    2  502    0  0.41340177118E+02 -0.28136756139E+02  0.13947746251E+04  0.13956707857E+04  0.00000000000E+00 0. -1.
         22    1    3    3    0    0 -0.18097038884E+02 -0.26386058485E+01  0.30669324713E+02  0.35708157829E+02  0.00000000000E+00 0. -1.
         22    1    3    3    0    0 -0.13537941661E+03  0.62033458463E+02 -0.11219704670E+03  0.18645083453E+03  0.00000000000E+00 0. -1.
</event>
<event>
 7    1  0.5889087E-006  0.1909962E+03  0.7818608E-02  0.1331511E+00
          2   -1    0    0  502    0  0.00000000000E+00  0.00000000000E+00  0.85607307139E+03  0.85607307139E+03  0.00000000000E+00 0. -1.
          1   -1    0    0  501    0 -0.00000000000E+00 -0.00000000000E+00 -0.10078882656E+04  0.10078882656E+04  0.00000000000E+00 0. -1.
         25    2    1    2    0    0  0.37130067716E+02  0.21137400121E+03 -0.38186888690E+03  0.45552780809E+03  0.12499650732E+03 0.  0.
          2    1    1    2  501    0 -0.28458255123E+02 -0.17974971024E+03 -0.57479496136E+03  0.60291714043E+03  0.00000000000E+00 0. -1.
          1    1    1    2  502    0 -0.86718125921E+01 -0.31624290969E+02  0.80484865407E+03  0.80551638845E+03  0.00000000000E+00 0. -1.
         22    1    3    3    0    0  0.20329766903E+02  0.46845155597E+02 -0.21348814993E+03  0.21951072454E+03  0.00000000000E+00 0. -1.
         22    1    3    3    0    0  0.16800300813E+02  0.16452884561E+03 -0.16838073697E+03  0.23601708355E+03  0.00000000000E+00 0. -1.
</event>
<event>
 7    1  0.5889087E-006  0.5604867E+02  0.7818608E-02  0.1419142E+00
          2   -1    0    0  502    0  0.00000000000E+00  0.00000000000E+00  0.84284923858E+03  0.84284923858E+03  0.00000000000E+00 0. -1.
          1   -1    0    0  501    0 -0.00000000000E+00 -0.00000000000E+00 -0.17552428973E+03  0.17552428973E+03  0.00000000000E+00 0. -1.
         25    2    1    2    0    0  0.14338329490E+02 -0.80103199382E+02  0.38293555767E+02  0.15399337970E+03  0.12500181732E+03 0.  0.
          2    1    1    2  501    0  0.29089984658E+02  0.47391380467E+02 -0.11005025015E+03  0.12330136945E+03  0.00000000000E+00 0. -1.
          1    1    1    2  502    0 -0.43428314148E+02  0.32711818915E+02  0.73908164323E+03  0.74107877917E+03  0.00000000000E+00 0. -1.
         22    1    3    3    0    0  0.65877652237E+02 -0.50296410000E+02  0.44602734707E+02  0.94122249582E+02  0.00000000000E+00 0.  1.
         22    1    3    3    0    0 -0.51539322747E+02 -0.29806789382E+02 -0.63091789395E+01  0.59871130117E+02  0.00000000000E+00 0.  1.
</event>
<event>
 7    1  0.5889087E-006  0.9434274E+02  0.7818608E-02  0.1312528E+00
          2   -1    0    0  502    0  0.00000000000E+00  0.00000000000E+00  0.17996315605E+04  0.17996315605E+04  0.00000000000E+00 0. -1.
          1   -1    0    0  501    0 -0.00000000000E+00 -0.00000000000E+00 -0.16779267290E+03  0.16779267290E+03  0.00000000000E+00 0. -1.
         25    2    1    2    0    0  0.15910157739E+03 -0.28027599014E+02  0.90032450177E+02  0.22322440260E+03  0.12499773436E+03 0.  0.
          2    1    1    2  501    0 -0.66897263627E+02  0.41292657115E+02 -0.84391860273E+02  0.11533565577E+03  0.00000000000E+00 0. -1.
          1    1    1    2  502    0 -0.92204313763E+02 -0.13265058101E+02  0.16261982977E+04  0.16288641750E+04  0.00000000000E+00 0. -1.
         22    1    3    3    0    0  0.32957969068E+02 -0.63687910592E+02  0.44792467886E+02  0.84550238675E+02  0.00000000000E+00 0.  1.
         22    1    3    3    0    0  0.12614360832E+03  0.35660311579E+02  0.45239982291E+02  0.13867416392E+03  0.00000000000E+00 0.  1.
</event>
<event>
 7    1  0.5889087E-006  0.1273725E+03  0.7818608E-02  0.1286530E+00
          2   -1    0    0  502    0  0.00000000000E+00  0.00000000000E+00  0.17513370358E+04  0.17513370358E+04  0.00000000000E+00 0. -1.
          1   -1    0    0  501    0 -0.00000000000E+00 -0.00000000000E+00 -0.12657465500E+04  0.12657465500E+04  0.00000000000E+00 0. -1.
         25    2    1    2    0    0 -0.64465952581E+01 -0.76978510382E+02  0.11176619711E+03  0.18461725359E+03  0.12499839142E+03 0.  0.
          2    1    1    2  501    0 -0.56681684334E+02  0.11561307628E+03 -0.12250910257E+04  0.12318389578E+04  0.00000000000E+00 0. -1.
          1    1    1    2  502    0  0.63128279592E+02 -0.38634565895E+02  0.15989153143E+04  0.16006273744E+04  0.00000000000E+00 0. -1.
         22    1    3    3    0    0  0.17901367296E+02  0.72458674699E+01 -0.19057853218E+02  0.27132329715E+02  0.00000000000E+00 0.  1.
         22    1    3    3    0    0 -0.24347962555E+02 -0.84224377852E+02  0.13082405033E+03  0.15748492388E+03  0.00000000000E+00 0.  1.
</event>
<event>
 7    1  0.5889087E-006  0.1416595E+03  0.7818608E-02  0.1392100E+00
          2   -1    0    0  502    0  0.00000000000E+00  0.00000000000E+00  0.27664124638E+03  0.27664124638E+03  0.00000000000E+00 0. -1.
          1   -1    0    0  501    0 -0.00000000000E+00 -0.00000000000E+00 -0.17384754048E+04  0.17384754048E+04  0.00000000000E+00 0. -1.
         25    2    1    2    0    0 -0.13077871561E+03 -0.94181126509E+02 -0.17187508847E+03  0.26671818777E+03  0.12499755438E+03 0.  0.
          2    1    1    2  501    0  0.92908914990E+01  0.24926600711E+02 -0.14977213418E+04  0.14979575674E+04  0.00000000000E+00 0. -1.
          1    1    1    2  502    0  0.12148782412E+03  0.69254525798E+02  0.20776227188E+03  0.25044089596E+03  0.00000000000E+00 0. -1.
         22    1    3    3    0    0 -0.18810152438E+02 -0.76047762986E+02 -0.27304104154E+02  0.82961425938E+02  0.00000000000E+00 0. -1.
         22    1    3    3    0    0 -0.11196856318E+03 -0.18133363522E+02 -0.14457098431E+03  0.18375676183E+03  0.00000000000E+00 0. -1.
</event>
<event>
 7    1  0.5889087E-006  0.9549158E+02  0.7818608E-02  0.1458513E+00
          2   -1    0    0  502    0  0.00000000000E+00  0.00000000000E+00  0.22413478713E+04  0.22413478713E+04  0.00000000000E+00 0. -1.
          1   -1    0    0  501    0 -0.00000000000E+00 -0.00000000000E+00 -0.18202927413E+02  0.18202927413E+02  0.00000000000E+00 0. -1.
         25    2    1    2    0    0 -0.39976262208E+02 -0.62993607273E+02  0.15766088023E+04  0.15833150715E+04  0.12500001616E+03 0.  0.
          2    1    1    2  501    0  0.57749237977E+02  0.78770781801E+02  0.14916746411E+03  0.17829958750E+03  0.00000000000E+00 0. -1.
          1    1    1    2  502    0 -0.17772975769E+02 -0.15777174528E+02  0.49736867752E+03  0.49793613976E+03  0.00000000000E+00 0. -1.
         22    1    3    3    0    0 -0.23206005740E+02 -0.58945907120E+01  0.48893915005E+02  0.54441526674E+02  0.00000000000E+00 0. -1.
         22    1    3    3    0    0 -0.16770256468E+02 -0.57099016561E+02  0.15277148873E+04  0.15288735448E+04  0.00000000000E+00 0. -1.
</event>
<event>
 7    1  0.5889087E-006  0.8306507E+02  0.7818608E-02  0.1343510E+00
          2   -1    0    0  502    0  0.00000000000E+00  0.00000000000E+00  0.46096009054E+03  0.46096009054E+03  0.00000000000E+00 0. -1.
          1   -1    0    0  501    0 -0.00000000000E+00 -0.00000000000E+00 -0.54152069857E+03  0.54152069857E+03  0.00000000000E+00 0. -1.
         25    2    1    2    0    0  0.70274115976E+02 -0.64254924056E+02 -0.41535150975E+03  0.44408169413E+03  0.12499811108E+03 0.  0.
          2    1    1    2  501    0 -0.83195491181E+02 -0.24339887839E+01 -0.93255592921E+02  0.12499607860E+03  0.00000000000E+00 0. -1.
          1    1    1    2  502    0  0.12921375205E+02  0.66688912840E+02  0.42804649463E+03  0.43340301637E+03  0.00000000000E+00 0. -1.
         22    1    3    3    0    0 -0.91618844282E+01 -0.61455718244E+02 -0.28262655685E+03  0.28937608067E+03  0.00000000000E+00 0. -1.
         22    1    3    3    0    0  0.79436000405E+02 -0.27992058118E+01 -0.13272495290E+03  0.15470561346E+03  0.00000000000E+00 0. -1.
</event>
<event>
 7    1  0.5889087E-006  0.3260036E+02  0.7818608E-02  0.1648621E+00
          2   -1    0    0  502    0  0.00000000000E+00  0.00000000000E+00  0.60864310463E+03  0.60864310463E+03  0.00000000000E+00 0. -1.
          1   -1    0    0  501    0 -0.00000000000E+00 -0.00000000000E+00 -0.26635235165E+03  0.26635235165E+03  0.00000000000E+00 0. -1.
         25    2    1    2    0    0  0.51809275884E+02 -0.67751128441E+01  0.21711947439E+03  0.25592411278E+03  0.12500472839E+03 0.  0.
          2    1    1    2  501    0 -0.20547932168E+02  0.36773352746E+00 -0.24583634923E+03  0.24669386564E+03  0.00000000000E+00 0. -1.
          1    1    1    2  502    0 -0.31261343717E+02  0.64073793167E+01  0.37100762782E+03  0.37237747786E+03  0.00000000000E+00 0. -1.
         22    1    3    3    0    0  0.16482878278E+02 -0.95452727572E+01 -0.13020405606E+02  0.23072244591E+02  0.00000000000E+00 0.  1.
         22    1    3    3    0    0  0.35326397606E+02  0.27701599130E+01  0.23013988000E+03  0.23285186819E+03  0.00000000000E+00 0.  1.
</event>
<event>
 7    1  0.5889087E-006  0.2067581E+03  0.7818608E-02  0.1291323E+00
          2   -1    0    0  502    0  0.00000000000E+00  0.00000000000E+00  0.19981857555E+03  0.19981857555E+03  0.00000000000E+00 0. -1.
          1   -1    0    0  501    0 -0.00000000000E+00 -0.00000000000E+00 -0.13309993194E+04  0.13309993194E+04  0.00000000000E+00 0. -1.
         25    2    1    2    0    0  0.22324535497E+03  0.15476165643E+01 -0.44540654157E+03  0.51366484503E+03  0.12499480835E+03 0.  0.
          2    1    1    2  501    0 -0.19837685966E+03 -0.37347831131E+02 -0.83636489762E+03  0.86038042802E+03  0.00000000000E+00 0. -1.
          1    1    1    2  502    0 -0.24868495310E+02  0.35800214567E+02  0.15059069540E+03  0.15677262185E+03  0.00000000000E+00 0. -1.
         22    1    3    3    0    0  0.16294725640E+03 -0.23300789104E+02 -0.40442609866E+03  0.43664081855E+03  0.00000000000E+00 0. -1.
         22    1    3    3    0    0  0.60298098566E+02  0.24848405669E+02 -0.40980442912E+02  0.77024026487E+02  0.00000000000E+00 0. -1.
</event>
<event>
 7    1  0.6319141E-006  0.6525666E+02  0.7818608E-02  0.1411762E+00
          2   -1    0    0  502    0  0.00000000000E+00  0.00000000000E+00  0.51766446628E+03  0.51766446628E+03  0.00000000000E+00 0. -1.
          1   -1    0    0  501    0 -0.00000000000E+00 -0.00000000000E+00 -0.15914379067E+04  0.15914379067E+04  0.00000000000E+00 0. -1.
         25    2    1    2    0    0  0.97992336942E+02  0.44813132160E+02 -0.42953626823E+03  0.46015067683E+03  0.12500609885E+03 0.  0.
          2    1    1    2  501    0 -0.48793230673E+02 -0.39902409109E+02 -0.11445085538E+04  0.11462429112E+04  0.00000000000E+00 0. -1.
          1    1    1    2  502    0 -0.49199106268E+02 -0.49107230508E+01  0.50027138162E+03  0.50270878501E+03  0.00000000000E+00 0. -1.
         22    1    3    3    0    0  0.12075410205E+03  0.58283840513E+02 -0.39148174975E+03  0.41380734601E+03  0.00000000000E+00 0.  1.
         22    1    3    3    0    0 -0.22761765109E+02 -0.13470708353E+02 -0.38054518475E+02  0.46343330813E+02  0.00000000000E+00 0.  1.
</event>
<event>
 7    1  0.5889087E-006  0.4190393E+02  0.7818608E-02  0.1530313E+00
          2   -1    0    0  502    0  0.00000000000E+00  0.00000000000E+00  0.53762356558E+02  0.53762356558E+02  0.00000000000E+00 0. -1.
          1   -1    0    0  501    0 -0.00000000000E+00 -0.00000000000E+00 -0.10561051112E+04  0.10561051112E+04  0.00000000000E+00 0. -1.
         25    2    1    2    0    0 -0.44003421269E+02 -0.10786192135E+02 -0.44856454153E+03  0.46785472197E+03  0.12500099970E+03 0.  0.
          2    1    1    2  501    0  0.21596200695E+02 -0.24861958306E+02 -0.58728164365E+03  0.58820425179E+03  0.00000000000E+00 0. -1.
          1    1    1    2  502    0  0.22407220574E+02  0.35648150441E+02  0.33503430567E+02  0.53808493971E+02  0.00000000000E+00 0. -1.
         22    1    3    3    0    0  0.36646123774E+02  0.25152856460E+02 -0.13786390292E+03  0.14485185641E+03  0.00000000000E+00 0. -1.
         22    1    3    3    0    0 -0.80649545043E+02 -0.35939048596E+02 -0.31070063861E+03  0.32300286556E+03  0.00000000000E+00 0. -1.
</event>
<event>
 7    1  0.7783462E-006  0.7378443E+02  0.7818608E-02  0.1405179E+00
          2   -1    0    0  502    0  0.00000000000E+00  0.00000000000E+00  0.10944944322E+04  0.10944944322E+04  0.00000000000E+00 0. -1.
          1   -1    0    0  501    0 -0.00000000000E+00 -0.00000000000E+00 -0.63175049320E+03  0.63175049320E+03  0.00000000000E+00 0. -1.
         25    2    1    2    0    0  0.64138728001E+02 -0.33837054079E+02 -0.26115292577E+03  0.29847093928E+03  0.12500131320E+03 0.  0.
          2    1    1    2  501    0  0.88395738555E+01  0.45182618406E+02 -0.34915814631E+03  0.35218037737E+03  0.00000000000E+00 0. -1.
          1    1    1    2  502    0 -0.72978301857E+02 -0.11345564327E+02  0.10730550110E+04  0.10755936087E+04  0.00000000000E+00 0. -1.
         22    1    3    3    0    0  0.15235638931E+02 -0.68225201545E+02 -0.73106954435E+02  0.10115052944E+03  0.00000000000E+00 0. -1.
         22    1    3    3    0    0  0.48903089070E+02  0.34388147465E+02 -0.18804597133E+03  0.19732040984E+03  0.00000000000E+00 0. -1.
</event>
<event>
 7    1  0.5889087E-006  0.8674874E+02  0.7818608E-02  0.1461247E+00
          2   -1    0    0  502    0  0.00000000000E+00  0.00000000000E+00  0.12447554824E+02  0.12447554824E+02  0.00000000000E+00 0. -1.
          1   -1    0    0  501    0 -0.00000000000E+00 -0.00000000000E+00 -0.29415245146E+04  0.29415245146E+04  0.00000000000E+00 0. -1.
         25    2    1    2    0    0 -0.78675853817E+01 -0.81774194643E+02 -0.10943202631E+04  0.11044955251E+04  0.12499843577E+03 0.  0.
          2    1    1    2  501    0 -0.17315296853E+02  0.86626557173E+02 -0.18148821865E+04  0.18170309108E+04  0.00000000000E+00 0. -1.
          1    1    1    2  502    0  0.25182882234E+02 -0.48523625304E+01 -0.19874510176E+02  0.32445633519E+02  0.00000000000E+00 0. -1.
         22    1    3    3    0    0 -0.30076990914E+02 -0.62298100946E+02 -0.24279610406E+03  0.25245915890E+03  0.00000000000E+00 0. -1.
         22    1    3    3    0    0  0.22209405532E+02 -0.19476093697E+02 -0.85152415906E+03  0.85203636623E+03  0.00000000000E+00 0. -1.
</event>
<event>
 7    1  0.5889087E-006  0.7900873E+02  0.7818608E-02  0.1332150E+00
          2   -1    0    0  502    0  0.00000000000E+00  0.00000000000E+00  0.25410697211E+04  0.25410697211E+04  0.00000000000E+00 0. -1.
          1   -1    0    0  501    0 -0.00000000000E+00 -0.00000000000E+00 -0.92728818239E+02  0.92728818239E+02  0.00000000000E+00 0. -1.
         25    2    1    2    0    0  0.75894115052E+02  0.63053393560E+02  0.13209489135E+04  0.13305137578E+04  0.12500072264E+03 0.  0.
          2    1    1    2  501    0 -0.76895288683E+02  0.18151978741E+02 -0.68542166316E+02  0.10459640681E+03  0.00000000000E+00 0. -1.
          1    1    1    2  502    0  0.10011736305E+01 -0.81205372301E+02  0.11959341557E+04  0.11986883746E+04  0.00000000000E+00 0. -1.
         22    1    3    3    0    0 -0.30126325958E+02 -0.72783444898E+00  0.14661518103E+03  0.14968011413E+03  0.00000000000E+00 0. -1.
         22    1    3    3    0    0  0.10602044101E+03  0.63781228009E+02  0.11743337324E+04  0.11808336437E+04  0.00000000000E+00 0. -1.
</event>
<event>
 7    1  0.5889087E-006  0.1845143E+03  0.7818608E-02  0.1251869E+00
          2   -1    0    0  502    0  0.00000000000E+00  0.00000000000E+00  0.31600984359E+04  0.31600984359E+04  0.00000000000E+00 0. -1.
          1   -1    0    0  501    0 -0.00000000000E+00 -0.00000000000E+00 -0.84419643258E+03  0.84419643258E+03  0.00000000000E+00 0. -1.
         25    2    1    2    0    0 -0.23434352875E+03  0.61289020973E+02  0.26005532097E+03  0.37673052342E+03  0.12499553493E+03 0.  0.
          2    1    1    2  501    0  0.18231104395E+03 -0.12293807056E+02 -0.77478002921E+03  0.79603551937E+03  0.00000000000E+00 0. -1.
          1    1    1    2  502    0  0.52032484805E+02 -0.48995213917E+02  0.28306267116E+04  0.28315288257E+04  0.00000000000E+00 0. -1.
         22    1    3    3    0    0  0.37563958986E+01 -0.20463828311E+02  0.21230524417E+02  0.29725644591E+02  0.00000000000E+00 0. -1.
         22    1    3    3    0    0 -0.23809992465E+03  0.81752849284E+02  0.23882479655E+03  0.34700487883E+03  0.00000000000E+00 0. -1.
</event>
<event>
 7    1  0.5889087E-006  0.2392793E+03  0.7818608E-02  0.1193346E+00
          2   -1    0    0  502    0  0.00000000000E+00  0.00000000000E+00  0.90899976266E+03  0.90899976266E+03  0.00000000000E+00 0. -1.
          1   -1    0    0  501    0 -0.00000000000E+00 -0.00000000000E+00 -0.10835394872E+04  0.10835394872E+04  0.00000000000E+00 0. -1.
         25    2    1    2    0    0 -0.28996443986E+02  0.15955513624E+03 -0.96678465630E+02  0.22642878209E+03  0.12499852950E+03 0.  0.
          2    1    1    2  501    0  0.72727437241E+02 -0.25130680888E+03 -0.90023508172E+03  0.93747938360E+03  0.00000000000E+00 0. -1.
          1    1    1    2  502    0 -0.43730993255E+02  0.91751672645E+02  0.82237382281E+03  0.82863108416E+03  0.00000000000E+00 0. -1.
         22    1    3    3    0    0  0.42716232020E+02  0.26261021771E+02 -0.73621103697E+01  0.50680552597E+02  0.00000000000E+00 0. -1.
         22    1    3    3    0    0 -0.71712676006E+02  0.13329411447E+03 -0.89316355261E+02  0.17574822949E+03  0.00000000000E+00 0. -1.
</event>
<event>
 7    1  0.5889087E-006  0.1620917E+03  0.7818608E-02  0.1203547E+00
          2   -1    0    0  502    0  0.00000000000E+00  0.00000000000E+00  0.25516650214E+03  0.25516650214E+03  0.00000000000E+00 0. -1.
          1   -1    0    0  501    0 -0.00000000000E+00 -0.00000000000E+00 -0.28039985921E+04  0.28039985921E+04  0.00000000000E+00 0. -1.
         25    2    1    2    0    0 -0.11938007050E+03  0.69881759333E+01 -0.60579991169E+03  0.63001527589E+03  0.12500111607E+03 0.  0.
          2    1    1    2  501    0  0.27380392364E+02  0.13144741072E+03 -0.21553382086E+04  0.21595163581E+04  0.00000000000E+00 0. -1.
          1    1    1    2  502    0  0.91999678139E+02 -0.13843558666E+03  0.21230603024E+03  0.26963346028E+03  0.00000000000E+00 0. -1.
         22    1    3    3    0    0 -0.70925114554E+02 -0.54011611151E+02 -0.40356941540E+03  0.41329880118E+03  0.00000000000E+00 0. -1.
         22    1    3    3    0    0 -0.48454955949E+02  0.60999787084E+02 -0.20223049629E+03  0.21671647471E+03  0.00000000000E+00 0. -1.
</event>
<event>
 7    1  0.5889087E-006  0.8002616E+02  0.7818608E-02  0.1486094E+00
          2   -1    0    0  502    0  0.00000000000E+00  0.00000000000E+00  0.14420877992E+04  0.14420877992E+04  0.00000000000E+00 0. -1.
          1   -1    0    0  501    0 -0.00000000000E+00 -0.00000000000E+00 -0.37326817961E+03  0.37326817961E+03  0.00000000000E+00 0. -1.
         25    2    1    2    0    0 -0.33606569927E+02  0.63038722839E+02  0.23896714200E+03  0.27898434427E+03  0.12499474897E+03 0.  0.
          2    1    1    2  501    0  0.16905565588E+02  0.16018126436E+02 -0.35149418014E+03  0.35226486795E+03  0.00000000000E+00 0. -1.
          1    1    1    2  502    0  0.16701004339E+02 -0.79056849275E+02  0.11813466578E+04  0.11841067666E+04  0.00000000000E+00 0. -1.
         22    1    3    3    0    0 -0.45185836972E+02  0.97218839906E+02  0.16651024321E+03  0.19803768275E+03  0.00000000000E+00 0. -1.
         22    1    3    3    0    0  0.11579267045E+02 -0.34180117067E+02  0.72456898797E+02  0.80946661520E+02  0.00000000000E+00 0. -1.
</event>
<event>
 7    1  0.5889087E-006  0.5070274E+02  0.7818608E-02  0.1476533E+00
          2   -1    0    0  502    0  0.00000000000E+00  0.00000000000E+00  0.61841044722E+03  0.61841044722E+03  0.00000000000E+00 0. -1.
          1   -1    0    0  501    0 -0.00000000000E+00 -0.00000000000E+00 -0.40793270187E+03  0.40793270187E+03  0.00000000000E+00 0. -1.
         25    2    1    2    0    0  0.36305986864E+02 -0.65624651651E+02 -0.29172898581E+03  0.32612066508E+03  0.12499666973E+03 0.  0.
          2    1    1    2  501    0 -0.29515843778E+01  0.44800250226E+02 -0.93235922558E+02  0.10348290451E+03  0.00000000000E+00 0. -1.
          1    1    1    2  502    0 -0.33354402486E+02  0.20824401425E+02  0.59544265373E+03  0.59673957950E+03  0.00000000000E+00 0. -1.
         22    1    3    3    0    0 -0.36010822163E+02  0.84205344654E+00 -0.31068464052E+02  0.47568243876E+02  0.00000000000E+00 0. -1.
         22    1    3    3    0    0  0.72316809027E+02 -0.66466705098E+02 -0.26066052176E+03  0.27855242120E+03  0.00000000000E+00 0. -1.
</event>
<event>
 7    1  0.5889087E-006  0.2389142E+02  0.7818608E-02  0.1706834E+00
          2   -1    0    0  502    0  0.00000000000E+00  0.00000000000E+00  0.76304208113E+02  0.76304208113E+02  0.00000000000E+00 0. -1.
          1   -1    0    0  501    0 -0.00000000000E+00 -0.00000000000E+00 -0.50871633636E+03  0.50871633636E+03  0.00000000000E+00 0. -1.
         25    2    1    2    0    0 -0.18392831862E+02 -0.12028816918E+01 -0.35723204413E+03  0.37892781262E+03  0.12502723957E+03 0.  0.
          2    1    1    2  501    0  0.62088433678E+01 -0.19442745451E+02 -0.13766355402E+03  0.13916833042E+03  0.00000000000E+00 0. -1.
          1    1    1    2  502    0  0.12183988494E+02  0.20645627143E+02  0.62483469904E+02  0.66924401432E+02  0.00000000000E+00 0. -1.
         22    1    3    3    0    0 -0.31793877680E+02  0.12153757284E+02 -0.35836076056E+03  0.35997360901E+03  0.00000000000E+00 0.  1.
         22    1    3    3    0    0  0.13401045818E+02 -0.13356638976E+02  0.11287164294E+01  0.18954203611E+02  0.00000000000E+00 0.  1.
</event>
<event>
 7    1  0.5889087E-006  0.6919966E+02  0.7818608E-02  0.1399015E+00
          2   -1    0    0  502    0  0.00000000000E+00  0.00000000000E+00  0.11145725383E+04  0.11145725383E+04  0.00000000000E+00 0. -1.
          1   -1    0    0  501    0 -0.00000000000E+00 -0.00000000000E+00 -0.52729552440E+03  0.52729552440E+03  0.00000000000E+00 0. -1.
         25    2    1    2    0    0 -0.97280118310E+02 -0.48435513558E+02  0.50926797353E+02  0.17328419392E+03  0.12499781111E+03 0.  0.
          2    1    1    2  501    0  0.51471231779E+02 -0.26072878763E+01 -0.46351391019E+03  0.46637027198E+03  0.00000000000E+00 0. -1.
          1    1    1    2  502    0  0.45808886530E+02  0.51042801435E+02  0.99986412678E+03  0.10022135968E+04  0.00000000000E+00 0. -1.
         22    1    3    3    0    0 -0.42449219624E+01  0.11351030496E+02  0.61041966052E+02  0.62233326083E+02  0.00000000000E+00 0. -1.
         22    1    3    3    0    0 -0.93035196347E+02 -0.59786544055E+02 -0.10115168699E+02  0.11105086784E+03  0.00000000000E+00 0. -1.
</event>
<event>
 7    1  0.5889087E-006  0.1004976E+03  0.7818608E-02  0.1384666E+00
          2   -1    0    0  502    0  0.00000000000E+00  0.00000000000E+00  0.21967663244E+03  0.21967663244E+03  0.00000000000E+00 0. -1.
          1   -1    0    0  501    0 -0.00000000000E+00 -0.00000000000E+00 -0.57493440242E+03  0.57493440242E+03  0.00000000000E+00 0. -1.
         25    2    1    2    0    0 -0.78960759167E+02  0.86769580193E+02 -0.15490846654E+03  0.23105266821E+03  0.12499976377E+03 0.  0.
          2    1    1    2  501    0  0.39518733268E+02  0.48175652453E+01 -0.36710712335E+03  0.36925950120E+03  0.00000000000E+00 0. -1.
          1    1    1    2  502    0  0.39442025899E+02 -0.91587145438E+02  0.16675781991E+03  0.19429886545E+03  0.00000000000E+00 0. -1.
         22    1    3    3    0    0  0.73369374118E+01  0.36289246036E+01  0.18521944243E+02  0.20249991676E+02  0.00000000000E+00 0. -1.
         22    1    3    3    0    0 -0.86297696579E+02  0.83140655589E+02 -0.17343041079E+03  0.21080267653E+03  0.00000000000E+00 0. -1.
</event>
<event>
 7    1  0.5889087E-006  0.1694738E+03  0.7818608E-02  0.1226184E+00
          2   -1    0    0  502    0  0.00000000000E+00  0.00000000000E+00  0.48290854012E+03  0.48290854012E+03  0.00000000000E+00 0. -1.
          1   -1    0    0  501    0 -0.00000000000E+00 -0.00000000000E+00 -0.17058424840E+04  0.17058424840E+04  0.00000000000E+00 0. -1.
         25    2    1    2    0    0 -0.90562080348E+02  0.20055240896E+03 -0.25071942478E+03  0.35624163677E+03  0.12500045868E+03 0.  0.
          2    1    1    2  501    0 -0.38629172435E+02 -0.93369591079E+02 -0.13840725133E+04  0.13877560360E+04  0.00000000000E+00 0. -1.
          1    1    1    2  502    0  0.12919125278E+03 -0.10718281788E+03  0.41185799412E+03  0.44475335138E+03  0.00000000000E+00 0. -1.
         22    1    3    3    0    0 -0.53415594319E+02  0.73243428275E+02 -0.24316412378E+02  0.93856877281E+02  0.00000000000E+00 0.  1.
         22    1    3    3    0    0 -0.37146486029E+02  0.12730898068E+03 -0.22640301241E+03  0.26238475949E+03  0.00000000000E+00 0.  1.
</event>
<event>
 7    1  0.5889087E-006  0.7258439E+02  0.7818608E-02  0.1488042E+00
          2   -1    0    0  502    0  0.00000000000E+00  0.00000000000E+00  0.19585490252E+04  0.19585490252E+04  0.00000000000E+00 0. -1.
          1   -1    0    0  501    0 -0.00000000000E+00 -0.00000000000E+00 -0.30162221827E+03  0.30162221827E+03  0.00000000000E+00 0. -1.
         25    2    1    2    0    0 -0.94512195770E+02 -0.20111114536E+02  0.77717564235E+02  0.17606439331E+03  0.12498655418E+03 0.  0.
          2    1    1    2  501    0  0.70700522529E+02  0.11475373352E+02 -0.24727874156E+03  0.25744324444E+03  0.00000000000E+00 0. -1.
          1    1    1    2  502    0  0.23811673241E+02  0.86357411840E+01  0.18264879842E+04  0.18266636057E+04  0.00000000000E+00 0. -1.
         22    1    3    3    0    0 -0.61228498081E+02 -0.71984216685E+02  0.33717510050E+02  0.10033706650E+03  0.00000000000E+00 0. -1.
         22    1    3    3    0    0 -0.33283697689E+02  0.51873102149E+02  0.44000054185E+02  0.75727326816E+02  0.00000000000E+00 0. -1.
</event>
<event>
 7    1  0.5889087E-006  0.1269303E+03  0.7818608E-02  0.1381268E+00
          2   -1    0    0  502    0  0.00000000000E+00  0.00000000000E+00  0.36756030654E+03  0.36756030654E+03  0.00000000000E+00 0. -1.
          1   -1    0    0  501    0 -0.00000000000E+00 -0.00000000000E+00 -0.14940401614E+04  0.14940401614E+04  0.00000000000E+00 0. -1.
         25    2    1    2    0    0  0.79472139894E+02 -0.62166194881E+02 -0.12758212623E+03  0.20514117106E+03  0.12500097730E+03 0.  0.
          2    1    1    2  501    0 -0.11178213162E+03  0.64614856429E+02 -0.13237315545E+04  0.13300133657E+04  0.00000000000E+00 0. -1.
          1    1    1    2  502    0  0.32309991728E+02 -0.24486615484E+01  0.32483382590E+03  0.32644593114E+03  0.00000000000E+00 0. -1.
         22    1    3    3    0    0  0.86277284191E+02 -0.61782827093E+02 -0.34173428351E+02  0.11148412755E+03  0.00000000000E+00 0. -1.
         22    1    3    3    0    0 -0.68051442972E+01 -0.38336778829E+00 -0.93408697878E+02  0.93657043510E+02  0.00000000000E+00 0. -1.
</event>
<event>
 7    1  0.7694094E-006  0.7197341E+02  0.7818608E-02  0.1449292E+00
          2   -1    0    0  502    0  0.00000000000E+00  0.00000000000E+00  0.15818543949E+04  0.15818543949E+04  0.00000000000E+00 0. -1.
          1   -1    0    0  501    0 -0.00000000000E+00 -0.00000000000E+00 -0.82311597297E+03  0.82311597297E+03  0.00000000000E+00 0. -1.
         25    2    1    2    0    0  0.72254130911E+01 -0.48894554111E+02 -0.76907220472E+02  0.15486406826E+03  0.12500110024E+03 0.  0.
          2    1    1    2  501    0  0.31535262378E+02 -0.11981974985E+02 -0.70598340574E+03  0.70678894281E+03  0.00000000000E+00 0. -1.
          1    1    1    2  502    0 -0.38760675469E+02  0.60876529096E+02  0.15416290481E+04  0.15433173568E+04  0.00000000000E+00 0. -1.
         22    1    3    3    0    0 -0.14274395423E+02 -0.64629046198E+02  0.72573293756E+01  0.66583337306E+02  0.00000000000E+00 0.  1.
         22    1    3    3    0    0  0.21499808514E+02  0.15734492087E+02 -0.84164549847E+02  0.88280730957E+02  0.00000000000E+00 0.  1.
</event>
<event>
 7    1  0.5889087E-006  0.7759622E+02  0.7818608E-02  0.1366849E+00
          2   -1    0    0  502    0  0.00000000000E+00  0.00000000000E+00  0.10649974662E+04  0.10649974662E+04  0.00000000000E+00 0. -1.
          1   -1    0    0  501    0 -0.00000000000E+00 -0.00000000000E+00 -0.16478154347E+04  0.16478154347E+04  0.00000000000E+00 0. -1.
         25    2    1    2    0    0  0.11381601549E+03 -0.37574599971E+02  0.79894387105E+03  0.81749892810E+03  0.12500900937E+03 0.  0.
          2    1    1    2  501    0 -0.53760732339E+02  0.25912868245E+02 -0.16343416530E+04  0.16354309315E+04  0.00000000000E+00 0. -1.
          1    1    1    2  502    0 -0.60055283153E+02  0.11661731727E+02  0.25257981341E+03  0.25988304132E+03  0.00000000000E+00 0. -1.
         22    1    3    3    0    0  0.95321929535E+02 -0.76441124385E+02  0.68257522786E+03  0.69342516355E+03  0.00000000000E+00 0. -1.
         22    1    3    3    0    0  0.18494085958E+02  0.38866524413E+02  0.11636864318E+03  0.12407376456E+03  0.00000000000E+00 0. -1.
</event>
<event>
 7    1  0.5889087E-006  0.3677609E+02  0.7818608E-02  0.1541957E+00
          2   -1    0    0  502    0  0.00000000000E+00  0.00000000000E+00  0.55244707809E+03  0.55244707809E+03  0.00000000000E+00 0. -1.
          1   -1    0    0  501    0 -0.00000000000E+00 -0.00000000000E+00 -0.23634531284E+03  0.23634531284E+03  0.00000000000E+00 0. -1.
         25    2    1    2    0    0 -0.94937206550E+01 -0.55341557827E+02  0.19937392184E+03  0.24192593042E+03  0.12500150536E+03 0.  0.
          2    1    1    2  501    0  0.26748554058E+02  0.25153862929E+02 -0.21258012922E+03  0.21572786863E+03  0.00000000000E+00 0. -1.
          1    1    1    2  502    0 -0.17254833403E+02  0.30187694898E+02  0.32930797263E+03  0.33113859188E+03  0.00000000000E+00 0. -1.
         22    1    3    3    0    0  0.28708163914E+02 -0.59229658276E+01  0.17069591406E+03  0.17319450129E+03  0.00000000000E+00 0.  1.
         22    1    3    3    0    0 -0.38201884569E+02 -0.49418592000E+02  0.28678007781E+02  0.68731429129E+02  0.00000000000E+00 0.  1.
</event>
<event>
 7    1  0.5889087E-006  0.3448617E+02  0.7818608E-02  0.1585720E+00
          2   -1    0    0  502    0  0.00000000000E+00  0.00000000000E+00  0.33303889348E+03  0.33303889348E+03  0.00000000000E+00 0. -1.
          1   -1    0    0  501    0 -0.00000000000E+00 -0.00000000000E+00 -0.17800976878E+03  0.17800976878E+03  0.00000000000E+00 0. -1.
         25    2    1    2    0    0 -0.53540552889E+02 -0.11506003220E+02  0.63922309805E+02  0.15069853007E+03  0.12500002544E+03 0.  0.
          2    1    1    2  501    0  0.20423245601E+02  0.19351881456E+02 -0.13184601363E+03  0.13481459708E+03  0.00000000000E+00 0. -1.
          1    1    1    2  502    0  0.33117307288E+02 -0.78458782361E+01  0.22295282853E+03  0.22553553511E+03  0.00000000000E+00 0. -1.
         22    1    3    3    0    0 -0.93920193106E+02 -0.12319924909E+02  0.54283709602E+02  0.10917648259E+03  0.00000000000E+00 0. -1.
         22    1    3    3    0    0  0.40379640217E+02  0.81392168963E+00  0.96386002033E+01  0.41522047475E+02  0.00000000000E+00 0. -1.
</event>
<event>
 7    1  0.5889087E-006  0.7220416E+02  0.7818608E-02  0.1361267E+00
          2   -1    0    0  502    0  0.00000000000E+00  0.00000000000E+00  0.18531526926E+04  0.18531526926E+04  0.00000000000E+00 0. -1.
          1   -1    0    0  501    0 -0.00000000000E+00 -0.00000000000E+00 -0.15645169105E+02  0.15645169105E+02  0.00000000000E+00 0. -1.
         25    2    1    2    0    0 -0.17739567853E+02  0.92453040104E+01  0.11397449457E+04  0.11467531946E+04  0.12499672022E+03 0.  0.
          2    1    1    2  501    0  0.77078811110E+02  0.22287906180E+02  0.14942154498E+03  0.16960156836E+03  0.00000000000E+00 0. -1.
          1    1    1    2  502    0 -0.59339243257E+02 -0.31533210190E+02  0.54834103279E+03  0.55244309877E+03  0.00000000000E+00 0. -1.
         22    1    3    3    0    0 -0.28869480495E+02  0.11218718238E+01  0.56845679889E+02  0.63766267121E+02  0.00000000000E+00 0.  1.
         22    1    3    3    0    0  0.11129912642E+02  0.81234321866E+01  0.10828992658E+04  0.10829869274E+04  0.00000000000E+00 0.  1.
</event>
<event>
 7    1  0.5889087E-006  0.1029575E+03  0.7818608E-02  0.1346492E+00
          2   -1    0    0  502    0  0.00000000000E+00  0.00000000000E+00  0.59944834629E+03  0.59944834629E+03  0.00000000000E+00 0. -1.
          1   -1    0    0  501    0 -0.00000000000E+00 -0.00000000000E+00 -0.17426521619E+04  0.17426521619E+04  0.00000000000E+00 0. -1.
         25    2    1    2    0    0 -0.10966827915E+03  0.95566475641E+02 -0.87163350032E+02  0.21067484290E+03  0.12500542838E+03 0.  0.
          2    1    1    2  501    0  0.18699986542E+02 -0.50037038016E+02 -0.15884687186E+04  0.15893666237E+04  0.00000000000E+00 0. -1.
          1    1    1    2  502    0  0.90968292604E+02 -0.45529437626E+02  0.53242825301E+03  0.54205904158E+03  0.00000000000E+00 0. -1.
         22    1    3    3    0    0 -0.37153600526E+02  0.10759279580E+03 -0.74623881282E+02  0.13610776391E+03  0.00000000000E+00 0. -1.
         22    1    3    3    0    0 -0.72514678619E+02 -0.12026320157E+02 -0.12539468750E+02  0.74567078985E+02  0.00000000000E+00 0. -1.
</event>
<event>
 7    1  0.5889087E-006  0.1324029E+03  0.7818608E-02  0.1279223E+00
          2   -1    0    0  502    0  0.00000000000E+00  0.00000000000E+00  0.27170521084E+04  0.27170521084E+04  0.00000000000E+00 0. -1.
          1   -1    0    0  501    0 -0.00000000000E+00 -0.00000000000E+00 -0.94884181203E+02  0.94884181203E+02  0.00000000000E+00 0. -1.
         25    2    1    2    0    0  0.86735901659E+02  0.51923894969E+02  0.83998956759E+03  0.85523462605E+03  0.12499833773E+03 0.  0.
          2    1    1    2  501    0 -0.57691722813E+02 -0.12248269097E+03 -0.33458170135E+02  0.13946251689E+03  0.00000000000E+00 0. -1.
          1    1    1    2  502    0 -0.29044178845E+02  0.70558796002E+02  0.18156365298E+04  0.18172391467E+04  0.00000000000E+00 0. -1.
         22    1    3    3    0    0  0.61075495335E+02 -0.28243952144E+02  0.23592497452E+03  0.24533350885E+03  0.00000000000E+00 0.  1.
         22    1    3    3    0    0  0.25660406324E+02  0.80167847113E+02  0.60406459307E+03  0.60990111720E+03  0.00000000000E+00 0.  1.
</event>
<event>
 7    1  0.6459191E-006  0.1159515E+03  0.7818608E-02  0.1350502E+00
          2   -1    0    0  502    0  0.00000000000E+00  0.00000000000E+00  0.10176161113E+04  0.10176161113E+04  0.00000000000E+00 0. -1.
          1   -1    0    0  501    0 -0.00000000000E+00 -0.00000000000E+00 -0.30449280507E+04  0.30449280507E+04  0.00000000000E+00 0. -1.
         25    2    1    2    0    0  0.19405732288E+02 -0.77742013844E+02 -0.39397588165E+03  0.42102516130E+03  0.12499915187E+03 0.  0.
          2    1    1    2  501    0 -0.55314909307E+02  0.10622234766E+03 -0.26355439837E+04  0.26382636367E+04  0.00000000000E+00 0. -1.
          1    1    1    2  502    0  0.35909177019E+02 -0.28480333814E+02  0.10022079261E+04  0.10032553640E+04  0.00000000000E+00 0. -1.
         22    1    3    3    0    0 -0.18837743272E+02 -0.34680087020E+02 -0.33938229325E+03  0.34166929915E+03  0.00000000000E+00 0.  1.
         22    1    3    3    0    0  0.38243475560E+02 -0.43061926824E+02 -0.54593588398E+02  0.79355862158E+02  0.00000000000E+00 0.  1.
</event>
<event>
 7    1  0.5889087E-006  0.2005484E+03  0.7818608E-02  0.1342309E+00
          2   -1    0    0  502    0  0.00000000000E+00  0.00000000000E+00  0.85021292501E+03  0.85021292501E+03  0.00000000000E+00 0. -1.
          1   -1    0    0  501    0 -0.00000000000E+00 -0.00000000000E+00 -0.73835953684E+03  0.73835953684E+03  0.00000000000E+00 0. -1.
         25    2    1    2    0    0 -0.18199577361E+03 -0.20180327542E+01 -0.13780994583E+02  0.22122616201E+03  0.12499825949E+03 0.  0.
          2    1    1    2  501    0 -0.20009582925E+02  0.20193717081E+02 -0.60674035812E+03  0.60740598597E+03  0.00000000000E+00 0. -1.
          1    1    1    2  502    0  0.20200535654E+03 -0.18175684327E+02  0.73237474088E+03  0.75994031387E+03  0.00000000000E+00 0. -1.
         22    1    3    3    0    0 -0.98089957257E+02  0.48047911059E+02  0.31297328867E+02  0.11362114357E+03  0.00000000000E+00 0. -1.
         22    1    3    3    0    0 -0.83905816354E+02 -0.50065943813E+02 -0.45078323450E+02  0.10760501844E+03  0.00000000000E+00 0. -1.
</event>
<event>
 7    1  0.5889087E-006  0.8245667E+02  0.7818608E-02  0.1386436E+00
          2   -1    0    0  502    0  0.00000000000E+00  0.00000000000E+00  0.14562394911E+03  0.14562394911E+03  0.00000000000E+00 0. -1.
          1   -1    0    0  501    0 -0.00000000000E+00 -0.00000000000E+00 -0.10564276106E+04  0.10564276106E+04  0.00000000000E+00 0. -1.
         25    2    1    2    0    0  0.10698829132E+03  0.15953263964E+02 -0.42761600561E+02  0.17074912288E+03  0.12500282946E+03 0.  0.
          2    1    1    2  501    0 -0.40016111539E+02  0.26203157735E+02 -0.92973261686E+03  0.93096220843E+03  0.00000000000E+00 0. -1.
          1    1    1    2  502    0 -0.66972179778E+02 -0.42156421699E+02  0.61690555900E+02  0.10034022843E+03  0.00000000000E+00 0. -1.
         22    1    3    3    0    0  0.92643411913E+02  0.61292104143E+02 -0.51430021767E+02  0.12241148206E+03  0.00000000000E+00 0. -1.
         22    1    3    3    0    0  0.14344879404E+02 -0.45338840179E+02  0.86684212054E+01  0.48337640821E+02  0.00000000000E+00 0. -1.
</event>
<event>
 7    1  0.5889087E-006  0.3829344E+02  0.7818608E-02  0.1577988E+00
          2   -1    0    0  502    0  0.00000000000E+00  0.00000000000E+00  0.17745487312E+04  0.17745487312E+04  0.00000000000E+00 0. -1.
          1   -1    0    0  501    0 -0.00000000000E+00 -0.00000000000E+00 -0.77879113979E+02  0.77879113979E+02  0.00000000000E+00 0. -1.
         25    2    1    2    0    0  0.17093857109E+01  0.49329087779E+02  0.25400439844E+03  0.28736607503E+03  0.12499898299E+03 0.  0.
          2    1    1    2  501    0  0.19259442404E+02 -0.33004570211E+02 -0.55103751318E+02  0.67057074093E+02  0.00000000000E+00 0. -1.
          1    1    1    2  502    0 -0.20968828115E+02 -0.16324517569E+02  0.14977689701E+04  0.14980046961E+04  0.00000000000E+00 0. -1.
         22    1    3    3    0    0 -0.47410369284E+02 -0.99764954193E+01  0.15215397482E+03  0.15968126262E+03  0.00000000000E+00 0.  1.
         22    1    3    3    0    0  0.49119754995E+02  0.59305583199E+02  0.10185042362E+03  0.12768481241E+03  0.00000000000E+00 0.  1.
</event>
<event>
 7    1  0.5889087E-006  0.2088094E+03  0.7818608E-02  0.1215174E+00
          2   -1    0    0  502    0  0.00000000000E+00  0.00000000000E+00  0.12060993214E+04  0.12060993214E+04  0.00000000000E+00 0. -1.
          1   -1    0    0  501    0 -0.00000000000E+00 -0.00000000000E+00 -0.58926507920E+03  0.58926507920E+03  0.00000000000E+00 0. -1.
         25    2    1    2    0    0  0.19074285443E+03 -0.50303189551E+02  0.13835568073E+03  0.27144612493E+03  0.12500982743E+03 0.  0.
          2    1    1    2  501    0  0.19194064308E+02  0.90024307345E+02 -0.50713034926E+03  0.51541631635E+03  0.00000000000E+00 0. -1.
          1    1    1    2  502    0 -0.20993691874E+03 -0.39721117795E+02  0.98560891076E+03  0.10085019594E+04  0.00000000000E+00 0. -1.
         22    1    3    3    0    0 -0.35727740182E+01 -0.32597058832E+02  0.96263255520E+00  0.32806396025E+02  0.00000000000E+00 0. -1.
         22    1    3    3    0    0  0.19431562845E+03 -0.17706130719E+02  0.13739304817E+03  0.23863972890E+03  0.00000000000E+00 0. -1.
</event>
<event>
 7    1  0.5889087E-006  0.7089042E+02  0.7818608E-02  0.1418489E+00
          2   -1    0    0  502    0  0.00000000000E+00  0.00000000000E+00  0.16757612282E+04  0.16757612282E+04  0.00000000000E+00 0. -1.
          1   -1    0    0  501    0 -0.00000000000E+00 -0.00000000000E+00 -0.24353189473E+02  0.24353189473E+02  0.00000000000E+00 0. -1.
         25    2    1    2    0    0  0.69978806679E+02  0.74886270349E+02  0.13177396190E+04  0.13276173247E+04  0.12500028154E+03 0.  0.
          2    1    1    2  501    0 -0.28298242403E+02 -0.63515671883E+02  0.50216113710E+02  0.85771144180E+02  0.00000000000E+00 0. -1.
          1    1    1    2  502    0 -0.41680564276E+02 -0.11370598465E+02  0.28345230606E+03  0.28672594888E+03  0.00000000000E+00 0. -1.
         22    1    3    3    0    0  0.46650775813E+02  0.93478653455E+02  0.12393181464E+04  0.12437138021E+04  0.00000000000E+00 0.  1.
         22    1    3    3    0    0  0.23328030866E+02 -0.18592383107E+02  0.78421472626E+02  0.83903522587E+02  0.00000000000E+00 0.  1.
</event>
<event>
 7    1  0.5889087E-006  0.7888069E+02  0.7818608E-02  0.1446600E+00
          2   -1    0    0  502    0  0.00000000000E+00  0.00000000000E+00  0.65395703525E+03  0.65395703525E+03  0.00000000000E+00 0. -1.
          1   -1    0    0  501    0 -0.00000000000E+00 -0.00000000000E+00 -0.33802703363E+02  0.33802703363E+02  0.00000000000E+00 0. -1.
         25    2    1    2    0    0  0.94784797724E+02 -0.34187066458E+01  0.26371327578E+03  0.30686425200E+03  0.12500052761E+03 0.  0.
          2    1    1    2  501    0 -0.69695060709E+02  0.22297754657E+02  0.10786151415E+03  0.13034069811E+03  0.00000000000E+00 0. -1.
          1    1    1    2  502    0 -0.25089737015E+02 -0.18879048011E+02  0.24857954196E+03  0.25055478850E+03  0.00000000000E+00 0. -1.
         22    1    3    3    0    0  0.44897135920E+02 -0.54651110646E+02  0.19604579782E+03  0.20841413472E+03  0.00000000000E+00 0.  1.
         22    1    3    3    0    0  0.49887661804E+02  0.51232404000E+02  0.67667477957E+02  0.98450117282E+02  0.00000000000E+00 0.  1.
</event>
<event>
 7    1  0.5889087E-006  0.1181100E+03  0.7818608E-02  0.1275673E+00
          2   -1    0    0  502    0  0.00000000000E+00  0.00000000000E+00  0.34662883233E+04  0.34662883233E+04  0.00000000000E+00 0. -1.
          1   -1    0    0  501    0 -0.00000000000E+00 -0.00000000000E+00 -0.92088309288E+02  0.92088309288E+02  0.00000000000E+00 0. -1.
         25    2    1    2    0    0 -0.11471965886E+03  0.16219226452E+03  0.61807191657E+03  0.66113947439E+03  0.12500231892E+03 0.  0.
          2    1    1    2  501    0  0.34205019816E+02 -0.81608796396E+02 -0.41187414005E+02  0.97603186948E+02  0.00000000000E+00 0. -1.
          1    1    1    2  502    0  0.80514639041E+02 -0.80583468125E+02  0.27973155114E+04  0.27996339712E+04  0.00000000000E+00 0. -1.
         22    1    3    3    0    0 -0.69890157817E+02  0.16020787379E+03  0.56613037093E+03  0.59249877120E+03  0.00000000000E+00 0.  1.
         22    1    3    3    0    0 -0.44829501040E+02  0.19843907342E+01  0.51941545638E+02  0.68640703182E+02  0.00000000000E+00 0.  1.
</event>
<event>
 7    1  0.5889087E-006  0.1185822E+03  0.7818608E-02  0.1296024E+00
          2   -1    0    0  502    0  0.00000000000E+00  0.00000000000E+00  0.10522832375E+04  0.10522832375E+04  0.00000000000E+00 0. -1.
          1   -1    0    0  501    0 -0.00000000000E+00 -0.00000000000E+00 -0.32981447442E+03  0.32981447442E+03  0.00000000000E+00 0. -1.
         25    2    1    2    0    0 -0.94049864769E+02 -0.97159587494E+01  0.56206269287E+02  0.16650570093E+03  0.12500090726E+03 0.  0.
          2    1    1    2  501    0  0.92195304453E+02  0.82440280008E+02 -0.25924189910E+03  0.28723289536E+03  0.00000000000E+00 0. -1.
          1    1    1    2  502    0  0.18545603155E+01 -0.72724321258E+02  0.92550439290E+03  0.92835911563E+03  0.00000000000E+00 0. -1.
         22    1    3    3    0    0  0.13581472428E+02 -0.18896606774E+02  0.53620584868E+02  0.58452589869E+02  0.00000000000E+00 0.  1.
         22    1    3    3    0    0 -0.10763133720E+03  0.91806480243E+01  0.25856844191E+01  0.10805311106E+03  0.00000000000E+00 0.  1.
</event>
<event>
 7    1  0.5889087E-006  0.1733761E+03  0.7818608E-02  0.1232269E+00
          2   -1    0    0  502    0  0.00000000000E+00  0.00000000000E+00  0.45231356093E+03  0.45231356093E+03  0.00000000000E+00 0. -1.
          1   -1    0    0  501    0 -0.00000000000E+00 -0.00000000000E+00 -0.95764898722E+03  0.95764898722E+03  0.00000000000E+00 0. -1.
         25    2    1    2    0    0  0.13323042733E+03 -0.19180666769E+03  0.21215834631E+03  0.33937725362E+03  0.12500244729E+03 0.  0.
          2    1    1    2  501    0 -0.14036267828E+03  0.99332119109E+02 -0.87286207963E+03  0.88963855660E+03  0.00000000000E+00 0. -1.
          1    1    1    2  502    0  0.71322509482E+01  0.92474548578E+02  0.15536830702E+03  0.18094673792E+03  0.00000000000E+00 0. -1.
         22    1    3    3    0    0  0.14453079520E+03 -0.11753412122E+03  0.12515468396E+03  0.22442619127E+03  0.00000000000E+00 0.  1.
         22    1    3    3    0    0 -0.11300367865E+02 -0.74272546468E+02  0.87003662357E+02  0.11495106235E+03  0.00000000000E+00 0.  1.
</event>
<event>
 7    1  0.5889087E-006  0.1974205E+03  0.7818608E-02  0.1175185E+00
          2   -1    0    0  502    0  0.00000000000E+00  0.00000000000E+00  0.71044945193E+03  0.71044945193E+03  0.00000000000E+00 0. -1.
          1   -1    0    0  501    0 -0.00000000000E+00 -0.00000000000E+00 -0.61271458018E+03  0.61271458018E+03  0.00000000000E+00 0. -1.
         25    2    1    2    0    0 -0.76576696624E+02  0.32126550483E+03  0.12391783361E+02  0.35333757972E+03  0.12497349276E+03 0.  0.
          2    1    1    2  501    0  0.67466663988E+02 -0.17067781720E+03 -0.41150655386E+03  0.45057775345E+03  0.00000000000E+00 0. -1.
          1    1    1    2  502    0  0.91100326363E+01 -0.15058768762E+03  0.49684964224E+03  0.51924869895E+03  0.00000000000E+00 0. -1.
         22    1    3    3    0    0 -0.20302661689E+02  0.28568705693E+03  0.13873377893E+02  0.28674337513E+03  0.00000000000E+00 0. -1.
         22    1    3    3    0    0 -0.56274034935E+02  0.35578447899E+02 -0.14815945315E+01  0.66594204592E+02  0.00000000000E+00 0. -1.
</event>
<event>
 7    1  0.5889087E-006  0.5321265E+02  0.7818608E-02  0.1552503E+00
          2   -1    0    0  502    0  0.00000000000E+00  0.00000000000E+00  0.19047628836E+04  0.19047628836E+04  0.00000000000E+00 0. -1.
          1   -1    0    0  501    0 -0.00000000000E+00 -0.00000000000E+00 -0.63893004095E+02  0.63893004095E+02  0.00000000000E+00 0. -1.
         25    2    1    2    0    0  0.12017206876E+01  0.68017583404E+02  0.17658727368E+04  0.17715975685E+04  0.12499434537E+03 0.  0.
          2    1    1    2  501    0  0.13795189321E+02 -0.51309507532E+02 -0.48257371406E+02  0.71775669322E+02  0.00000000000E+00 0. -1.
          1    1    1    2  502    0 -0.14996910009E+02 -0.16708075872E+02  0.12325451411E+03  0.12528264987E+03  0.00000000000E+00 0. -1.
         22    1    3    3    0    0 -0.34526163848E+02 -0.73063442307E+01  0.10944625070E+04  0.10950313319E+04  0.00000000000E+00 0. -1.
         22    1    3    3    0    0  0.35727884536E+02  0.75323927635E+02  0.67141022977E+03  0.67656623656E+03  0.00000000000E+00 0. -1.
</event>
<event>
 7    1  0.5889087E-006  0.1823452E+03  0.7818608E-02  0.1274482E+00
          2   -1    0    0  502    0  0.00000000000E+00  0.00000000000E+00  0.47955794574E+03  0.47955794574E+03  0.00000000000E+00 0. -1.
          1   -1    0    0  501    0 -0.00000000000E+00 -0.00000000000E+00 -0.12137565615E+03  0.12137565615E+03  0.00000000000E+00 0. -1.
         25    2    1    2    0    0 -0.75909650888E+02  0.15628103441E+03  0.15568459025E+03  0.26466756433E+03  0.12500076460E+03 0.  0.
          2    1    1    2  501    0  0.47385178793E+02  0.33401276581E+02  0.88014161869E+00  0.57980816618E+02  0.00000000000E+00 0. -1.
          1    1    1    2  502    0  0.28524472096E+02 -0.18968231099E+03  0.20161755772E+03  0.27828522094E+03  0.00000000000E+00 0. -1.
         22    1    3    3    0    0 -0.47956230616E+01  0.12918091045E+03  0.60296014262E+02  0.14264050953E+03  0.00000000000E+00 0.  1.
         22    1    3    3    0    0 -0.71114027827E+02  0.27100123964E+02  0.95388575987E+02  0.12202705479E+03  0.00000000000E+00 0.  1.
</event>
<event>
 7    1  0.5889087E-006  0.1513554E+03  0.7818608E-02  0.1363362E+00
          2   -1    0    0  502    0  0.00000000000E+00  0.00000000000E+00  0.95566550885E+03  0.95566550885E+03  0.00000000000E+00 0. -1.
          1   -1    0    0  501    0 -0.00000000000E+00 -0.00000000000E+00 -0.93637805009E+02  0.93637805009E+02  0.00000000000E+00 0. -1.
         25    2    1    2    0    0 -0.47129199324E+02 -0.15637074337E+03  0.39813049869E+03  0.44811407240E+03  0.12500142836E+03 0.  0.
          2    1    1    2  501    0 -0.19164407809E+02  0.24998557666E+02 -0.54151652858E+02  0.62646659283E+02  0.00000000000E+00 0. -1.
          1    1    1    2  502    0  0.66293607132E+02  0.13137218571E+03  0.51804885802E+03  0.53854258218E+03  0.00000000000E+00 0. -1.
         22    1    3    3    0    0  0.17841242713E+02  0.10030120392E+02  0.86750779451E+02  0.89132547321E+02  0.00000000000E+00 0.  1.
         22    1    3    3    0    0 -0.64970442036E+02 -0.16640086376E+03  0.31137971923E+03  0.35898152508E+03  0.00000000000E+00 0.  1.
</event>
<event>
 7    1  0.5889087E-006  0.1200237E+03  0.7818608E-02  0.1309599E+00
          2   -1    0    0  502    0  0.00000000000E+00  0.00000000000E+00  0.87071724588E+03  0.87071724588E+03  0.00000000000E+00 0. -1.
          1   -1    0    0  501    0 -0.00000000000E+00 -0.00000000000E+00 -0.61245655289E+03  0.61245655289E+03  0.00000000000E+00 0. -1.
         25    2    1    2    0    0 -0.10261985180E+03  0.67304495262E+02  0.13013495827E+03  0.21822363393E+03  0.12500287187E+03 0.  0.
          2    1    1    2  501    0  0.53800780895E+02 -0.10784196409E+03 -0.56054900174E+03  0.57335817479E+03  0.00000000000E+00 0. -1.
          1    1    1    2  502    0  0.48819070901E+02  0.40537468829E+02  0.68867473647E+03  0.69159199006E+03  0.00000000000E+00 0. -1.
         22    1    3    3    0    0 -0.27617410340E+02  0.90986413393E+02  0.57232783401E+02  0.11098126090E+03  0.00000000000E+00 0. -1.
         22    1    3    3    0    0 -0.75002441456E+02 -0.23681918131E+02  0.72902174872E+02  0.10724237302E+03  0.00000000000E+00 0. -1.
</event>
<event>
 7    1  0.5889087E-006  0.8960751E+02  0.7818608E-02  0.1470140E+00
          2   -1    0    0  502    0  0.00000000000E+00  0.00000000000E+00  0.73745966703E+03  0.73745966703E+03  0.00000000000E+00 0. -1.
          1   -1    0    0  501    0 -0.00000000000E+00 -0.00000000000E+00 -0.45150734950E+03  0.45150734950E+03  0.00000000000E+00 0. -1.
         25    2    1    2    0    0  0.56025368539E+02 -0.94887975993E+02  0.17900622058E+03  0.24456139390E+03  0.12499791386E+03 0.  0.
          2    1    1    2  501    0 -0.82428504638E+01  0.21779170341E+02 -0.41477317085E+03  0.41542635943E+03  0.00000000000E+00 0. -1.
          1    1    1    2  502    0 -0.47782518075E+02  0.73108805652E+02  0.52171926780E+03  0.52897926320E+03  0.00000000000E+00 0. -1.
         22    1    3    3    0    0  0.31306816161E+02 -0.27818498311E+02 -0.95116436965E+01  0.42947141375E+02  0.00000000000E+00 0. -1.
         22    1    3    3    0    0  0.24718552378E+02 -0.67069477682E+02  0.18851786428E+03  0.20161425252E+03  0.00000000000E+00 0. -1.
</event>
<event>
 7    1  0.5889087E-006  0.7605912E+02  0.7818608E-02  0.1343222E+00
          2   -1    0    0  502    0  0.00000000000E+00  0.00000000000E+00  0.90788917121E+03  0.90788917121E+03  0.00000000000E+00 0. -1.
          1   -1    0    0  501    0 -0.00000000000E+00 -0.00000000000E+00 -0.19863779907E+03  0.19863779907E+03  0.00000000000E+00 0. -1.
         25    2    1    2    0    0 -0.57461440385E+02  0.34913161433E+02  0.15401417390E+03  0.20944025946E+03  0.12499644215E+03 0.  0.
          2    1    1    2  501    0  0.67901801393E+02  0.38720414946E+02 -0.15995806712E+03  0.17803513249E+03  0.00000000000E+00 0. -1.
          1    1    1    2  502    0 -0.10440361008E+02 -0.73633576379E+02  0.71519526536E+03  0.71905157833E+03  0.00000000000E+00 0. -1.
         22    1    3    3    0    0  0.39910139101E+01 -0.11186948033E+02  0.12767804821E+03  0.12822932579E+03  0.00000000000E+00 0.  1.
         22    1    3    3    0    0 -0.61452454295E+02  0.46100109466E+02  0.26336125693E+02  0.81210933674E+02  0.00000000000E+00 0.  1.
</event>
<event>
 7    1  0.5889087E-006  0.1211746E+03  0.7818608E-02  0.1276313E+00
          2   -1    0    0  502    0  0.00000000000E+00  0.00000000000E+00  0.99496251465E+03  0.99496251465E+03  0.00000000000E+00 0. -1.
          1   -1    0    0  501    0 -0.00000000000E+00 -0.00000000000E+00 -0.20688141325E+03  0.20688141325E+03  0.00000000000E+00 0. -1.
         25    2    1    2    0    0  0.54943891338E+02  0.72575608184E+02  0.12426100519E+02  0.15513038716E+03  0.12499991579E+03 0.  0.
          2    1    1    2  501    0 -0.27228265927E+01 -0.14055535176E+03 -0.96397906212E+02  0.17045755195E+03  0.00000000000E+00 0. -1.
          1    1    1    2  502    0 -0.52221064746E+02  0.67979743578E+02  0.87205290709E+03  0.87625598880E+03  0.00000000000E+00 0. -1.
         22    1    3    3    0    0 -0.23061251508E+02 -0.21116923494E+01  0.37674645786E+02  0.44222839131E+02  0.00000000000E+00 0. -1.
         22    1    3    3    0    0  0.78005142846E+02  0.74687300533E+02 -0.25248545267E+02  0.11090754803E+03  0.00000000000E+00 0. -1.
</event>
<event>
 7    1  0.5889087E-006  0.1077489E+03  0.7818608E-02  0.1426540E+00
          2   -1    0    0  502    0  0.00000000000E+00  0.00000000000E+00  0.91227237397E+03  0.91227237397E+03  0.00000000000E+00 0. -1.
          1   -1    0    0  501    0 -0.00000000000E+00 -0.00000000000E+00 -0.43002303013E+03  0.43002303013E+03  0.00000000000E+00 0. -1.
         25    2    1    2    0    0 -0.33957692725E+02  0.77749560831E+02  0.12740803765E+03  0.19762221554E+03  0.12499445153E+03 0.  0.
          2    1    1    2  501    0  0.31042021924E+02 -0.10431399844E+03 -0.38717238791E+03  0.40217841234E+03  0.00000000000E+00 0. -1.
          1    1    1    2  502    0  0.29156708005E+01  0.26564437609E+02  0.74201369410E+03  0.74249477622E+03  0.00000000000E+00 0. -1.
         22    1    3    3    0    0 -0.16822149785E+02  0.64241080576E+02 -0.19510932924E+01  0.66435742804E+02  0.00000000000E+00 0. -1.
         22    1    3    3    0    0 -0.17135542940E+02  0.13508480255E+02  0.12935913094E+03  0.13118647273E+03  0.00000000000E+00 0. -1.
</event>
<event>
 7    1  0.5889087E-006  0.5241002E+02  0.7818608E-02  0.1456877E+00
          2   -1    0    0  502    0  0.00000000000E+00  0.00000000000E+00  0.37649999900E+03  0.37649999900E+03  0.00000000000E+00 0. -1.
          1   -1    0    0  501    0 -0.00000000000E+00 -0.00000000000E+00 -0.20499937831E+03  0.20499937831E+03  0.00000000000E+00 0. -1.
         25    2    1    2    0    0  0.14385916442E+02 -0.38634726599E+02 -0.55585587686E+02  0.14287936220E+03  0.12500063157E+03 0.  0.
          2    1    1    2  501    0  0.36593332760E+02  0.24107019487E+02 -0.98994075412E+02  0.10825916755E+03  0.00000000000E+00 0. -1.
          1    1    1    2  502    0 -0.50979249202E+02  0.14527707112E+02  0.32608028379E+03  0.33036084756E+03  0.00000000000E+00 0. -1.
         22    1    3    3    0    0 -0.30770126178E+01 -0.17151951944E+02 -0.93959130414E+02  0.95561371119E+02  0.00000000000E+00 0. -1.
         22    1    3    3    0    0  0.17462929060E+02 -0.21482774656E+02  0.38373542727E+02  0.47317991078E+02  0.00000000000E+00 0. -1.
</event>
<event>
 7    1  0.5889087E-006  0.8663013E+02  0.7818608E-02  0.1390028E+00
          2   -1    0    0  502    0  0.00000000000E+00  0.00000000000E+00  0.84974900483E+03  0.84974900483E+03  0.00000000000E+00 0. -1.
          1   -1    0    0  501    0 -0.00000000000E+00 -0.00000000000E+00 -0.11780335688E+03  0.11780335688E+03  0.00000000000E+00 0. -1.
         25    2    1    2    0    0 -0.66471091331E+02 -0.10312433311E+03  0.20446363481E+03  0.26922777498E+03  0.12500073119E+03 0.  0.
          2    1    1    2  501    0  0.36429850881E+02  0.25081461868E+02 -0.76615989026E+02  0.88465945646E+02  0.00000000000E+00 0. -1.
          1    1    1    2  502    0  0.30041240450E+02  0.78042871245E+02  0.60409800217E+03  0.60985864108E+03  0.00000000000E+00 0. -1.
         22    1    3    3    0    0 -0.38637955296E+02 -0.36024336522E+02  0.62348989725E+00  0.52830229519E+02  0.00000000000E+00 0.  1.
         22    1    3    3    0    0 -0.27833136035E+02 -0.67099996590E+02  0.20384014491E+03  0.21639754546E+03  0.00000000000E+00 0.  1.
</event>
<event>
 7    1  0.5889087E-006  0.9742727E+02  0.7818608E-02  0.1309326E+00
          2   -1    0    0  502    0  0.00000000000E+00  0.00000000000E+00  0.24257363554E+03  0.24257363554E+03  0.00000000000E+00 0. -1.
          1   -1    0    0  501    0 -0.00000000000E+00 -0.00000000000E+00 -0.17245115438E+03  0.17245115438E+03  0.00000000000E+00 0. -1.
         25    2    1    2    0    0  0.19780476155E+02  0.28000473379E+02 -0.67776188713E+02  0.14626502533E+03  0.12499820851E+03 0.  0.
          2    1    1    2  501    0 -0.13477448157E+01  0.78355688820E+02 -0.16777843888E+02  0.80143162104E+02  0.00000000000E+00 0. -1.
          1    1    1    2  502    0 -0.18432731339E+02 -0.10635616220E+03  0.15467651376E+03  0.18861660248E+03  0.00000000000E+00 0. -1.
         22    1    3    3    0    0  0.42293386099E+02  0.33858904331E+02  0.18234984634E+02  0.57163542357E+02  0.00000000000E+00 0. -1.
         22    1    3    3    0    0 -0.22512909944E+02 -0.58584309515E+01 -0.86011173347E+02  0.89101482972E+02  0.00000000000E+00 0. -1.
</event>
<event>
 7    1  0.5889087E-006  0.1948861E+03  0.7818608E-02  0.1174491E+00
          2   -1    0    0  502    0  0.00000000000E+00  0.00000000000E+00  0.25465840431E+04  0.25465840431E+04  0.00000000000E+00 0. -1.
          1   -1    0    0  501    0 -0.00000000000E+00 -0.00000000000E+00 -0.98718395536E+02  0.98718395536E+02  0.00000000000E+00 0. -1.
         25    2    1    2    0    0 -0.14942480417E+03  0.41341832792E+02  0.28866078961E+03  0.35069485893E+03  0.12499965354E+03 0.  0.
          2    1    1    2  501    0  0.53732402780E+02  0.14435641593E+03  0.32191624397E+02  0.15736024469E+03  0.00000000000E+00 0. -1.
          1    1    1    2  502    0  0.95692401394E+02 -0.18569824872E+03  0.21270132336E+04  0.21372473350E+04  0.00000000000E+00 0. -1.
         22    1    3    3    0    0 -0.37595525332E+02  0.10359911062E+02 -0.62604629648E+00  0.39001836062E+02  0.00000000000E+00 0.  1.
         22    1    3    3    0    0 -0.11182927884E+03  0.30981921730E+02  0.28928683590E+03  0.31169302287E+03  0.00000000000E+00 0.  1.
</event>
<event>
 7    1  0.5889087E-006  0.4553552E+03  0.7818608E-02  0.1199372E+00
          2   -1    0    0  502    0  0.00000000000E+00  0.00000000000E+00  0.15014629808E+04  0.15014629808E+04  0.00000000000E+00 0. -1.
          1   -1    0    0  501    0 -0.00000000000E+00 -0.00000000000E+00 -0.82637043398E+03  0.82637043398E+03  0.00000000000E+00 0. -1.
         25    2    1    2    0    0  0.40490421347E+03  0.20533466780E+03 -0.20817513841E+03  0.51485138369E+03  0.12500124461E+03 0.  0.
          2    1    1    2  501    0 -0.38298464512E+03 -0.25028115743E+03 -0.35165738931E+03  0.57704489914E+03  0.00000000000E+00 0. -1.
          1    1    1    2  502    0 -0.21919568351E+02  0.44946489635E+02  0.12349250745E+04  0.12359371319E+04  0.00000000000E+00 0. -1.
         22    1    3    3    0    0  0.99682051682E+02  0.11560020387E+03 -0.62430154959E+02  0.16491647223E+03  0.00000000000E+00 0. -1.
         22    1    3    3    0    0  0.30522216179E+03  0.89734463925E+02 -0.14574498345E+03  0.34993491147E+03  0.00000000000E+00 0. -1.
</event>
<event>
 7    1  0.5889087E-006  0.9833779E+02  0.7818608E-02  0.1315483E+00
          2   -1    0    0  502    0  0.00000000000E+00  0.00000000000E+00  0.17844049969E+04  0.17844049969E+04  0.00000000000E+00 0. -1.
          1   -1    0    0  501    0 -0.00000000000E+00 -0.00000000000E+00 -0.21048077248E+03  0.21048077248E+03  0.00000000000E+00 0. -1.
         25    2    1    2    0    0  0.98472418384E+02 -0.91483799558E+02  0.12636138526E+04  0.12768746799E+04  0.12499150830E+03 0.  0.
          2    1    1    2  501    0 -0.16590261829E+02  0.71539683910E+02 -0.19362149839E+03  0.20708077603E+03  0.00000000000E+00 0. -1.
          1    1    1    2  502    0 -0.81882156555E+02  0.19944115647E+02  0.50393187021E+03  0.51093031337E+03  0.00000000000E+00 0. -1.
         22    1    3    3    0    0 -0.27655372417E+02 -0.25796331800E+01  0.14151872678E+03  0.14421866786E+03  0.00000000000E+00 0.  1.
         22    1    3    3    0    0  0.12612779080E+03 -0.88904166378E+02  0.11220951258E+04  0.11326560121E+04  0.00000000000E+00 0.  1.
</event>
<event>
 7    1  0.5889087E-006  0.1343398E+03  0.7818608E-02  0.1235792E+00
          2   -1    0    0  502    0  0.00000000000E+00  0.00000000000E+00  0.37936112206E+03  0.37936112206E+03  0.00000000000E+00 0. -1.
          1   -1    0    0  501    0 -0.00000000000E+00 -0.00000000000E+00 -0.16775243625E+04  0.16775243625E+04  0.00000000000E+00 0. -1.
         25    2    1    2    0    0 -0.16564731847E+03 -0.17763677944E+03 -0.13340451645E+03  0.30400420861E+03  0.12501173671E+03 0.  0.
          2    1    1    2  501    0  0.78689004723E+02  0.84483458206E+02 -0.14425985442E+04  0.14472111020E+04  0.00000000000E+00 0. -1.
          1    1    1    2  502    0  0.86958313751E+02  0.93153321231E+02  0.27783982016E+03  0.30567017397E+03  0.00000000000E+00 0. -1.
         22    1    3    3    0    0 -0.91933709254E+02 -0.14524114015E+02 -0.32869010658E+02  0.98707287708E+02  0.00000000000E+00 0. -1.
         22    1    3    3    0    0 -0.73713609220E+02 -0.16311266542E+03 -0.10053550579E+03  0.20529692090E+03  0.00000000000E+00 0. -1.
</event>
<event>
 7    1  0.5889087E-006  0.6313408E+02  0.7818608E-02  0.1487407E+00
          2   -1    0    0  502    0  0.00000000000E+00  0.00000000000E+00  0.29858060374E+03  0.29858060374E+03  0.00000000000E+00 0. -1.
          1   -1    0    0  501    0 -0.00000000000E+00 -0.00000000000E+00 -0.32995288640E+03  0.32995288640E+03  0.00000000000E+00 0. -1.
         25    2    1    2    0    0  0.48749001783E+02 -0.28449865784E+02  0.97250023045E+02  0.16813035300E+03  0.12499755430E+03 0.  0.
          2    1    1    2  501    0 -0.33904501983E+02  0.53653468450E+02 -0.28976134362E+03  0.29663082475E+03  0.00000000000E+00 0. -1.
          1    1    1    2  502    0 -0.14844499799E+02 -0.25203602665E+02  0.16113903792E+03  0.16377231239E+03  0.00000000000E+00 0. -1.
         22    1    3    3    0    0 -0.94730691145E+01 -0.63043252956E+02  0.23351652330E+02  0.67893228294E+02  0.00000000000E+00 0.  1.
         22    1    3    3    0    0  0.58222070897E+02  0.34593387172E+02  0.73898370716E+02  0.10023712471E+03  0.00000000000E+00 0.  1.
</event>
<event>
 7    1  0.5889087E-006  0.6388250E+02  0.7818608E-02  0.1419230E+00
          2   -1    0    0  502    0  0.00000000000E+00  0.00000000000E+00  0.56199824897E+03  0.56199824897E+03  0.00000000000E+00 0. -1.
          1   -1    0    0  501    0 -0.00000000000E+00 -0.00000000000E+00 -0.73964939243E+03  0.73964939243E+03  0.00000000000E+00 0. -1.
         25    2    1    2    0    0 -0.76324399058E+02  0.55327330806E+01  0.60274629007E+02  0.15847423888E+03  0.12500011384E+03 0.  0.
          2    1    1    2  501    0  0.47119642796E+02 -0.43209292980E+02 -0.68780788245E+03  0.69077274620E+03  0.00000000000E+00 0. -1.
          1    1    1    2  502    0  0.29204756262E+02  0.37676559899E+02  0.44988210998E+03  0.45240065632E+03  0.00000000000E+00 0. -1.
         22    1    3    3    0    0 -0.38795719463E+02  0.59573296293E+02  0.28565749126E+01  0.71149458888E+02  0.00000000000E+00 0. -1.
         22    1    3    3    0    0 -0.37528679595E+02 -0.54040563212E+02  0.57418054095E+02  0.87324779991E+02  0.00000000000E+00 0. -1.
</event>
<event>
 7    1  0.6514524E-006  0.1025828E+03  0.7818608E-02  0.1319365E+00
          2   -1    0    0  502    0  0.00000000000E+00  0.00000000000E+00  0.19302288214E+04  0.19302288214E+04  0.00000000000E+00 0. -1.
          1   -1    0    0  501    0 -0.00000000000E+00 -0.00000000000E+00 -0.13551623006E+04  0.13551623006E+04  0.00000000000E+00 0. -1.
         25    2    1    2    0    0  0.13565557648E+03 -0.80564993590E+02 -0.10740286588E+03  0.22815387541E+03  0.12500264655E+03 0.  0.
          2    1    1    2  501    0 -0.67932623348E+02  0.74544239981E+02 -0.11846224381E+04  0.11889079047E+04  0.00000000000E+00 0. -1.
          1    1    1    2  502    0 -0.67722953133E+02  0.60207536085E+01  0.18670918248E+04  0.18683293419E+04  0.00000000000E+00 0. -1.
         22    1    3    3    0    0  0.13083209036E+03 -0.33677763823E+02 -0.11852995099E+03  0.17972361260E+03  0.00000000000E+00 0. -1.
         22    1    3    3    0    0  0.48234861198E+01 -0.46887229766E+02  0.11127085107E+02  0.48430262817E+02  0.00000000000E+00 0. -1.
</event>
<event>
 7    1  0.5889087E-006  0.1024551E+03  0.7818608E-02  0.1338361E+00
          2   -1    0    0  502    0  0.00000000000E+00  0.00000000000E+00  0.28780768262E+04  0.28780768262E+04  0.00000000000E+00 0. -1.
          1   -1    0    0  501    0 -0.00000000000E+00 -0.00000000000E+00 -0.96636786714E+02  0.96636786714E+02  0.00000000000E+00 0. -1.
         25    2    1    2    0    0 -0.45046718788E+02 -0.23407869393E+02  0.12641075714E+03  0.18487731023E+03  0.12499122006E+03 0.  0.
          2    1    1    2  501    0 -0.57440206932E+02  0.40316175541E+01 -0.53916320947E+02  0.78883464535E+02  0.00000000000E+00 0. -1.
          1    1    1    2  502    0  0.10248692572E+03  0.19376251839E+02  0.27089456033E+04  0.27109528382E+04  0.00000000000E+00 0. -1.
         22    1    3    3    0    0 -0.80255193614E+00 -0.82118083320E+01 -0.25040922072E+02  0.26365235897E+02  0.00000000000E+00 0. -1.
         22    1    3    3    0    0 -0.44244166852E+02 -0.15196061061E+02  0.15145167921E+03  0.15851207433E+03  0.00000000000E+00 0. -1.
</event>
<event>
 7    1  0.5889087E-006  0.1356418E+03  0.7818608E-02  0.1289294E+00
          2   -1    0    0  502    0  0.00000000000E+00  0.00000000000E+00  0.18968210093E+04  0.18968210093E+04  0.00000000000E+00 0. -1.
          1   -1    0    0  501    0 -0.00000000000E+00 -0.00000000000E+00 -0.60438523664E+03  0.60438523664E+03  0.00000000000E+00 0. -1.
         25    2    1    2    0    0  0.85553530921E+02 -0.13279053306E+03  0.58567141447E+03  0.61934585515E+03  0.12500220092E+03 0.  0.
          2    1    1    2  501    0 -0.17853874226E+02  0.13436365429E+03 -0.57882762371E+03  0.59448613978E+03  0.00000000000E+00 0. -1.
          1    1    1    2  502    0 -0.67699656695E+02 -0.15731212274E+01  0.12855919819E+04  0.12873742510E+04  0.00000000000E+00 0. -1.
         22    1    3    3    0    0  0.91886070820E+02 -0.14794675421E+03  0.44739884038E+03  0.48010104610E+03  0.00000000000E+00 0. -1.
         22    1    3    3    0    0 -0.63325398989E+01  0.15156221149E+02  0.13827257409E+03  0.13924480905E+03  0.00000000000E+00 0. -1.
</event>
<event>
 7    1  0.5889087E-006  0.4368269E+02  0.7818608E-02  0.1545250E+00
          2   -1    0    0  502    0  0.00000000000E+00  0.00000000000E+00  0.16647915633E+04  0.16647915633E+04  0.00000000000E+00 0. -1.
          1   -1    0    0  501    0 -0.00000000000E+00 -0.00000000000E+00 -0.32088951258E+03  0.32088951258E+03  0.00000000000E+00 0. -1.
         25    2    1    2    0    0 -0.25531598216E+02 -0.17324915806E+01  0.73240774893E+02  0.14711419631E+03  0.12499404632E+03 0.  0.
          2    1    1    2  501    0  0.36419885136E+02 -0.24774011132E+02 -0.28211163966E+03  0.28552957271E+03  0.00000000000E+00 0. -1.
          1    1    1    2  502    0 -0.10888286920E+02  0.26506502713E+02  0.15527729154E+04  0.15530373068E+04  0.00000000000E+00 0. -1.
         22    1    3    3    0    0 -0.39836076735E+02 -0.51698988529E+02  0.68985086107E+02  0.94966523206E+02  0.00000000000E+00 0. -1.
         22    1    3    3    0    0  0.14304478520E+02  0.49966496949E+02  0.42556887854E+01  0.52147673103E+02  0.00000000000E+00 0. -1.
</event>
<event>
 7    1  0.5889087E-006  0.1077712E+03  0.7818608E-02  0.1453598E+00
          2   -1    0    0  502    0  0.00000000000E+00  0.00000000000E+00  0.35663559987E+03  0.35663559987E+03  0.00000000000E+00 0. -1.
          1   -1    0    0  501    0 -0.00000000000E+00 -0.00000000000E+00 -0.63470054866E+03  0.63470054866E+03  0.00000000000E+00 0. -1.
         25    2    1    2    0    0 -0.25480038564E+02 -0.11877956619E+03  0.10472588692E+03  0.20334842670E+03  0.12500101417E+03 0.  0.
          2    1    1    2  501    0  0.70132327775E+01  0.10714312240E+03 -0.57985807211E+03  0.58971537024E+03  0.00000000000E+00 0. -1.
          1    1    1    2  502    0  0.18466805787E+02  0.11636443792E+02  0.19706723640E+03  0.19827235159E+03  0.00000000000E+00 0. -1.
         22    1    3    3    0    0  0.28076443413E+01 -0.21378232237E+01 -0.25792983525E+02  0.26033270137E+02  0.00000000000E+00 0. -1.
         22    1    3    3    0    0 -0.28287682905E+02 -0.11664174296E+03  0.13051887044E+03  0.17731515656E+03  0.00000000000E+00 0. -1.
</event>
<event>
 7    1  0.5889087E-006  0.9499731E+02  0.7818608E-02  0.1379892E+00
          2   -1    0    0  502    0  0.00000000000E+00  0.00000000000E+00  0.17152858988E+04  0.17152858988E+04  0.00000000000E+00 0. -1.
          1   -1    0    0  501    0 -0.00000000000E+00 -0.00000000000E+00 -0.25991565863E+04  0.25991565863E+04  0.00000000000E+00 0. -1.
         25    2    1    2    0    0 -0.54319585875E+02  0.90079495028E+01 -0.10430860138E+03  0.17186360853E+03  0.12500022021E+03 0.  0.
          2    1    1    2  501    0 -0.40844003170E+02 -0.15769551518E+02 -0.24595222704E+04  0.24599119314E+04  0.00000000000E+00 0. -1.
          1    1    1    2  502    0  0.95163589044E+02  0.67616020147E+01  0.16799601842E+04  0.16826669452E+04  0.00000000000E+00 0. -1.
         22    1    3    3    0    0  0.28300504783E+02  0.31700077672E+02 -0.85079049735E+01  0.43338181115E+02  0.00000000000E+00 0.  1.
         22    1    3    3    0    0 -0.82620090657E+02 -0.22692128169E+02 -0.95800696406E+02  0.12852542742E+03  0.00000000000E+00 0.  1.
</event>
<event>
 7    1  0.5889087E-006  0.8808503E+02  0.7818608E-02  0.1376014E+00
          2   -1    0    0  502    0  0.00000000000E+00  0.00000000000E+00  0.30631472063E+03  0.30631472063E+03  0.00000000000E+00 0. -1.
          1   -1    0    0  501    0 -0.00000000000E+00 -0.00000000000E+00 -0.26746329565E+03  0.26746329565E+03  0.00000000000E+00 0. -1.
         25    2    1    2    0    0 -0.54316941188E+02 -0.11431956317E+03  0.10261604096E+02  0.17816251416E+03  0.12496914943E+03 0.  0.
          2    1    1    2  501    0  0.53075595189E+02  0.65595137869E+02 -0.17071932993E+03  0.19043327054E+03  0.00000000000E+00 0. -1.
          1    1    1    2  502    0  0.12413459991E+01  0.48724425305E+02  0.19930915081E+03  0.20518223159E+03  0.00000000000E+00 0. -1.
         22    1    3    3    0    0  0.22966724194E+02  0.87925333809E+01 -0.17490313261E+02  0.30177642742E+02  0.00000000000E+00 0.  1.
         22    1    3    3    0    0 -0.77283665382E+02 -0.12311209655E+03  0.27751917357E+02  0.14798487142E+03  0.00000000000E+00 0.  1.
</event>
<event>
 7    1  0.5889087E-006  0.8371654E+02  0.7818608E-02  0.1352702E+00
          2   -1    0    0  502    0  0.00000000000E+00  0.00000000000E+00  0.79024406787E+03  0.79024406787E+03  0.00000000000E+00 0. -1.
          1   -1    0    0  501    0 -0.00000000000E+00 -0.00000000000E+00 -0.12907231195E+03  0.12907231195E+03  0.00000000000E+00 0. -1.
         25    2    1    2    0    0 -0.16906041334E+02 -0.10396996784E+03  0.16467092033E+03  0.23202476072E+03  0.12499363640E+03 0.  0.
          2    1    1    2  501    0  0.54803507657E+02  0.29634208815E+02 -0.81899717449E+02  0.10290371471E+03  0.00000000000E+00 0. -1.
          1    1    1    2  502    0 -0.37897466323E+02  0.74335759023E+02  0.57840055305E+03  0.58438790438E+03  0.00000000000E+00 0. -1.
         22    1    3    3    0    0 -0.69071591605E+02 -0.71107351947E+02  0.80564398718E+02  0.12774099815E+03  0.00000000000E+00 0. -1.
         22    1    3    3    0    0  0.52165550271E+02 -0.32862615891E+02  0.84106521609E+02  0.10428376257E+03  0.00000000000E+00 0. -1.
</event>
<event>
 7    1  0.5889087E-006  0.2350258E+03  0.7818608E-02  0.1135143E+00
          2   -1    0    0  502    0  0.00000000000E+00  0.00000000000E+00  0.46539573586E+03  0.46539573586E+03  0.00000000000E+00 0. -1.
          1   -1    0    0  501    0 -0.00000000000E+00 -0.00000000000E+00 -0.81816950749E+03  0.81816950749E+03  0.00000000000E+00 0. -1.
         25    2    1    2    0    0  0.16376700083E+03  0.14078753282E+02  0.76385584674E+02  0.22017510372E+03  0.12499790758E+03 0.  0.
          2    1    1    2  501    0  0.18239681143E+02 -0.23431693342E+03 -0.65711693212E+03  0.69788234949E+03  0.00000000000E+00 0. -1.
          1    1    1    2  502    0 -0.18200668197E+03  0.22023818014E+03  0.22795757582E+03  0.36550779013E+03  0.00000000000E+00 0. -1.
         22    1    3    3    0    0  0.69284815446E+02  0.20526744836E+02 -0.29559494911E+02  0.78073661656E+02  0.00000000000E+00 0. -1.
         22    1    3    3    0    0  0.94482185381E+02 -0.64479915541E+01  0.10594507959E+03  0.14210144207E+03  0.00000000000E+00 0. -1.
</event>
<event>
 7    1  0.5889087E-006  0.1029221E+03  0.7818608E-02  0.1393243E+00
          2   -1    0    0  502    0  0.00000000000E+00  0.00000000000E+00  0.16577811071E+04  0.16577811071E+04  0.00000000000E+00 0. -1.
          1   -1    0    0  501    0 -0.00000000000E+00 -0.00000000000E+00 -0.24852063279E+03  0.24852063279E+03  0.00000000000E+00 0. -1.
         25    2    1    2    0    0  0.24667519383E+02 -0.66550912669E+02  0.35179039417E+03  0.38002740508E+03  0.12500734655E+03 0.  0.
          2    1    1    2  501    0 -0.18501576645E+02  0.10230394599E+03 -0.22260481867E+03  0.24568539029E+03  0.00000000000E+00 0. -1.
          1    1    1    2  502    0 -0.61659427381E+01 -0.35753033320E+02  0.12800748988E+04  0.12805889445E+04  0.00000000000E+00 0. -1.
         22    1    3    3    0    0 -0.48802926537E+02 -0.36769244244E+02  0.11360619614E+03  0.12899639825E+03  0.00000000000E+00 0.  1.
         22    1    3    3    0    0  0.73470445919E+02 -0.29781668425E+02  0.23818419803E+03  0.25103100683E+03  0.00000000000E+00 0.  1.
</event>
<event>
 7    1  0.5889087E-006  0.1053841E+03  0.7818608E-02  0.1339076E+00
          2   -1    0    0  502    0  0.00000000000E+00  0.00000000000E+00  0.17687882871E+04  0.17687882871E+04  0.00000000000E+00 0. -1.
          1   -1    0    0  501    0 -0.00000000000E+00 -0.00000000000E+00 -0.11219116801E+04  0.11219116801E+04  0.00000000000E+00 0. -1.
         25    2    1    2    0    0  0.35888015438E+01  0.15124859630E+03  0.46579982266E+03  0.50545198046E+03  0.12499284931E+03 0.  0.
          2    1    1    2  501    0 -0.20622086654E+02 -0.51671775802E+02 -0.10993927243E+04  0.11007995299E+04  0.00000000000E+00 0. -1.
          1    1    1    2  502    0  0.17033285110E+02 -0.99576820493E+02  0.12804695086E+04  0.12844484569E+04  0.00000000000E+00 0. -1.
         22    1    3    3    0    0 -0.39522922340E+02  0.29415612877E+02  0.50682650137E+02  0.70682888284E+02  0.00000000000E+00 0.  1.
         22    1    3    3    0    0  0.43111723884E+02  0.12183298342E+03  0.41511717253E+03  0.43476909218E+03  0.00000000000E+00 0.  1.
</event>
<event>
 7    1  0.5889087E-006  0.7246733E+02  0.7818608E-02  0.1375694E+00
          2   -1    0    0  502    0  0.00000000000E+00  0.00000000000E+00  0.21231836856E+04  0.21231836856E+04  0.00000000000E+00 0. -1.
          1   -1    0    0  501    0 -0.00000000000E+00 -0.00000000000E+00 -0.27151290424E+03  0.27151290424E+03  0.00000000000E+00 0. -1.
         25    2    1    2    0    0 -0.32690564431E+02 -0.79731241121E+02 -0.43678979848E+02  0.15798446761E+03  0.12500197963E+03 0.  0.
          2    1    1    2  501    0 -0.33140063882E+02  0.49296535306E+02 -0.16485557282E+03  0.17523062551E+03  0.00000000000E+00 0. -1.
          1    1    1    2  502    0  0.65830628313E+02  0.30434705814E+02  0.20602053341E+04  0.20614814968E+04  0.00000000000E+00 0. -1.
         22    1    3    3    0    0 -0.64917310648E+02 -0.94785908080E+02 -0.42178107096E+02  0.12238308016E+03  0.00000000000E+00 0.  1.
         22    1    3    3    0    0  0.32226746216E+02  0.15054666960E+02 -0.15008727521E+01  0.35601387444E+02  0.00000000000E+00 0.  1.
</event>
<event>
 7    1  0.5889087E-006  0.2823843E+03  0.7818608E-02  0.1220239E+00
          2   -1    0    0  502    0  0.00000000000E+00  0.00000000000E+00  0.12605595321E+04  0.12605595321E+04  0.00000000000E+00 0. -1.
          1   -1    0    0  501    0 -0.00000000000E+00 -0.00000000000E+00 -0.69087114763E+03  0.69087114763E+03  0.00000000000E+00 0. -1.
         25    2    1    2    0    0  0.55979713578E+02  0.26874221026E+03  0.34471681093E+02  0.30359445831E+03  0.12500077765E+03 0.  0.
          2    1    1    2  501    0 -0.62631905188E+02  0.15520968091E+02 -0.53582361107E+03  0.53969491212E+03  0.00000000000E+00 0. -1.
          1    1    1    2  502    0  0.66521916105E+01 -0.28426317835E+03  0.10710403144E+04  0.11081413093E+04  0.00000000000E+00 0. -1.
         22    1    3    3    0    0  0.55290749995E+02  0.78139355251E+02  0.57404257859E+02  0.11161574573E+03  0.00000000000E+00 0.  1.
         22    1    3    3    0    0  0.68896358281E+00  0.19060285501E+03 -0.22932576767E+02  0.19197871258E+03  0.00000000000E+00 0.  1.
</event>
<event>
 7    1  0.5889087E-006  0.1340300E+03  0.7818608E-02  0.1362020E+00
          2   -1    0    0  502    0  0.00000000000E+00  0.00000000000E+00  0.86950665580E+02  0.86950665580E+02  0.00000000000E+00 0. -1.
          1   -1    0    0  501    0 -0.00000000000E+00 -0.00000000000E+00 -0.27127137730E+04  0.27127137730E+04  0.00000000000E+00 0. -1.
         25    2    1    2    0    0 -0.10956890944E+03  0.12079700068E+03 -0.12871759081E+03  0.24246848558E+03  0.12500194809E+03 0.  0.
          2    1    1    2  501    0  0.75306225012E+02 -0.10983791980E+03 -0.25139320178E+04  0.25174569681E+04  0.00000000000E+00 0. -1.
          1    1    1    2  502    0  0.34262684432E+02 -0.10959080883E+02  0.16886501184E+02  0.39738984895E+02  0.00000000000E+00 0. -1.
         22    1    3    3    0    0 -0.60048995109E+02  0.10891818565E+03 -0.24912891117E+02  0.12684520142E+03  0.00000000000E+00 0. -1.
         22    1    3    3    0    0 -0.49519914335E+02  0.11878815029E+02 -0.10380469969E+03  0.11562328416E+03  0.00000000000E+00 0. -1.
</event>
<event>
 7    1  0.5889087E-006  0.7388992E+02  0.7818608E-02  0.1478080E+00
          2   -1    0    0  502    0  0.00000000000E+00  0.00000000000E+00  0.89114251961E+03  0.89114251961E+03  0.00000000000E+00 0. -1.
          1   -1    0    0  501    0 -0.00000000000E+00 -0.00000000000E+00 -0.48537661681E+03  0.48537661681E+03  0.00000000000E+00 0. -1.
         25    2    1    2    0    0  0.41473947605E+02  0.23783376198E+02 -0.43707600044E+03  0.45710704038E+03  0.12500271554E+03 0.  0.
          2    1    1    2  501    0  0.19230029314E+02  0.18505052920E+02 -0.31874988071E+02  0.41572176699E+02  0.00000000000E+00 0. -1.
          1    1    1    2  502    0 -0.60703976919E+02 -0.42288429118E+02  0.87471689130E+03  0.87783991934E+03  0.00000000000E+00 0. -1.
         22    1    3    3    0    0  0.78633996224E+02  0.23650604692E+02 -0.38160333588E+03  0.39033801047E+03  0.00000000000E+00 0. -1.
         22    1    3    3    0    0 -0.37160048619E+02  0.13277150627E+00 -0.55472664563E+02  0.66769029912E+02  0.00000000000E+00 0. -1.
</event>
<event>
 7    1  0.5889087E-006  0.1141735E+03  0.7818608E-02  0.1365518E+00
          2   -1    0    0  502    0  0.00000000000E+00  0.00000000000E+00  0.17419668085E+04  0.17419668085E+04  0.00000000000E+00 0. -1.
          1   -1    0    0  501    0 -0.00000000000E+00 -0.00000000000E+00 -0.23211793410E+02  0.23211793410E+02  0.00000000000E+00 0. -1.
         25    2    1    2    0    0  0.74826857688E+02  0.54084220104E+02  0.10266750391E+04  0.10383692299E+04  0.12499944073E+03 0.  0.
          2    1    1    2  501    0 -0.11293790969E+03 -0.38932286635E+02  0.19954780526E+03  0.23257261441E+03  0.00000000000E+00 0. -1.
          1    1    1    2  502    0  0.38111051998E+02 -0.15151933469E+02  0.49253217079E+03  0.49423675767E+03  0.00000000000E+00 0. -1.
         22    1    3    3    0    0 -0.15653414753E+02  0.71785031708E+01  0.57833928677E+03  0.57859561951E+03  0.00000000000E+00 0.  1.
         22    1    3    3    0    0  0.90480272441E+02  0.46905716934E+02  0.44833575230E+03  0.45977361035E+03  0.00000000000E+00 0.  1.
</event>
<event>
 7    1  0.5889087E-006  0.9828558E+02  0.7818608E-02  0.1435784E+00
          2   -1    0    0  502    0  0.00000000000E+00  0.00000000000E+00  0.63811432211E+02  0.63811432211E+02  0.00000000000E+00 0. -1.
          1   -1    0    0  501    0 -0.00000000000E+00 -0.00000000000E+00 -0.67862594504E+03  0.67862594504E+03  0.00000000000E+00 0. -1.
         25    2    1    2    0    0 -0.13665243195E+02 -0.90958377650E+02 -0.84723636748E+02  0.17681294886E+03  0.12499823568E+03 0.  0.
          2    1    1    2  501    0 -0.12609655324E+02  0.98433914185E+02 -0.52906052397E+03  0.53828735532E+03  0.00000000000E+00 0. -1.
          1    1    1    2  502    0  0.26274898519E+02 -0.74755365350E+01 -0.10303521055E+01  0.27337073072E+02  0.00000000000E+00 0. -1.
         22    1    3    3    0    0  0.59893401365E+01 -0.59473412765E+02 -0.11454326950E+03  0.12920185606E+03  0.00000000000E+00 0. -1.
         22    1    3    3    0    0 -0.19654583331E+02 -0.31484964885E+02  0.29819632754E+02  0.47611092797E+02  0.00000000000E+00 0. -1.
</event>
<event>
 7    1  0.5889087E-006  0.6481983E+02  0.7818608E-02  0.1471430E+00
          2   -1    0    0  502    0  0.00000000000E+00  0.00000000000E+00  0.79288953187E+03  0.79288953187E+03  0.00000000000E+00 0. -1.
          1   -1    0    0  501    0 -0.00000000000E+00 -0.00000000000E+00 -0.76667479437E+03  0.76667479437E+03  0.00000000000E+00 0. -1.
         25    2    1    2    0    0  0.30029527076E+02 -0.76333701891E+02 -0.20564460201E+03  0.25425006390E+03  0.12499914446E+03 0.  0.
          2    1    1    2  501    0 -0.43011824213E+02  0.47199197131E+02 -0.53449517521E+03  0.53829626931E+03  0.00000000000E+00 0. -1.
          1    1    1    2  502    0  0.12982297137E+02  0.29134504760E+02  0.76635451472E+03  0.76701799303E+03  0.00000000000E+00 0. -1.
         22    1    3    3    0    0  0.41568557483E+02  0.12739364175E+02 -0.19664128611E+02  0.47717023428E+02  0.00000000000E+00 0.  1.
         22    1    3    3    0    0 -0.11539030407E+02 -0.89073066066E+02 -0.18598047340E+03  0.20653304047E+03  0.00000000000E+00 0.  1.
</event>
<event>
 7    1  0.5889087E-006  0.1062582E+03  0.7818608E-02  0.1334627E+00
          2   -1    0    0  502    0  0.00000000000E+00  0.00000000000E+00  0.16487914962E+04  0.16487914962E+04  0.00000000000E+00 0. -1.
          1   -1    0    0  501    0 -0.00000000000E+00 -0.00000000000E+00 -0.15795113681E+03  0.15795113681E+03  0.00000000000E+00 0. -1.
         25    2    1    2    0    0  0.52555562116E+02 -0.12075434212E+03  0.84543655084E+03  0.86471458963E+03  0.12499864708E+03 0.  0.
          2    1    1    2  501    0  0.21736950474E+02  0.53077482579E+02 -0.13944045260E+03  0.15077584022E+03  0.00000000000E+00 0. -1.
          1    1    1    2  502    0 -0.74292512591E+02  0.67676859537E+02  0.78484426118E+03  0.79125220319E+03  0.00000000000E+00 0. -1.
         22    1    3    3    0    0 -0.22296233879E+02  0.90924454074E+01  0.52781182049E+02  0.58014203323E+02  0.00000000000E+00 0.  1.
         22    1    3    3    0    0  0.74851795996E+02 -0.12984678752E+03  0.79265536880E+03  0.80670038631E+03  0.00000000000E+00 0.  1.
</event>
<event>
 7    1  0.5889087E-006  0.9473688E+02  0.7818608E-02  0.1448995E+00
          2   -1    0    0  502    0  0.00000000000E+00  0.00000000000E+00  0.64998073201E+03  0.64998073201E+03  0.00000000000E+00 0. -1.
          1   -1    0    0  501    0 -0.00000000000E+00 -0.00000000000E+00 -0.41414413420E+03  0.41414413420E+03  0.00000000000E+00 0. -1.
         25    2    1    2    0    0 -0.77889698453E+02 -0.77514081922E+01  0.43669955109E+03  0.46092869697E+03  0.12498750464E+03 0.  0.
          2    1    1    2  501    0  0.94194516837E+02 -0.12095248771E+02 -0.39556595986E+03  0.40680625689E+03  0.00000000000E+00 0. -1.
          1    1    1    2  502    0 -0.16304818384E+02  0.19846656963E+02  0.19470300659E+03  0.19638991234E+03  0.00000000000E+00 0. -1.
         22    1    3    3    0    0 -0.45547218089E+02 -0.33270112576E+02  0.61401463061E+02  0.83376190441E+02  0.00000000000E+00 0. -1.
         22    1    3    3    0    0 -0.32342480364E+02  0.25518704384E+02  0.37529808803E+03  0.37755250653E+03  0.00000000000E+00 0. -1.
</event>
<event>
 7    1  0.5889087E-006  0.7258676E+02  0.7818608E-02  0.1356323E+00
          2   -1    0    0  502    0  0.00000000000E+00  0.00000000000E+00  0.61307339453E+03  0.61307339453E+03  0.00000000000E+00 0. -1.
          1   -1    0    0  501    0 -0.00000000000E+00 -0.00000000000E+00 -0.78106951110E+03  0.78106951110E+03  0.00000000000E+00 0. -1.
         25    2    1    2    0    0  0.64140216072E+01  0.13761514143E+03 -0.66121328042E+02  0.19742391028E+03  0.12500041401E+03 0.  0.
          2    1    1    2  501    0  0.10350422256E+02 -0.69977631092E+02 -0.64513809419E+03  0.64900474626E+03  0.00000000000E+00 0. -1.
          1    1    1    2  502    0 -0.16764443863E+02 -0.67637510342E+02  0.54326330566E+03  0.54771424910E+03  0.00000000000E+00 0. -1.
         22    1    3    3    0    0 -0.83460946531E+01  0.42888032860E+02  0.36540625751E+02  0.56958388222E+02  0.00000000000E+00 0. -1.
         22    1    3    3    0    0  0.14760116260E+02  0.94727108574E+02 -0.10266195379E+03  0.14046552206E+03  0.00000000000E+00 0. -1.
</event>
<event>
 7    1  0.5889087E-006  0.2793792E+02  0.7818608E-02  0.1622275E+00
          2   -1    0    0  502    0  0.00000000000E+00  0.00000000000E+00  0.12398432574E+04  0.12398432574E+04  0.00000000000E+00 0. -1.
          1   -1    0    0  501    0 -0.00000000000E+00 -0.00000000000E+00 -0.80928193104E+03  0.80928193104E+03  0.00000000000E+00 0. -1.
         25    2    1    2    0    0  0.13410417638E+02 -0.50827706698E+02 -0.36723613073E+03  0.39147848172E+03  0.12501892205E+03 0.  0.
          2    1    1    2  501    0 -0.15798434345E+02  0.23001100597E+02 -0.42931278574E+03  0.43021867597E+03  0.00000000000E+00 0. -1.
          1    1    1    2  502    0  0.23880167071E+01  0.27826606101E+02  0.12271102428E+04  0.12274280308E+04  0.00000000000E+00 0. -1.
         22    1    3    3    0    0 -0.21280413602E+02 -0.70281932655E+00 -0.29987448527E+03  0.30062943448E+03  0.00000000000E+00 0. -1.
         22    1    3    3    0    0  0.34690831240E+02 -0.50124887372E+02 -0.67361645452E+02  0.90849047238E+02  0.00000000000E+00 0. -1.
</event>
<event>
 7    1  0.5889087E-006  0.1841395E+03  0.7818608E-02  0.1321876E+00
          2   -1    0    0  502    0  0.00000000000E+00  0.00000000000E+00  0.12542228526E+04  0.12542228526E+04  0.00000000000E+00 0. -1.
          1   -1    0    0  501    0 -0.00000000000E+00 -0.00000000000E+00 -0.42313182772E+03  0.42313182772E+03  0.00000000000E+00 0. -1.
         25    2    1    2    0    0  0.13665071025E+03 -0.66549117823E+02  0.12320532366E+03  0.23217634675E+03  0.12499641002E+03 0.  0.
          2    1    1    2  501    0 -0.17237570394E+03  0.76319939807E+02 -0.34419872171E+03  0.39244219517E+03  0.00000000000E+00 0. -1.
          1    1    1    2  502    0  0.35724993684E+02 -0.97708219840E+01  0.10520844229E+04  0.10527361384E+04  0.00000000000E+00 0. -1.
         22    1    3    3    0    0  0.12740451217E+03 -0.82639351448E+02  0.14044421903E+03  0.20684716771E+03  0.00000000000E+00 0.  1.
         22    1    3    3    0    0  0.92461980814E+01  0.16090233626E+02 -0.17238895378E+02  0.25329179042E+02  0.00000000000E+00 0.  1.
</event>
<event>
 7    1  0.5889087E-006  0.3635285E+02  0.7818608E-02  0.1563827E+00
          2   -1    0    0  502    0  0.00000000000E+00  0.00000000000E+00  0.46800594690E+03  0.46800594690E+03  0.00000000000E+00 0. -1.
          1   -1    0    0  501    0 -0.00000000000E+00 -0.00000000000E+00 -0.55793991231E+02  0.55793991231E+02  0.00000000000E+00 0. -1.
         25    2    1    2    0    0  0.50288412253E+01  0.95453965096E+01  0.31135511168E+03  0.33568370281E+03  0.12500055569E+03 0.  0.
          2    1    1    2  501    0 -0.35599678921E+02 -0.10386267917E+02 -0.33711429141E+02  0.50116585630E+02  0.00000000000E+00 0. -1.
          1    1    1    2  502    0  0.30570837695E+02  0.84087140762E+00  0.13456827312E+03  0.13799964969E+03  0.00000000000E+00 0. -1.
         22    1    3    3    0    0 -0.38414549015E+02 -0.32240572720E+02  0.65205648501E+02  0.82261222346E+02  0.00000000000E+00 0.  1.
         22    1    3    3    0    0  0.43443390240E+02  0.41785969230E+02  0.24614946318E+03  0.25342248046E+03  0.00000000000E+00 0.  1.
</event>
<event>
 7    1  0.5889087E-006  0.6797749E+02  0.7818608E-02  0.1401211E+00
          2   -1    0    0  502    0  0.00000000000E+00  0.00000000000E+00  0.17400645907E+04  0.17400645907E+04  0.00000000000E+00 0. -1.
          1   -1    0    0  501    0 -0.00000000000E+00 -0.00000000000E+00 -0.13785734471E+04  0.13785734471E+04  0.00000000000E+00 0. -1.
         25    2    1    2    0    0  0.30794451761E+01  0.75844938492E+02  0.84528606358E+01  0.14648813054E+03  0.12500153542E+03 0.  0.
          2    1    1    2  501    0 -0.47171981479E+02 -0.49119718576E+02 -0.13082701897E+04  0.13100415382E+04  0.00000000000E+00 0. -1.
          1    1    1    2  502    0  0.44092536303E+02 -0.26725219917E+02  0.16613084726E+04  0.16621083690E+04  0.00000000000E+00 0. -1.
         22    1    3    3    0    0  0.42682547057E+02  0.12314057094E+01 -0.31482404739E+02  0.53051465498E+02  0.00000000000E+00 0.  1.
         22    1    3    3    0    0 -0.39603101881E+02  0.74613532783E+02  0.39935265375E+02  0.93436665039E+02  0.00000000000E+00 0.  1.
</event>
<event>
 7    1  0.5889087E-006  0.1610821E+03  0.7818608E-02  0.1303420E+00
          2   -1    0    0  502    0  0.00000000000E+00  0.00000000000E+00  0.18761100822E+03  0.18761100822E+03  0.00000000000E+00 0. -1.
          1   -1    0    0  501    0 -0.00000000000E+00 -0.00000000000E+00 -0.12794618910E+04  0.12794618910E+04  0.00000000000E+00 0. -1.
         25    2    1    2    0    0 -0.15752027098E+02  0.20338242249E+03 -0.36837475247E+03  0.43924595518E+03  0.12499805899E+03 0.  0.
          2    1    1    2  501    0  0.18296444477E+02 -0.46557484533E+02 -0.83428764182E+03  0.83578599446E+03  0.00000000000E+00 0. -1.
          1    1    1    2  502    0 -0.25444173786E+01 -0.15682493796E+03  0.11081151152E+03  0.19204094957E+03  0.00000000000E+00 0. -1.
         22    1    3    3    0    0 -0.22783759527E+02  0.14640038977E+03 -0.14027885258E+03  0.20403512027E+03  0.00000000000E+00 0. -1.
         22    1    3    3    0    0  0.70317324286E+01  0.56982032723E+02 -0.22809589989E+03  0.23521083491E+03  0.00000000000E+00 0. -1.
</event>
<event>
 7    1  0.5889087E-006  0.6053953E+02  0.7818608E-02  0.1465812E+00
          2   -1    0    0  502    0  0.00000000000E+00  0.00000000000E+00  0.36688468414E+03  0.36688468414E+03  0.00000000000E+00 0. -1.
          1   -1    0    0  501    0 -0.00000000000E+00 -0.00000000000E+00 -0.11602862849E+04  0.11602862849E+04  0.00000000000E+00 0. -1.
         25    2    1    2    0    0 -0.68083798136E+02 -0.61093704869E+02 -0.42925605687E+00  0.15489688058E+03  0.12500006004E+03 0.  0.
          2    1    1    2  501    0  0.16621386214E+02  0.31432004849E+02 -0.10792821572E+04  0.10798676846E+04  0.00000000000E+00 0. -1.
          1    1    1    2  502    0  0.51462411922E+02  0.29661700020E+02  0.28630981249E+03  0.29240640385E+03  0.00000000000E+00 0. -1.
         22    1    3    3    0    0 -0.66362702917E+02  0.40780333311E+01 -0.40996682757E+02  0.78111245614E+02  0.00000000000E+00 0. -1.
         22    1    3    3    0    0 -0.17210952194E+01 -0.65171738200E+02  0.40567426700E+02  0.76785634970E+02  0.00000000000E+00 0. -1.
</event>
<event>
 7    1  0.5889087E-006  0.1055281E+03  0.7818608E-02  0.1314295E+00
          2   -1    0    0  502    0  0.00000000000E+00  0.00000000000E+00  0.97409953714E+03  0.97409953714E+03  0.00000000000E+00 0. -1.
          1   -1    0    0  501    0 -0.00000000000E+00 -0.00000000000E+00 -0.21740191102E+03  0.21740191102E+03  0.00000000000E+00 0. -1.
         25    2    1    2    0    0  0.63380301653E+02 -0.18218619754E+02  0.17787180225E+02  0.14244431115E+03  0.12500006902E+03 0.  0.
          2    1    1    2  501    0  0.37293598476E+02  0.58255777462E+02 -0.14387990698E+03  0.15964327649E+03  0.00000000000E+00 0. -1.
          1    1    1    2  502    0 -0.10067390013E+03 -0.40037157708E+02  0.88279035287E+03  0.88941386052E+03  0.00000000000E+00 0. -1.
         22    1    3    3    0    0 -0.15511585046E+02 -0.52476978637E+02  0.54629072680E+00  0.54724226729E+02  0.00000000000E+00 0. -1.
         22    1    3    3    0    0  0.78891886699E+02  0.34258358883E+02  0.17240889498E+02  0.87720084422E+02  0.00000000000E+00 0. -1.
</event>
<event>
 7    1  0.5889087E-006  0.4188180E+02  0.7818608E-02  0.1520082E+00
          2   -1    0    0  502    0  0.00000000000E+00  0.00000000000E+00  0.15904606240E+02  0.15904606240E+02  0.00000000000E+00 0. -1.
          1   -1    0    0  501    0 -0.00000000000E+00 -0.00000000000E+00 -0.94475953627E+03  0.94475953627E+03  0.00000000000E+00 0. -1.
         25    2    1    2    0    0 -0.21314225699E+01  0.26765767417E+02 -0.31876530933E+03  0.34344644024E+03  0.12499274225E+03 0.  0.
          2    1    1    2  501    0  0.37222922731E+02 -0.23268515390E+02 -0.49253682378E+03  0.49448912279E+03  0.00000000000E+00 0. -1.
          1    1    1    2  502    0 -0.35091500161E+02 -0.34972520271E+01 -0.11755279692E+03  0.12272857947E+03  0.00000000000E+00 0. -1.
         22    1    3    3    0    0  0.15264781510E+02 -0.26325788488E+02 -0.13814464161E+02  0.33420055567E+02  0.00000000000E+00 0. -1.
         22    1    3    3    0    0 -0.17396204079E+02  0.53091555905E+02 -0.30495084517E+03  0.31002638468E+03  0.00000000000E+00 0. -1.
</event>
<event>
 7    1  0.5889087E-006  0.1331546E+03  0.7818608E-02  0.1232008E+00
          2   -1    0    0  502    0  0.00000000000E+00  0.00000000000E+00  0.82966629727E+03  0.82966629727E+03  0.00000000000E+00 0. -1.
          1   -1    0    0  501    0 -0.00000000000E+00 -0.00000000000E+00 -0.19769444799E+04  0.19769444799E+04  0.00000000000E+00 0. -1.
         25    2    1    2    0    0 -0.46403343021E+02 -0.27489678203E+02  0.39180118996E+02  0.14166888116E+03  0.12500414998E+03 0.  0.
          2    1    1    2  501    0 -0.91474047066E+02  0.79342582667E+02 -0.19164319924E+04  0.19202537146E+04  0.00000000000E+00 0. -1.
          1    1    1    2  502    0  0.13787739009E+03 -0.51852904464E+02  0.72997369078E+03  0.74468818147E+03  0.00000000000E+00 0. -1.
         22    1    3    3    0    0  0.59406140725E+01  0.45210841150E+02  0.53587716635E+01  0.45913260468E+02  0.00000000000E+00 0. -1.
         22    1    3    3    0    0 -0.52343957094E+02 -0.72700519354E+02  0.33821347332E+02  0.95755620691E+02  0.00000000000E+00 0. -1.
</event>
<event>
 7    1  0.5889087E-006  0.3175826E+02  0.7818608E-02  0.1587951E+00
          2   -1    0    0  502    0  0.00000000000E+00  0.00000000000E+00  0.13234652788E+03  0.13234652788E+03  0.00000000000E+00 0. -1.
          1   -1    0    0  501    0 -0.00000000000E+00 -0.00000000000E+00 -0.15696971852E+03  0.15696971852E+03  0.00000000000E+00 0. -1.
         25    2    1    2    0    0  0.29422420640E+02  0.92996176104E+01 -0.65295606239E+02  0.14436032112E+03  0.12499689755E+03 0.  0.
          2    1    1    2  501    0 -0.26513705544E+02  0.20697734384E+02 -0.43824826078E+02  0.55244802208E+02  0.00000000000E+00 0. -1.
          1    1    1    2  502    0 -0.29087150959E+01 -0.29997351994E+02  0.84497241678E+02  0.89711123063E+02  0.00000000000E+00 0. -1.
         22    1    3    3    0    0 -0.13978858207E+02 -0.29141795674E+02 -0.78503930510E+02  0.84897113245E+02  0.00000000000E+00 0. -1.
         22    1    3    3    0    0  0.43401278847E+02  0.38441413284E+02  0.13208324271E+02  0.59463207876E+02  0.00000000000E+00 0. -1.
</event>
<event>
 7    1  0.5889087E-006  0.1200154E+03  0.7818608E-02  0.1405586E+00
          2   -1    0    0  502    0  0.00000000000E+00  0.00000000000E+00  0.27729886199E+03  0.27729886199E+03  0.00000000000E+00 0. -1.
          1   -1    0    0  501    0 -0.00000000000E+00 -0.00000000000E+00 -0.15155112800E+03  0.15155112800E+03  0.00000000000E+00 0. -1.
         25    2    1    2    0    0 -0.86564123286E+02  0.59701811399E+02  0.58073383878E+02  0.17336545117E+03  0.12500163207E+03 0.  0.
          2    1    1    2  501    0  0.11406582251E+03 -0.53400958319E+02 -0.49227730107E+02  0.13522589851E+03  0.00000000000E+00 0. -1.
          1    1    1    2  502    0 -0.27501699227E+02 -0.63008530801E+01  0.11690208022E+03  0.12025864031E+03  0.00000000000E+00 0. -1.
         22    1    3    3    0    0  0.17889017647E+02  0.54714451636E+02  0.10645794106E+02  0.58540764450E+02  0.00000000000E+00 0. -1.
         22    1    3    3    0    0 -0.10445314093E+03  0.49873597626E+01  0.47427589772E+02  0.11482468672E+03  0.00000000000E+00 0. -1.
</event>
<event>
 7    1  0.5889087E-006  0.5709984E+02  0.7818608E-02  0.1475100E+00
          2   -1    0    0  502    0  0.00000000000E+00  0.00000000000E+00  0.91632629391E+03  0.91632629391E+03  0.00000000000E+00 0. -1.
          1   -1    0    0  501    0 -0.00000000000E+00 -0.00000000000E+00 -0.10657325170E+03  0.10657325170E+03  0.00000000000E+00 0. -1.
         25    2    1    2    0    0  0.60258604423E+02  0.68665080102E+02  0.23556063392E+02  0.15661125047E+03  0.12500481198E+03 0.  0.
          2    1    1    2  501    0 -0.19497462805E+02 -0.29394985852E+02 -0.31104807008E+02  0.47028983277E+02  0.00000000000E+00 0. -1.
          1    1    1    2  502    0 -0.40761141618E+02 -0.39270094250E+02  0.81730178582E+03  0.81925931187E+03  0.00000000000E+00 0. -1.
         22    1    3    3    0    0 -0.38991665735E+02  0.13419463207E+02  0.58257264265E+01  0.41645781034E+02  0.00000000000E+00 0.  1.
         22    1    3    3    0    0  0.99250270158E+02  0.55245616894E+02  0.17730336966E+02  0.11496546943E+03  0.00000000000E+00 0.  1.
</event>
<event>
 7    1  0.5889087E-006  0.5249317E+02  0.7818608E-02  0.1566791E+00
          2   -1    0    0  502    0  0.00000000000E+00  0.00000000000E+00  0.11976269012E+03  0.11976269012E+03  0.00000000000E+00 0. -1.
          1   -1    0    0  501    0 -0.00000000000E+00 -0.00000000000E+00 -0.69652365780E+03  0.69652365780E+03  0.00000000000E+00 0. -1.
         25    2    1    2    0    0 -0.62871083039E+02 -0.12529250638E+01 -0.54229591279E+02  0.15006967078E+03  0.12500285843E+03 0.  0.
          2    1    1    2  501    0  0.13235962755E+02  0.16029194266E+02 -0.58483247408E+03  0.58520180153E+03  0.00000000000E+00 0. -1.
          1    1    1    2  502    0  0.49635120283E+02 -0.14776269202E+02  0.62301097679E+02  0.81014875604E+02  0.00000000000E+00 0. -1.
         22    1    3    3    0    0 -0.97527481988E+02  0.13477159253E+02 -0.54253000472E+02  0.11241277341E+03  0.00000000000E+00 0.  1.
         22    1    3    3    0    0  0.34656398949E+02 -0.14730084317E+02  0.23409193737E-01  0.37656897377E+02  0.00000000000E+00 0.  1.
</event>
<event>
 7    1  0.5889087E-006  0.4730143E+02  0.7818608E-02  0.1486642E+00
          2   -1    0    0  502    0  0.00000000000E+00  0.00000000000E+00  0.62337166273E+03  0.62337166273E+03  0.00000000000E+00 0. -1.
          1   -1    0    0  501    0 -0.00000000000E+00 -0.00000000000E+00 -0.45177709999E+03  0.45177709999E+03  0.00000000000E+00 0. -1.
         25    2    1    2    0    0 -0.26285955234E+02  0.80441544856E+02 -0.39204240458E+02  0.15596102552E+03  0.12500030172E+03 0.  0.
          2    1    1    2  501    0  0.41921191205E+01 -0.39025828389E+02 -0.35212721815E+03  0.35430801135E+03  0.00000000000E+00 0. -1.
          1    1    1    2  502    0  0.22093836114E+02 -0.41415716467E+02  0.56292602135E+03  0.56487972585E+03  0.00000000000E+00 0. -1.
         22    1    3    3    0    0 -0.65824544338E+01 -0.19730508392E+02  0.27149457269E+02  0.34201092056E+02  0.00000000000E+00 0.  1.
         22    1    3    3    0    0 -0.19703500800E+02  0.10017205325E+03 -0.66353697727E+02  0.12175993347E+03  0.00000000000E+00 0.  1.
</event>
<event>
 7    1  0.5889087E-006  0.6113318E+02  0.7818608E-02  0.1449188E+00
          2   -1    0    0  502    0  0.00000000000E+00  0.00000000000E+00  0.50191894882E+03  0.50191894882E+03  0.00000000000E+00 0. -1.
          1   -1    0    0  501    0 -0.00000000000E+00 -0.00000000000E+00 -0.42043487654E+03  0.42043487654E+03  0.00000000000E+00 0. -1.
         25    2    1    2    0    0  0.34516666333E+02  0.32420838706E+02 -0.14059383435E+03  0.19402305976E+03  0.12504323422E+03 0.  0.
          2    1    1    2  501    0 -0.64366783694E+02 -0.61755489111E+01 -0.24814467826E+03  0.25643128046E+03  0.00000000000E+00 0. -1.
          1    1    1    2  502    0  0.29850117361E+02 -0.26245289795E+02  0.47022258489E+03  0.47189948515E+03  0.00000000000E+00 0. -1.
         22    1    3    3    0    0  0.54796332691E+02  0.41426551953E+02 -0.15362952232E+03  0.16828793008E+03  0.00000000000E+00 0.  1.
         22    1    3    3    0    0 -0.20279666358E+02 -0.90057132471E+01  0.13035687971E+02  0.25735129679E+02  0.00000000000E+00 0.  1.
</event>
<event>
 7    1  0.5889087E-006  0.6913662E+02  0.7818608E-02  0.1410721E+00
          2   -1    0    0  502    0  0.00000000000E+00  0.00000000000E+00  0.48256163072E+03  0.48256163072E+03  0.00000000000E+00 0. -1.
          1   -1    0    0  501    0 -0.00000000000E+00 -0.00000000000E+00 -0.81442174024E+03  0.81442174024E+03  0.00000000000E+00 0. -1.
         25    2    1    2    0    0  0.56357898232E+02  0.93762387913E+02  0.20012298525E+03  0.26008015397E+03  0.12499951674E+03 0.  0.
          2    1    1    2  501    0 -0.16170065225E+02 -0.44182551718E+02 -0.77968914821E+03  0.78110737849E+03  0.00000000000E+00 0. -1.
          1    1    1    2  502    0 -0.40187833007E+02 -0.49579836195E+02  0.24770605345E+03  0.25579583850E+03  0.00000000000E+00 0. -1.
         22    1    3    3    0    0  0.93587649823E+02  0.87302391747E+02  0.14732284405E+03  0.19515218724E+03  0.00000000000E+00 0.  1.
         22    1    3    3    0    0 -0.37229751591E+02  0.64599961657E+01  0.52800141191E+02  0.64927966731E+02  0.00000000000E+00 0.  1.
</event>
<event>
 7    1  0.5889087E-006  0.5902299E+02  0.7818608E-02  0.1507454E+00
          2   -1    0    0  502    0  0.00000000000E+00  0.00000000000E+00  0.27293974938E+03  0.27293974938E+03  0.00000000000E+00 0. -1.
          1   -1    0    0  501    0 -0.00000000000E+00 -0.00000000000E+00 -0.28228046146E+03  0.28228046146E+03  0.00000000000E+00 0. -1.
         25    2    1    2    0    0 -0.64503511257E+02 -0.98849923636E+01  0.30545170288E+02  0.14427474986E+03  0.12499511983E+03 0.  0.
          2    1    1    2  501    0  0.15275180860E+02 -0.22563743310E+02 -0.21986900393E+03  0.22155097055E+03  0.00000000000E+00 0. -1.
          1    1    1    2  502    0  0.49228330396E+02  0.32448735673E+02  0.17998312155E+03  0.18939449043E+03  0.00000000000E+00 0. -1.
         22    1    3    3    0    0 -0.51458322562E+02  0.22077007619E+02 -0.37901157215E+02  0.67615463797E+02  0.00000000000E+00 0. -1.
         22    1    3    3    0    0 -0.13045188695E+02 -0.31961999983E+02  0.68446327503E+02  0.76659286062E+02  0.00000000000E+00 0. -1.
</event>
<event>
 7    1  0.5889087E-006  0.2787716E+02  0.7818608E-02  0.1669512E+00
          2   -1    0    0  502    0  0.00000000000E+00  0.00000000000E+00  0.11029522305E+03  0.11029522305E+03  0.00000000000E+00 0. -1.
          1   -1    0    0  501    0 -0.00000000000E+00 -0.00000000000E+00 -0.14820089548E+03  0.14820089548E+03  0.00000000000E+00 0. -1.
         25    2    1    2    0    0  0.66628379610E+01 -0.46204767408E+02  0.88099804261E+01  0.13372131721E+03  0.12499800391E+03 0.  0.
          2    1    1    2  501    0  0.30588919935E+01  0.27154843541E+02 -0.80376161397E+02  0.84894461945E+02  0.00000000000E+00 0. -1.
          1    1    1    2  502    0 -0.97217299545E+01  0.19049923867E+02  0.33660508540E+02  0.39880339364E+02  0.00000000000E+00 0. -1.
         22    1    3    3    0    0  0.63405204426E+02 -0.38156862830E+02  0.16723569853E+02  0.75867278309E+02  0.00000000000E+00 0. -1.
         22    1    3    3    0    0 -0.56742366465E+02 -0.80479045777E+01 -0.79135894272E+01  0.57854038906E+02  0.00000000000E+00 0. -1.
</event>
<event>
 7    1  0.5889087E-006  0.5145264E+02  0.7818608E-02  0.1527514E+00
          2   -1    0    0  502    0  0.00000000000E+00  0.00000000000E+00  0.13076049712E+03  0.13076049712E+03  0.00000000000E+00 0. -1.
          1   -1    0    0  501    0 -0.00000000000E+00 -0.00000000000E+00 -0.63819292345E+03  0.63819292345E+03  0.00000000000E+00 0. -1.
         25    2    1    2    0    0  0.36130410765E+02 -0.49979071096E+02 -0.37159936292E+02  0.14425400271E+03  0.12500016922E+03 0.  0.
          2    1    1    2  501    0 -0.88165833447E+01  0.50596607808E+02 -0.54382081007E+03  0.54624062677E+03  0.00000000000E+00 0. -1.
          1    1    1    2  502    0 -0.27313827420E+02 -0.61753671145E+00  0.73548320034E+02  0.78458791093E+02  0.00000000000E+00 0. -1.
         22    1    3    3    0    0  0.59181824898E+02  0.12228985642E+02  0.12090226975E+02  0.61629620122E+02  0.00000000000E+00 0.  1.
         22    1    3    3    0    0 -0.23051414133E+02 -0.62208056738E+02 -0.49250163267E+02  0.82624382591E+02  0.00000000000E+00 0.  1.
</event>
<event>
 7    1  0.5889087E-006  0.5881183E+02  0.7818608E-02  0.1461511E+00
          2   -1    0    0  502    0  0.00000000000E+00  0.00000000000E+00  0.21003847039E+04  0.21003847039E+04  0.00000000000E+00 0. -1.
          1   -1    0    0  501    0 -0.00000000000E+00 -0.00000000000E+00 -0.79450477907E+02  0.79450477907E+02  0.00000000000E+00 0. -1.
         25    2    1    2    0    0  0.51189065471E+02  0.77283196916E+02  0.99581075466E+03  0.10078975819E+04  0.12500185386E+03 0.  0.
          2    1    1    2  501    0 -0.20938231299E+02 -0.31418518589E+02 -0.67816042811E+02  0.77617965078E+02  0.00000000000E+00 0. -1.
          1    1    1    2  502    0 -0.30250834172E+02 -0.45864678326E+02  0.10929395141E+04  0.10943196348E+04  0.00000000000E+00 0. -1.
         22    1    3    3    0    0  0.14694645679E+02  0.37425342041E+02  0.71667276766E+02  0.82175345436E+02  0.00000000000E+00 0. -1.
         22    1    3    3    0    0  0.36494419792E+02  0.39857854875E+02  0.92414347789E+03  0.92572223642E+03  0.00000000000E+00 0. -1.
</event>
<event>
 7    1  0.5889087E-006  0.6529374E+02  0.7818608E-02  0.1384876E+00
          2   -1    0    0  502    0  0.00000000000E+00  0.00000000000E+00  0.22440305723E+04  0.22440305723E+04  0.00000000000E+00 0. -1.
          1   -1    0    0  501    0 -0.00000000000E+00 -0.00000000000E+00 -0.12807587434E+03  0.12807587434E+03  0.00000000000E+00 0. -1.
         25    2    1    2    0    0 -0.16712663587E+02 -0.10852574229E+03  0.49732233508E+03  0.52441547247E+03  0.12499973172E+03 0.  0.
          2    1    1    2  501    0 -0.21751359455E+02  0.60959730878E+02 -0.10479872314E+03  0.12317460290E+03  0.00000000000E+00 0. -1.
          1    1    1    2  502    0  0.38464023042E+02  0.47566011409E+02  0.17234310860E+04  0.17245163713E+04  0.00000000000E+00 0. -1.
         22    1    3    3    0    0 -0.61213037558E+02 -0.39000426276E+02  0.14016132434E+03  0.15783936790E+03  0.00000000000E+00 0.  1.
         22    1    3    3    0    0  0.44500373971E+02 -0.69525316011E+02  0.35716101074E+03  0.36657610457E+03  0.00000000000E+00 0.  1.
</event>
<event>
 7    1  0.5889087E-006  0.5984374E+02  0.7818608E-02  0.1416068E+00
          2   -1    0    0  502    0  0.00000000000E+00  0.00000000000E+00  0.18940178708E+03  0.18940178708E+03  0.00000000000E+00 0. -1.
          1   -1    0    0  501    0 -0.00000000000E+00 -0.00000000000E+00 -0.57516562988E+03  0.57516562988E+03  0.00000000000E+00 0. -1.
         25    2    1    2    0    0 -0.22290434148E+02 -0.68394646111E+02  0.77920132366E+02  0.16392652414E+03  0.12500266884E+03 0.  0.
          2    1    1    2  501    0  0.53675310655E+02  0.26753055208E+02 -0.52025702106E+03  0.52370233234E+03  0.00000000000E+00 0. -1.
          1    1    1    2  502    0 -0.31384876507E+02  0.41641590902E+02  0.56573045893E+02  0.76938560474E+02  0.00000000000E+00 0. -1.
         22    1    3    3    0    0 -0.51738016109E+02 -0.51348412479E+02  0.99716304925E+02  0.12351851377E+03  0.00000000000E+00 0.  1.
         22    1    3    3    0    0  0.29447581961E+02 -0.17046233631E+02 -0.21796172559E+02  0.40408010376E+02  0.00000000000E+00 0.  1.
</event>
<event>
 7    1  0.5889087E-006  0.1674923E+03  0.7818608E-02  0.1260744E+00
          2   -1    0    0  502    0  0.00000000000E+00  0.00000000000E+00  0.39988249534E+02  0.39988249534E+02  0.00000000000E+00 0. -1.
          1   -1    0    0  501    0 -0.00000000000E+00 -0.00000000000E+00 -0.15702273490E+04  0.15702273490E+04  0.00000000000E+00 0. -1.
         25    2    1    2    0    0 -0.71966126249E+02 -0.12867420146E+03 -0.79483351733E+03  0.81799879931E+03  0.12500216775E+03 0.  0.
          2    1    1    2  501    0 -0.69478047430E+02  0.19337235599E+02 -0.44783734992E+03  0.45360712047E+03  0.00000000000E+00 0. -1.
          1    1    1    2  502    0  0.14144417368E+03  0.10933696586E+03 -0.28756823220E+03  0.33860967875E+03  0.00000000000E+00 0. -1.
         22    1    3    3    0    0  0.27432060504E+02  0.21621227396E+01 -0.15378317022E+03  0.15622565782E+03  0.00000000000E+00 0. -1.
         22    1    3    3    0    0 -0.99398186752E+02 -0.13083632420E+03 -0.64105034711E+03  0.66177314149E+03  0.00000000000E+00 0. -1.
</event>
<event>
 7    1  0.5889087E-006  0.5548612E+02  0.7818608E-02  0.1451163E+00
          2   -1    0    0  502    0  0.00000000000E+00  0.00000000000E+00  0.31285191482E+03  0.31285191482E+03  0.00000000000E+00 0. -1.
          1   -1    0    0  501    0 -0.00000000000E+00 -0.00000000000E+00 -0.52935588115E+03  0.52935588115E+03  0.00000000000E+00 0. -1.
         25    2    1    2    0    0  0.83405449802E+02  0.47675529771E+02 -0.26567251476E+03  0.30892897442E+03  0.12500320374E+03 0.  0.
          2    1    1    2  501    0 -0.41501203898E+02 -0.11851148123E+02 -0.23748342352E+03  0.24137351984E+03  0.00000000000E+00 0. -1.
          1    1    1    2  502    0 -0.41904245904E+02 -0.35824381648E+02  0.28665197194E+03  0.29190530170E+03  0.00000000000E+00 0. -1.
         22    1    3    3    0    0  0.47235946215E+02 -0.20110759795E+02 -0.20413217043E+03  0.21048900275E+03  0.00000000000E+00 0.  1.
         22    1    3    3    0    0  0.36169503586E+02  0.67786289566E+02 -0.61540344328E+02  0.98439971672E+02  0.00000000000E+00 0.  1.
</event>
<event>
 7    1  0.5889087E-006  0.9683398E+02  0.7818608E-02  0.1329862E+00
          2   -1    0    0  502    0  0.00000000000E+00  0.00000000000E+00  0.20694529264E+04  0.20694529264E+04  0.00000000000E+00 0. -1.
          1   -1    0    0  501    0 -0.00000000000E+00 -0.00000000000E+00 -0.48568227553E+02  0.48568227553E+02  0.00000000000E+00 0. -1.
         25    2    1    2    0    0  0.21375488416E+02 -0.72223148303E+02  0.11408023558E+04  0.11500993080E+04  0.12500123411E+03 0.  0.
          2    1    1    2  501    0 -0.83884506570E+02  0.52249922074E+02  0.14533998966E+02  0.99889448518E+02  0.00000000000E+00 0. -1.
          1    1    1    2  502    0  0.62509018154E+02  0.19973226229E+02  0.86554834402E+03  0.86803239741E+03  0.00000000000E+00 0. -1.
         22    1    3    3    0    0 -0.14850535248E+02  0.28691529087E+02  0.14578700126E+03  0.14932378235E+03  0.00000000000E+00 0.  1.
         22    1    3    3    0    0  0.36226023664E+02 -0.10091467739E+03  0.99501535458E+03  0.10007755257E+04  0.00000000000E+00 0.  1.
</event>
<event>
 7    1  0.5889087E-006  0.8583433E+02  0.7818608E-02  0.1335037E+00
          2   -1    0    0  502    0  0.00000000000E+00  0.00000000000E+00  0.19133418051E+03  0.19133418051E+03  0.00000000000E+00 0. -1.
          1   -1    0    0  501    0 -0.00000000000E+00 -0.00000000000E+00 -0.13715680602E+04  0.13715680602E+04  0.00000000000E+00 0. -1.
         25    2    1    2    0    0 -0.13838636896E+03 -0.68506504781E+02  0.37849739819E+02  0.20224028621E+03  0.12499840899E+03 0.  0.
          2    1    1    2  501    0  0.80204286607E+02  0.28253336252E+02 -0.12700403841E+04  0.12728839522E+04  0.00000000000E+00 0. -1.
          1    1    1    2  502    0  0.58182082350E+02  0.40253168529E+02  0.51956764639E+02  0.87778002227E+02  0.00000000000E+00 0. -1.
         22    1    3    3    0    0 -0.19139557111E+02  0.25308839760E+02 -0.22555693468E+02  0.38930955861E+02  0.00000000000E+00 0.  1.
         22    1    3    3    0    0 -0.11924681185E+03 -0.93815344541E+02  0.60405433287E+02  0.16330933034E+03  0.00000000000E+00 0.  1.
</event>
<event>
 7    1  0.5889087E-006  0.4992804E+02  0.7818608E-02  0.1484562E+00
          2   -1    0    0  502    0  0.00000000000E+00  0.00000000000E+00  0.75581635298E+03  0.75581635298E+03  0.00000000000E+00 0. -1.
          1   -1    0    0  501    0 -0.00000000000E+00 -0.00000000000E+00 -0.81107800592E+03  0.81107800592E+03  0.00000000000E+00 0. -1.
         25    2    1    2    0    0  0.14110200444E+02 -0.61093870380E+02  0.32750413462E+03  0.35611408675E+03  0.12500690315E+03 0.  0.
          2    1    1    2  501    0  0.20299990029E+02  0.45614445032E+02 -0.79512871839E+03  0.79669470062E+03  0.00000000000E+00 0. -1.
          1    1    1    2  502    0 -0.34410190474E+02  0.15479425348E+02  0.41236293083E+03  0.41408557152E+03  0.00000000000E+00 0. -1.
         22    1    3    3    0    0  0.27102924942E+02 -0.73923815000E+02  0.32852257187E+03  0.33782595992E+03  0.00000000000E+00 0.  1.
         22    1    3    3    0    0 -0.12992724498E+02  0.12829944620E+02 -0.10184372486E+01  0.18288126839E+02  0.00000000000E+00 0.  1.
</event>
<event>
 7    1  0.5889087E-006  0.9266190E+02  0.7818608E-02  0.1319199E+00
          2   -1    0    0  502    0  0.00000000000E+00  0.00000000000E+00  0.17697791640E+04  0.17697791640E+04  0.00000000000E+00 0. -1.
          1   -1    0    0  501    0 -0.00000000000E+00 -0.00000000000E+00 -0.18735739104E+04  0.18735739104E+04  0.00000000000E+00 0. -1.
         25    2    1    2    0    0 -0.27010885698E+02 -0.50763359128E+02 -0.11451441638E+02  0.13806498903E+03  0.12499719639E+03 0.  0.
          2    1    1    2  501    0  0.92753445150E+02  0.13882420082E+02 -0.17967596101E+04  0.17992056636E+04  0.00000000000E+00 0. -1.
          1    1    1    2  502    0 -0.65742559452E+02  0.36880939045E+02  0.17044163054E+04  0.17060824218E+04  0.00000000000E+00 0. -1.
         22    1    3    3    0    0  0.48546772807E+02 -0.31150817104E+02  0.62572003391E+01  0.58019954432E+02  0.00000000000E+00 0.  1.
         22    1    3    3    0    0 -0.75557658505E+02 -0.19612542023E+02 -0.17708641977E+02  0.80045034599E+02  0.00000000000E+00 0.  1.
</event>
<event>
 7    1  0.5889087E-006  0.8913375E+02  0.7818608E-02  0.1315998E+00
          2   -1    0    0  502    0  0.00000000000E+00  0.00000000000E+00  0.93935683612E+02  0.93935683612E+02  0.00000000000E+00 0. -1.
          1   -1    0    0  501    0 -0.00000000000E+00 -0.00000000000E+00 -0.35366959049E+04  0.35366959049E+04  0.00000000000E+00 0. -1.
         25    2    1    2    0    0  0.12427142605E+03 -0.19957223760E+02 -0.11207458441E+04  0.11346973978E+04  0.12500103754E+03 0.  0.
          2    1    1    2  501    0 -0.65598994952E+02 -0.46911386570E+02 -0.23853616560E+04  0.23867245623E+04  0.00000000000E+00 0. -1.
          1    1    1    2  502    0 -0.58672431094E+02  0.66868610331E+02  0.63347278782E+02  0.10920962845E+03  0.00000000000E+00 0. -1.
         22    1    3    3    0    0  0.11189792439E+03 -0.61021404957E+02 -0.67773949574E+03  0.68961988184E+03  0.00000000000E+00 0.  1.
         22    1    3    3    0    0  0.12373501658E+02  0.41064181196E+02 -0.44300634839E+03  0.44507751598E+03  0.00000000000E+00 0.  1.
</event>
<event>
 7    1  0.5889087E-006  0.8510333E+02  0.7818608E-02  0.1324485E+00
          2   -1    0    0  502    0  0.00000000000E+00  0.00000000000E+00  0.62364243048E+03  0.62364243048E+03  0.00000000000E+00 0. -1.
          1   -1    0    0  501    0 -0.00000000000E+00 -0.00000000000E+00 -0.10518120110E+04  0.10518120110E+04  0.00000000000E+00 0. -1.
         25    2    1    2    0    0 -0.10974900688E+03  0.24064234416E+02  0.66126637263E+02  0.18061292419E+03  0.12499745734E+03 0.  0.
          2    1    1    2  501    0  0.72439193892E+02  0.44776380420E+02 -0.98966512651E+03  0.99332241678E+03  0.00000000000E+00 0. -1.
          1    1    1    2  502    0  0.37309812987E+02 -0.68840614837E+02  0.49536890875E+03  0.50151910048E+03  0.00000000000E+00 0. -1.
         22    1    3    3    0    0 -0.11556060511E+03  0.60523481941E+02  0.58237550708E+02  0.14285992311E+03  0.00000000000E+00 0.  1.
         22    1    3    3    0    0  0.58115982281E+01 -0.36459247524E+02  0.78890865549E+01  0.37753001082E+02  0.00000000000E+00 0.  1.
</event>
<event>
 7    1  0.5889087E-006  0.1359939E+03  0.7818608E-02  0.1232781E+00
          2   -1    0    0  502    0  0.00000000000E+00  0.00000000000E+00  0.53817077442E+03  0.53817077442E+03  0.00000000000E+00 0. -1.
          1   -1    0    0  501    0 -0.00000000000E+00 -0.00000000000E+00 -0.81654841615E+03  0.81654841615E+03  0.00000000000E+00 0. -1.
         25    2    1    2    0    0 -0.20122140066E+03  0.14831172323E+03 -0.38372792246E+03  0.47471695889E+03  0.12499061265E+03 0.  0.
          2    1    1    2  501    0  0.86850252628E+02 -0.79324336443E+02 -0.36895423095E+03  0.38724997258E+03  0.00000000000E+00 0. -1.
          1    1    1    2  502    0  0.11437114803E+03 -0.68987386782E+02  0.47430451168E+03  0.49275225909E+03  0.00000000000E+00 0. -1.
         22    1    3    3    0    0 -0.17338561369E+02 -0.22530310437E+02 -0.36313150768E+02  0.46118169060E+02  0.00000000000E+00 0. -1.
         22    1    3    3    0    0 -0.18388283929E+03  0.17084203366E+03 -0.34741477170E+03  0.42859878983E+03  0.00000000000E+00 0. -1.
</event>
<event>
 7    1  0.5889087E-006  0.8623383E+02  0.7818608E-02  0.1424104E+00
          2   -1    0    0  502    0  0.00000000000E+00  0.00000000000E+00  0.12149950774E+04  0.12149950774E+04  0.00000000000E+00 0. -1.
          1   -1    0    0  501    0 -0.00000000000E+00 -0.00000000000E+00 -0.71244381946E+02  0.71244381946E+02  0.00000000000E+00 0. -1.
         25    2    1    2    0    0  0.10209177286E+03  0.35641659193E+02  0.24633306815E+03  0.29664776602E+03  0.12500743444E+03 0.  0.
          2    1    1    2  501    0 -0.69708618564E+02 -0.46060970905E+02 -0.76350437885E+01  0.83899931087E+02  0.00000000000E+00 0. -1.
          1    1    1    2  502    0 -0.32383154299E+02  0.10419311712E+02  0.90505267106E+03  0.90569176220E+03  0.00000000000E+00 0. -1.
         22    1    3    3    0    0  0.27688226759E+02  0.65170588508E+02  0.56366565792E+02  0.90504327226E+02  0.00000000000E+00 0.  1.
         22    1    3    3    0    0  0.74403546104E+02 -0.29528929315E+02  0.18996650236E+03  0.20614343880E+03  0.00000000000E+00 0.  1.
</event>
<event>
 7    1  0.5889087E-006  0.1586857E+03  0.7818608E-02  0.1360315E+00
          2   -1    0    0  502    0  0.00000000000E+00  0.00000000000E+00  0.14157011045E+04  0.14157011045E+04  0.00000000000E+00 0. -1.
          1   -1    0    0  501    0 -0.00000000000E+00 -0.00000000000E+00 -0.12425475568E+04  0.12425475568E+04  0.00000000000E+00 0. -1.
         25    2    1    2    0    0  0.18021069197E+03 -0.50229296883E+02 -0.49736570498E+03  0.54588995011E+03  0.12499726950E+03 0.  0.
          2    1    1    2  501    0 -0.25104508744E+02  0.17880218692E+02 -0.71607665212E+03  0.71673963913E+03  0.00000000000E+00 0. -1.
          1    1    1    2  502    0 -0.15510618322E+03  0.32349078192E+02  0.13865959048E+04  0.13956190720E+04  0.00000000000E+00 0. -1.
         22    1    3    3    0    0  0.70386239033E+02 -0.17387236032E+02 -0.35881678008E+03  0.36606832735E+03  0.00000000000E+00 0. -1.
         22    1    3    3    0    0  0.10982445293E+03 -0.32842060851E+02 -0.13854892490E+03  0.17982162276E+03  0.00000000000E+00 0. -1.
</event>
<event>
 7    1  0.5889087E-006  0.9590987E+02  0.7818608E-02  0.1343101E+00
          2   -1    0    0  502    0  0.00000000000E+00  0.00000000000E+00  0.16698326279E+04  0.16698326279E+04  0.00000000000E+00 0. -1.
          1   -1    0    0  501    0 -0.00000000000E+00 -0.00000000000E+00 -0.11181436899E+03  0.11181436899E+03  0.00000000000E+00 0. -1.
         25    2    1    2    0    0  0.44968860912E+02 -0.20616064140E+02  0.35471663097E+03  0.37933618026E+03  0.12499931526E+03 0.  0.
          2    1    1    2  501    0 -0.99375186936E+02 -0.23098358068E+01 -0.73826433756E+02  0.12381884122E+03  0.00000000000E+00 0. -1.
          1    1    1    2  502    0  0.54406326024E+02  0.22925899947E+02  0.12771280617E+04  0.12784919754E+04  0.00000000000E+00 0. -1.
         22    1    3    3    0    0 -0.30034211380E+02  0.24560282261E+02  0.17723632550E+03  0.18143311824E+03  0.00000000000E+00 0. -1.
         22    1    3    3    0    0  0.75003072292E+02 -0.45176346402E+02  0.17748030547E+03  0.19790306202E+03  0.00000000000E+00 0. -1.
</event>
<event>
 7    1  0.5889087E-006  0.9997803E+02  0.7818608E-02  0.1331923E+00
          2   -1    0    0  502    0  0.00000000000E+00  0.00000000000E+00  0.71160948837E+03  0.71160948837E+03  0.00000000000E+00 0. -1.
          1   -1    0    0  501    0 -0.00000000000E+00 -0.00000000000E+00 -0.25598275728E+04  0.25598275728E+04  0.00000000000E+00 0. -1.
         25    2    1    2    0    0 -0.10037336371E+02  0.41740069110E+02 -0.16703770368E+02  0.13321683026E+03  0.12499890571E+03 0.  0.
          2    1    1    2  501    0  0.11224941325E+02  0.61400811923E+02 -0.24804011059E+04  0.24811863503E+04  0.00000000000E+00 0. -1.
          1    1    1    2  502    0 -0.11876049541E+01 -0.10314088103E+03  0.64888679178E+03  0.65703388062E+03  0.00000000000E+00 0. -1.
         22    1    3    3    0    0 -0.30837981458E+02 -0.22415874525E+02 -0.45948767449E+02  0.59705458387E+02  0.00000000000E+00 0. -1.
         22    1    3    3    0    0  0.20800645088E+02  0.64155943635E+02  0.29244997081E+02  0.73511371868E+02  0.00000000000E+00 0. -1.
</event>
<event>
 7    1  0.5889087E-006  0.1462011E+03  0.7818608E-02  0.1388502E+00
          2   -1    0    0  502    0  0.00000000000E+00  0.00000000000E+00  0.22376916401E+03  0.22376916401E+03  0.00000000000E+00 0. -1.
          1   -1    0    0  501    0 -0.00000000000E+00 -0.00000000000E+00 -0.38769786505E+03  0.38769786505E+03  0.00000000000E+00 0. -1.
         25    2    1    2    0    0  0.48873895066E+02  0.13835156790E+03 -0.20082148573E+03  0.27835954057E+03  0.12499980295E+03 0.  0.
          2    1    1    2  501    0 -0.23195719594E+02 -0.14502500112E+03 -0.11021672979E+03  0.18362467123E+03  0.00000000000E+00 0. -1.
          1    1    1    2  502    0 -0.25678175472E+02  0.66734332201E+01  0.14710951448E+03  0.14948281726E+03  0.00000000000E+00 0. -1.
         22    1    3    3    0    0 -0.15380736388E+02  0.10060162147E+03 -0.57677861301E+02  0.11697858341E+03  0.00000000000E+00 0. -1.
         22    1    3    3    0    0  0.64254631454E+02  0.37749946436E+02 -0.14314362443E+03  0.16138095716E+03  0.00000000000E+00 0. -1.
</event>
<event>
 7    1  0.5889087E-006  0.1049214E+03  0.7818608E-02  0.1325221E+00
          2   -1    0    0  502    0  0.00000000000E+00  0.00000000000E+00  0.54685737059E+03  0.54685737059E+03  0.00000000000E+00 0. -1.
          1   -1    0    0  501    0 -0.00000000000E+00 -0.00000000000E+00 -0.33531042176E+04  0.33531042176E+04  0.00000000000E+00 0. -1.
         25    2    1    2    0    0  0.47147493626E+01 -0.98455077125E+02 -0.86502642937E+03  0.87955202217E+03  0.12500162044E+03 0.  0.
          2    1    1    2  501    0  0.60925608908E+02  0.16414455273E+02 -0.24752944968E+04  0.24760985865E+04  0.00000000000E+00 0. -1.
          1    1    1    2  502    0 -0.65640358271E+02  0.82040621852E+02  0.53407407923E+03  0.54431097947E+03  0.00000000000E+00 0. -1.
         22    1    3    3    0    0 -0.18677477975E+02  0.23634835859E+01 -0.49406393500E+03  0.49442249757E+03  0.00000000000E+00 0.  1.
         22    1    3    3    0    0  0.23392227337E+02 -0.10081856071E+03 -0.37096249437E+03  0.38512952459E+03  0.00000000000E+00 0.  1.
</event>
<event>
 7    1  0.5889087E-006  0.4934563E+02  0.7818608E-02  0.1479360E+00
          2   -1    0    0  502    0  0.00000000000E+00  0.00000000000E+00  0.65693083938E+03  0.65693083938E+03  0.00000000000E+00 0. -1.
          1   -1    0    0  501    0 -0.00000000000E+00 -0.00000000000E+00 -0.80977111773E+03  0.80977111773E+03  0.00000000000E+00 0. -1.
         25    2    1    2    0    0 -0.14115614139E+02  0.27149530413E+01 -0.32372658664E+03  0.34731901771E+03  0.12499990253E+03 0.  0.
          2    1    1    2  501    0  0.51814628135E+02 -0.14842801883E+02 -0.47210575169E+03  0.47517250051E+03  0.00000000000E+00 0. -1.
          1    1    1    2  502    0 -0.37699013996E+02  0.12127848842E+02  0.64299205999E+03  0.64421043890E+03  0.00000000000E+00 0. -1.
         22    1    3    3    0    0  0.42124799526E+02 -0.14510232592E+02 -0.24515261138E+03  0.24916831350E+03  0.00000000000E+00 0. -1.
         22    1    3    3    0    0 -0.56240413665E+02  0.17225185633E+02 -0.78573975258E+02  0.98150704211E+02  0.00000000000E+00 0. -1.
</event>
<event>
 7    1  0.5889087E-006  0.2100466E+03  0.7818608E-02  0.1290379E+00
          2   -1    0    0  502    0  0.00000000000E+00  0.00000000000E+00  0.16792153363E+04  0.16792153363E+04  0.00000000000E+00 0. -1.
          1   -1    0    0  501    0 -0.00000000000E+00 -0.00000000000E+00 -0.38081656104E+03  0.38081656104E+03  0.00000000000E+00 0. -1.
         25    2    1    2    0    0 -0.93632067854E+02  0.15433149569E+03  0.61521713737E+01  0.21965577206E+03  0.12500253715E+03 0.  0.
          2    1    1    2  501    0  0.12684437044E+03 -0.18209475875E+03 -0.22878261564E+03  0.31873104759E+03  0.00000000000E+00 0. -1.
          1    1    1    2  502    0 -0.33212302589E+02  0.27763263066E+02  0.15210292195E+04  0.15216450777E+04  0.00000000000E+00 0. -1.
         22    1    3    3    0    0 -0.23220283727E+01 -0.20095595425E+02 -0.91051152361E+01  0.22183955795E+02  0.00000000000E+00 0. -1.
         22    1    3    3    0    0 -0.91310039481E+02  0.17442709111E+03  0.15257286610E+02  0.19747181626E+03  0.00000000000E+00 0. -1.
</event>
<event>
 7    1  0.5889087E-006  0.6068678E+02  0.7818608E-02  0.1487795E+00
          2   -1    0    0  502    0  0.00000000000E+00  0.00000000000E+00  0.61666296236E+03  0.61666296236E+03  0.00000000000E+00 0. -1.
          1   -1    0    0  501    0 -0.00000000000E+00 -0.00000000000E+00 -0.18809031957E+03  0.18809031957E+03  0.00000000000E+00 0. -1.
         25    2    1    2    0    0  0.10373015982E+02  0.55535281197E+02  0.31747263228E+03  0.34583942393E+03  0.12499707190E+03 0.  0.
          2    1    1    2  501    0  0.19909143094E+02 -0.57524451494E+02 -0.16773152768E+03  0.17843570796E+03  0.00000000000E+00 0. -1.
          1    1    1    2  502    0 -0.30282159075E+02  0.19891702973E+01  0.27883153819E+03  0.28047815003E+03  0.00000000000E+00 0. -1.
         22    1    3    3    0    0  0.53329027660E+01 -0.40405378239E+02  0.10606266157E+03  0.11362360063E+03  0.00000000000E+00 0.  1.
         22    1    3    3    0    0  0.50401132156E+01  0.95940659436E+02  0.21140997071E+03  0.23221582330E+03  0.00000000000E+00 0.  1.
</event>
<event>
 7    1  0.5889087E-006  0.1120349E+03  0.7818608E-02  0.1309360E+00
          2   -1    0    0  502    0  0.00000000000E+00  0.00000000000E+00  0.63783429027E+03  0.63783429027E+03  0.00000000000E+00 0. -1.
          1   -1    0    0  501    0 -0.00000000000E+00 -0.00000000000E+00 -0.19502541860E+04  0.19502541860E+04  0.00000000000E+00 0. -1.
         25    2    1    2    0    0 -0.50160341661E+02 -0.76599719502E+01  0.34599640205E+02  0.13926860337E+03  0.12499549486E+03 0.  0.
          2    1    1    2  501    0  0.98896208727E+02  0.55265208158E+02 -0.18941144018E+04  0.18974994257E+04  0.00000000000E+00 0. -1.
          1    1    1    2  502    0 -0.48735867065E+02 -0.47605236207E+02  0.54709486587E+03  0.55132044721E+03  0.00000000000E+00 0. -1.
         22    1    3    3    0    0  0.40058527670E+02 -0.16068189746E+02  0.28415431743E+01  0.43254441719E+02  0.00000000000E+00 0.  1.
         22    1    3    3    0    0 -0.90218869332E+02  0.84082177954E+01  0.31758097030E+02  0.96014161648E+02  0.00000000000E+00 0.  1.
</event>
<event>
 7    1  0.5889087E-006  0.1238163E+03  0.7818608E-02  0.1313051E+00
          2   -1    0    0  502    0  0.00000000000E+00  0.00000000000E+00  0.42544765453E+03  0.42544765453E+03  0.00000000000E+00 0. -1.
          1   -1    0    0  501    0 -0.00000000000E+00 -0.00000000000E+00 -0.91232267453E+03  0.91232267453E+03  0.00000000000E+00 0. -1.
         25    2    1    2    0    0 -0.14570506213E+03 -0.99874852182E+01 -0.33132853801E+03  0.38305654452E+03  0.12499600477E+03 0.  0.
          2    1    1    2  501    0  0.29465286318E+02  0.51828627715E+02 -0.54391328791E+03  0.54717097375E+03  0.00000000000E+00 0. -1.
          1    1    1    2  502    0  0.11623977581E+03 -0.41841142497E+02  0.38836680592E+03  0.40754281079E+03  0.00000000000E+00 0. -1.
         22    1    3    3    0    0  0.52602548222E+00 -0.74563551593E+00 -0.14966239723E+03  0.14966517905E+03  0.00000000000E+00 0. -1.
         22    1    3    3    0    0 -0.14623108761E+03 -0.92418497022E+01 -0.18166614078E+03  0.23339136547E+03  0.00000000000E+00 0. -1.
</event>
<event>
 7    1  0.5889087E-006  0.4648971E+02  0.7818608E-02  0.1484883E+00
          2   -1    0    0  502    0  0.00000000000E+00  0.00000000000E+00  0.39606872456E+03  0.39606872456E+03  0.00000000000E+00 0. -1.
          1   -1    0    0  501    0 -0.00000000000E+00 -0.00000000000E+00 -0.12912723199E+04  0.12912723199E+04  0.00000000000E+00 0. -1.
         25    2    1    2    0    0 -0.73067360197E+02  0.44950868548E+01 -0.42975933702E+03  0.45351701567E+03  0.12500220321E+03 0.  0.
          2    1    1    2  501    0  0.38164626519E+02 -0.24902286644E+02 -0.84795693133E+03  0.84918055794E+03  0.00000000000E+00 0. -1.
          1    1    1    2  502    0  0.34902733678E+02  0.20407199789E+02  0.38251267303E+03  0.38464347083E+03  0.00000000000E+00 0. -1.
         22    1    3    3    0    0  0.85761055070E+01 -0.35273235961E+01 -0.29906546409E+03  0.29920919674E+03  0.00000000000E+00 0. -1.
         22    1    3    3    0    0 -0.81643465704E+02  0.80224104508E+01 -0.13069387293E+03  0.15430781893E+03  0.00000000000E+00 0. -1.
</event>
<event>
 7    1  0.5889087E-006  0.1370636E+03  0.7818608E-02  0.1305259E+00
          2   -1    0    0  502    0  0.00000000000E+00  0.00000000000E+00  0.36012373711E+04  0.36012373711E+04  0.00000000000E+00 0. -1.
          1   -1    0    0  501    0 -0.00000000000E+00 -0.00000000000E+00 -0.73507821630E+03  0.73507821630E+03  0.00000000000E+00 0. -1.
         25    2    1    2    0    0  0.12684347456E+03  0.13115771907E+03  0.53057541328E+03  0.57482728698E+03  0.12499810544E+03 0.  0.
          2    1    1    2  501    0 -0.55025869710E+02 -0.17718198413E+02 -0.71029918870E+03  0.71264768179E+03  0.00000000000E+00 0. -1.
          1    1    1    2  502    0 -0.71817604845E+02 -0.11343952066E+03  0.30458829302E+04  0.30488406186E+04  0.00000000000E+00 0. -1.
         22    1    3    3    0    0  0.79591737882E+02  0.14895524440E+03  0.37531109417E+03  0.41155914154E+03  0.00000000000E+00 0.  1.
         22    1    3    3    0    0  0.47251736673E+02 -0.17797525332E+02  0.15526431911E+03  0.16326814544E+03  0.00000000000E+00 0.  1.
</event>
<event>
 7    1  0.5889087E-006  0.5146480E+02  0.7818608E-02  0.1467101E+00
          2   -1    0    0  502    0  0.00000000000E+00  0.00000000000E+00  0.35386432159E+03  0.35386432159E+03  0.00000000000E+00 0. -1.
          1   -1    0    0  501    0 -0.00000000000E+00 -0.00000000000E+00 -0.60101559681E+03  0.60101559681E+03  0.00000000000E+00 0. -1.
         25    2    1    2    0    0 -0.11749896557E+02 -0.51965685685E+02  0.11349079393E+03  0.17704218126E+03  0.12500112431E+03 0.  0.
          2    1    1    2  501    0  0.40706866498E+02  0.77589674736E+01 -0.56512198414E+03  0.56663930989E+03  0.00000000000E+00 0. -1.
          1    1    1    2  502    0 -0.28956969941E+02  0.44206718211E+02  0.20447991499E+03  0.21119842726E+03  0.00000000000E+00 0. -1.
         22    1    3    3    0    0 -0.20010713250E+02  0.29258117932E+02 -0.21198132282E+01  0.35509994619E+02  0.00000000000E+00 0.  1.
         22    1    3    3    0    0  0.82608166931E+01 -0.81223803617E+02  0.11561060716E+03  0.14153218664E+03  0.00000000000E+00 0.  1.
</event>
<event>
 7    1  0.5889087E-006  0.4612146E+03  0.7818608E-02  0.1168944E+00
          2   -1    0    0  502    0  0.00000000000E+00  0.00000000000E+00  0.10903736326E+03  0.10903736326E+03  0.00000000000E+00 0. -1.
          1   -1    0    0  501    0 -0.00000000000E+00 -0.00000000000E+00 -0.46344779650E+04  0.46344779650E+04  0.00000000000E+00 0. -1.
         25    2    1    2    0    0 -0.45929473235E+03 -0.23519952607E+03 -0.10614485726E+04  0.11868305387E+04  0.12499274816E+03 0.  0.
          2    1    1    2  501    0  0.40596224255E+03  0.19089283267E+03 -0.34581252634E+04  0.34871013397E+04  0.00000000000E+00 0. -1.
          1    1    1    2  502    0  0.53332489800E+02  0.44306693398E+02 -0.58667656738E+01  0.69583449811E+02  0.00000000000E+00 0. -1.
         22    1    3    3    0    0 -0.11961200818E+03 -0.11716603948E+03 -0.27316107605E+03  0.32039333135E+03  0.00000000000E+00 0. -1.
         22    1    3    3    0    0 -0.33968272416E+03 -0.11803348659E+03 -0.78828749659E+03  0.86643720738E+03  0.00000000000E+00 0. -1.
</event>
<event>
 7    1  0.5889087E-006  0.5416914E+02  0.7818608E-02  0.1432174E+00
          2   -1    0    0  502    0  0.00000000000E+00  0.00000000000E+00  0.20886898830E+02  0.20886898830E+02  0.00000000000E+00 0. -1.
          1   -1    0    0  501    0 -0.00000000000E+00 -0.00000000000E+00 -0.19932627192E+04  0.19932627192E+04  0.00000000000E+00 0. -1.
         25    2    1    2    0    0 -0.52371010134E+02 -0.72530419230E+02 -0.63254374159E+03  0.65095252509E+03  0.12499688189E+03 0.  0.
          2    1    1    2  501    0  0.55663314030E+01  0.52444110368E+02 -0.12927856344E+04  0.12938609142E+04  0.00000000000E+00 0. -1.
          1    1    1    2  502    0  0.46804678731E+02  0.20086308862E+02 -0.47046444388E+02  0.69336178755E+02  0.00000000000E+00 0. -1.
         22    1    3    3    0    0  0.60943492294E+01 -0.86093261190E+02 -0.26955622748E+03  0.28303665927E+03  0.00000000000E+00 0.  1.
         22    1    3    3    0    0 -0.58465359364E+02  0.13562841959E+02 -0.36298751410E+03  0.36791586582E+03  0.00000000000E+00 0.  1.
</event>
<event>
 7    1  0.5889087E-006  0.1649543E+03  0.7818608E-02  0.1317599E+00
          2   -1    0    0  502    0  0.00000000000E+00  0.00000000000E+00  0.34485800456E+03  0.34485800456E+03  0.00000000000E+00 0. -1.
          1   -1    0    0  501    0 -0.00000000000E+00 -0.00000000000E+00 -0.18150342241E+03  0.18150342241E+03  0.00000000000E+00 0. -1.
         25    2    1    2    0    0  0.53451018757E+02  0.14872231601E+03  0.39322094699E+01  0.20153229463E+03  0.12499785926E+03 0.  0.
          2    1    1    2  501    0 -0.17834520581E+02 -0.17273651539E+03  0.15169202770E+02  0.17431603078E+03  0.00000000000E+00 0. -1.
          1    1    1    2  502    0 -0.35616498176E+02  0.24014199377E+02  0.14425316990E+03  0.15051310156E+03  0.00000000000E+00 0. -1.
         22    1    3    3    0    0  0.39229620976E+02  0.16343405953E+03  0.27511050392E+02  0.17031298503E+03  0.00000000000E+00 0. -1.
         22    1    3    3    0    0  0.14221397782E+02 -0.14711743521E+02 -0.23578840922E+02  0.31219309594E+02  0.00000000000E+00 0. -1.
</event>
<event>
 7    1  0.5889087E-006  0.9229212E+02  0.7818608E-02  0.1446541E+00
          2   -1    0    0  502    0  0.00000000000E+00  0.00000000000E+00  0.76028361729E+02  0.76028361729E+02  0.00000000000E+00 0. -1.
          1   -1    0    0  501    0 -0.00000000000E+00 -0.00000000000E+00 -0.97429805324E+03  0.97429805324E+03  0.00000000000E+00 0. -1.
         25    2    1    2    0    0 -0.67727553445E+02 -0.18281963100E+02 -0.33804751545E+03  0.36718135346E+03  0.12499908784E+03 0.  0.
          2    1    1    2  501    0 -0.26141230852E+02  0.61209266030E+01 -0.58474952891E+03  0.58536556206E+03  0.00000000000E+00 0. -1.
          1    1    1    2  502    0  0.93868784297E+02  0.12161036497E+02  0.24527352842E+02  0.97779499444E+02  0.00000000000E+00 0. -1.
         22    1    3    3    0    0  0.29496508924E+02  0.20873810746E+02 -0.11870072678E+03  0.12407909796E+03  0.00000000000E+00 0.  1.
         22    1    3    3    0    0 -0.97224062369E+02 -0.39155773846E+02 -0.21934678867E+03  0.24310225550E+03  0.00000000000E+00 0.  1.
</event>
<event>
 7    1  0.5889087E-006  0.1637377E+03  0.7818608E-02  0.1267054E+00
          2   -1    0    0  502    0  0.00000000000E+00  0.00000000000E+00  0.36885753482E+03  0.36885753482E+03  0.00000000000E+00 0. -1.
          1   -1    0    0  501    0 -0.00000000000E+00 -0.00000000000E+00 -0.94624200617E+03  0.94624200617E+03  0.00000000000E+00 0. -1.
         25    2    1    2    0    0  0.95930530560E+02  0.20940624934E+03  0.17945332733E+03  0.31761812435E+03  0.12499652905E+03 0.  0.
          2    1    1    2  501    0 -0.75034547794E+02 -0.14326482514E+03 -0.85894767712E+03  0.87404010521E+03  0.00000000000E+00 0. -1.
          1    1    1    2  502    0 -0.20895982766E+02 -0.66141424196E+02  0.10210987844E+03  0.12344131142E+03  0.00000000000E+00 0. -1.
         22    1    3    3    0    0  0.49450657826E+02  0.41695837805E+01  0.19610615095E+02  0.53360371182E+02  0.00000000000E+00 0. -1.
         22    1    3    3    0    0  0.46479872734E+02  0.20523666556E+03  0.15984271223E+03  0.26425775317E+03  0.00000000000E+00 0. -1.
</event>
<event>
 7    1  0.5889087E-006  0.9557603E+02  0.7818608E-02  0.1327617E+00
          2   -1    0    0  502    0  0.00000000000E+00  0.00000000000E+00  0.74553972777E+03  0.74553972777E+03  0.00000000000E+00 0. -1.
          1   -1    0    0  501    0 -0.00000000000E+00 -0.00000000000E+00 -0.14376448904E+03  0.14376448904E+03  0.00000000000E+00 0. -1.
         25    2    1    2    0    0  0.31416158125E+02  0.58700968998E+01  0.28895938674E+03  0.31645522267E+03  0.12499979097E+03 0.  0.
          2    1    1    2  501    0 -0.98946444024E+02 -0.12078712274E+02 -0.10778715427E+03  0.14681404804E+03  0.00000000000E+00 0. -1.
          1    1    1    2  502    0  0.67530285899E+02  0.62086153741E+01  0.42060300626E+03  0.42603494609E+03  0.00000000000E+00 0. -1.
         22    1    3    3    0    0 -0.29095185166E+02 -0.23916200490E+02  0.20659436861E+03  0.20999939902E+03  0.00000000000E+00 0.  1.
         22    1    3    3    0    0  0.60511343291E+02  0.29786297390E+02  0.82365018131E+02  0.10645582366E+03  0.00000000000E+00 0.  1.
</event>
<event>
 7    1  0.5889087E-006  0.1512654E+03  0.7818608E-02  0.1326868E+00
          2   -1    0    0  502    0  0.00000000000E+00  0.00000000000E+00  0.24313209484E+04  0.24313209484E+04  0.00000000000E+00 0. -1.
          1   -1    0    0  501    0 -0.00000000000E+00 -0.00000000000E+00 -0.58682232320E+03  0.58682232320E+03  0.00000000000E+00 0. -1.
         25    2    1    2    0    0 -0.16431631724E+03  0.46881753720E-01  0.20542491976E+03  0.29124440224E+03  0.12499619941E+03 0.  0.
          2    1    1    2  501    0  0.14581185213E+03 -0.39008668215E+02 -0.53322266348E+03  0.55417432390E+03  0.00000000000E+00 0. -1.
          1    1    1    2  502    0  0.18504465119E+02  0.38961786462E+02  0.21722963690E+04  0.21727245455E+04  0.00000000000E+00 0. -1.
         22    1    3    3    0    0 -0.65657224974E+02 -0.45731880123E+02  0.31249793508E+02  0.85900091066E+02  0.00000000000E+00 0. -1.
         22    1    3    3    0    0 -0.98659092271E+02  0.45778761876E+02  0.17417512626E+03  0.20534431118E+03  0.00000000000E+00 0. -1.
</event>
<event>
 7    1  0.5889087E-006  0.2727465E+03  0.7818608E-02  0.1187149E+00
          2   -1    0    0  502    0  0.00000000000E+00  0.00000000000E+00  0.54735543452E+03  0.54735543452E+03  0.00000000000E+00 0. -1.
          1   -1    0    0  501    0 -0.00000000000E+00 -0.00000000000E+00 -0.14199422702E+04  0.14199422702E+04  0.00000000000E+00 0. -1.
         25    2    1    2    0    0 -0.24738466033E+03  0.86437060606E+02  0.40550888533E+02  0.29315517878E+03  0.12500019468E+03 0.  0.
          2    1    1    2  501    0  0.28500422464E+02  0.91132122142E+02 -0.12393556991E+04  0.12430285140E+04  0.00000000000E+00 0. -1.
          1    1    1    2  502    0  0.21888423787E+03 -0.17756918275E+03  0.32621797481E+03  0.43111401199E+03  0.00000000000E+00 0. -1.
         22    1    3    3    0    0 -0.23167160309E+03  0.11064602711E+03  0.19587386873E+02  0.25748386496E+03  0.00000000000E+00 0.  1.
         22    1    3    3    0    0 -0.15713057245E+02 -0.24208966507E+02  0.20963501661E+02  0.35671313814E+02  0.00000000000E+00 0.  1.
</event>
<event>
 7    1  0.5889087E-006  0.8482479E+02  0.7818608E-02  0.1441150E+00
          2   -1    0    0  502    0  0.00000000000E+00  0.00000000000E+00  0.64939525668E+03  0.64939525668E+03  0.00000000000E+00 0. -1.
          1   -1    0    0  501    0 -0.00000000000E+00 -0.00000000000E+00 -0.46147230893E+03  0.46147230893E+03  0.00000000000E+00 0. -1.
         25    2    1    2    0    0  0.11433490391E+03 -0.57296706698E+00  0.13457494535E+03  0.21635179759E+03  0.12499954345E+03 0.  0.
          2    1    1    2  501    0 -0.84081816684E+02 -0.24709727900E+01 -0.41588092814E+03  0.42430272683E+03  0.00000000000E+00 0. -1.
          1    1    1    2  502    0 -0.30253087221E+02  0.30439398570E+01  0.46922893054E+03  0.47021304119E+03  0.00000000000E+00 0. -1.
         22    1    3    3    0    0  0.12010745514E+03 -0.84632709626E+01  0.15347719523E+03  0.19507095424E+03  0.00000000000E+00 0. -1.
         22    1    3    3    0    0 -0.57725512305E+01  0.78903038956E+01 -0.18902249877E+02  0.21280843350E+02  0.00000000000E+00 0. -1.
</event>
<event>
 7    1  0.5889087E-006  0.7848816E+02  0.7818608E-02  0.1372210E+00
          2   -1    0    0  502    0  0.00000000000E+00  0.00000000000E+00  0.40583312532E+02  0.40583312532E+02  0.00000000000E+00 0. -1.
          1   -1    0    0  501    0 -0.00000000000E+00 -0.00000000000E+00 -0.88814569617E+03  0.88814569617E+03  0.00000000000E+00 0. -1.
         25    2    1    2    0    0  0.45569295363E+02  0.75186724383E+01 -0.56951420096E+03  0.58489689586E+03  0.12499945031E+03 0.  0.
          2    1    1    2  501    0 -0.20227506209E+02 -0.81803155004E+02 -0.24424755715E+03  0.25837526458E+03  0.00000000000E+00 0. -1.
          1    1    1    2  502    0 -0.25341789154E+02  0.74284482566E+02 -0.33800625526E+02  0.85456848254E+02  0.00000000000E+00 0. -1.
         22    1    3    3    0    0  0.27297488288E+02  0.39997285990E+02 -0.76909116355E+02  0.90884255687E+02  0.00000000000E+00 0. -1.
         22    1    3    3    0    0  0.18271807075E+02 -0.32478613552E+02 -0.49260508461E+03  0.49401264018E+03  0.00000000000E+00 0. -1.
</event>
<event>
 7    1  0.5889087E-006  0.8930703E+02  0.7818608E-02  0.1349173E+00
          2   -1    0    0  502    0  0.00000000000E+00  0.00000000000E+00  0.45315441341E+03  0.45315441341E+03  0.00000000000E+00 0. -1.
          1   -1    0    0  501    0 -0.00000000000E+00 -0.00000000000E+00 -0.73411406594E+03  0.73411406594E+03  0.00000000000E+00 0. -1.
         25    2    1    2    0    0  0.13213797964E+03 -0.55226274836E+02  0.26256735077E+01  0.19011486219E+03  0.12500551816E+03 0.  0.
          2    1    1    2  501    0 -0.59616077507E+02  0.82558564231E+01 -0.63369146177E+03  0.63654308934E+03  0.00000000000E+00 0. -1.
          1    1    1    2  502    0 -0.72521902128E+02  0.46970418413E+02  0.35010613574E+03  0.36061052782E+03  0.00000000000E+00 0. -1.
         22    1    3    3    0    0  0.58006762568E+02  0.35394693716E+02 -0.20072835121E+02  0.70855398925E+02  0.00000000000E+00 0.  1.
         22    1    3    3    0    0  0.74131217067E+02 -0.90620968552E+02  0.22698508629E+02  0.11925946327E+03  0.00000000000E+00 0.  1.
</event>
<event>
 7    1  0.5889087E-006  0.4890497E+02  0.7818608E-02  0.1523526E+00
          2   -1    0    0  502    0  0.00000000000E+00  0.00000000000E+00  0.14608220436E+03  0.14608220436E+03  0.00000000000E+00 0. -1.
          1   -1    0    0  501    0 -0.00000000000E+00 -0.00000000000E+00 -0.76844794123E+03  0.76844794123E+03  0.00000000000E+00 0. -1.
         25    2    1    2    0    0  0.62887196327E+02 -0.27560449668E+02  0.73153184085E+02  0.16028218882E+03  0.12499845544E+03 0.  0.
          2    1    1    2  501    0 -0.34261004613E+02  0.34749292815E+02 -0.71642109381E+03  0.71808113291E+03  0.00000000000E+00 0. -1.
          1    1    1    2  502    0 -0.28626191714E+02 -0.71888431469E+01  0.20902172856E+02  0.36166823857E+02  0.00000000000E+00 0. -1.
         22    1    3    3    0    0  0.25988132627E+02 -0.55162709393E+02 -0.13211799591E+02  0.62392781581E+02  0.00000000000E+00 0.  1.
         22    1    3    3    0    0  0.36899063700E+02  0.27602259725E+02  0.86364983676E+02  0.97889407237E+02  0.00000000000E+00 0.  1.
</event>
<event>
 7    1  0.5889087E-006  0.1309159E+03  0.7818608E-02  0.1342897E+00
          2   -1    0    0  502    0  0.00000000000E+00  0.00000000000E+00  0.17675998567E+03  0.17675998567E+03  0.00000000000E+00 0. -1.
          1   -1    0    0  501    0 -0.00000000000E+00 -0.00000000000E+00 -0.14614633972E+04  0.14614633972E+04  0.00000000000E+00 0. -1.
         25    2    1    2    0    0 -0.44109713553E+02 -0.16697288194E+03 -0.69355914745E+03  0.72558583420E+03  0.12499960657E+03 0.  0.
          2    1    1    2  501    0  0.10534172365E+02  0.42028765689E+02 -0.72510685955E+03  0.72640026411E+03  0.00000000000E+00 0. -1.
          1    1    1    2  502    0  0.33575541187E+02  0.12494411625E+03  0.13396259550E+03  0.18623728452E+03  0.00000000000E+00 0. -1.
         22    1    3    3    0    0 -0.50969382433E+02 -0.16907126755E+03 -0.47264920973E+03  0.50455945826E+03  0.00000000000E+00 0.  1.
         22    1    3    3    0    0  0.68596688807E+01  0.20983856030E+01 -0.22090993771E+03  0.22102637594E+03  0.00000000000E+00 0.  1.
</event>
<event>
 7    1  0.5889087E-006  0.3832179E+03  0.7818608E-02  0.1213378E+00
          2   -1    0    0  502    0  0.00000000000E+00  0.00000000000E+00  0.98167886271E+03  0.98167886271E+03  0.00000000000E+00 0. -1.
          1   -1    0    0  501    0 -0.00000000000E+00 -0.00000000000E+00 -0.21790368110E+04  0.21790368110E+04  0.00000000000E+00 0. -1.
         25    2    1    2    0    0  0.30745226367E+03  0.29817998769E+03 -0.61166404973E+03  0.75709654383E+03  0.12499626974E+03 0.  0.
          2    1    1    2  501    0 -0.22417689148E+02 -0.45941620191E+02 -0.14543431834E+04  0.14552413135E+04  0.00000000000E+00 0. -1.
          1    1    1    2  502    0 -0.28503457452E+03 -0.25223836750E+03  0.86864928483E+03  0.94837781645E+03  0.00000000000E+00 0. -1.
         22    1    3    3    0    0  0.26843890785E+03  0.19028625275E+03 -0.41761474505E+03  0.53166754699E+03  0.00000000000E+00 0. -1.
         22    1    3    3    0    0  0.39013355823E+02  0.10789373494E+03 -0.19404930467E+03  0.22542899684E+03  0.00000000000E+00 0. -1.
</event>
<event>
 7    1  0.5999019E-006  0.7775091E+02  0.7818608E-02  0.1444684E+00
          2   -1    0    0  502    0  0.00000000000E+00  0.00000000000E+00  0.23854934063E+04  0.23854934063E+04  0.00000000000E+00 0. -1.
          1   -1    0    0  501    0 -0.00000000000E+00 -0.00000000000E+00 -0.13507317992E+04  0.13507317992E+04  0.00000000000E+00 0. -1.
         25    2    1    2    0    0 -0.61684736702E+02 -0.52670059466E+02 -0.78212880801E+03  0.79619647316E+03  0.12499683855E+03 0.  0.
          2    1    1    2  501    0  0.74796213758E+02  0.23138779674E+02 -0.55872985744E+03  0.56418873642E+03  0.00000000000E+00 0. -1.
          1    1    1    2  502    0 -0.13111477056E+02  0.29531279793E+02  0.23756202725E+04  0.23758399959E+04  0.00000000000E+00 0. -1.
         22    1    3    3    0    0 -0.19539650041E+02 -0.81420739942E+02 -0.63449483269E+03  0.63999595899E+03  0.00000000000E+00 0.  1.
         22    1    3    3    0    0 -0.42145086661E+02  0.28750680475E+02 -0.14763397532E+03  0.15620051417E+03  0.00000000000E+00 0.  1.
</event>
<event>
 7    1  0.5889087E-006  0.4769348E+02  0.7818608E-02  0.1496449E+00
          2   -1    0    0  502    0  0.00000000000E+00  0.00000000000E+00  0.62363047385E+03  0.62363047385E+03  0.00000000000E+00 0. -1.
          1   -1    0    0  501    0 -0.00000000000E+00 -0.00000000000E+00 -0.24238969366E+02  0.24238969366E+02  0.00000000000E+00 0. -1.
         25    2    1    2    0    0 -0.62115860510E+01  0.23595840002E+02  0.40429679309E+03  0.42389562317E+03  0.12504501178E+03 0.  0.
          2    1    1    2  501    0 -0.18140658538E+02  0.31513922409E+02  0.26663084006E+02  0.45090252233E+02  0.00000000000E+00 0. -1.
          1    1    1    2  502    0  0.24352244589E+02 -0.55109762411E+02  0.16843162738E+03  0.17888356781E+03  0.00000000000E+00 0. -1.
         22    1    3    3    0    0  0.42983765324E+02 -0.19080571013E+02  0.27639606624E+03  0.28036843207E+03  0.00000000000E+00 0. -1.
         22    1    3    3    0    0 -0.49195351375E+02  0.42676411016E+02  0.12790072686E+03  0.14352719110E+03  0.00000000000E+00 0. -1.
</event>
<event>
 7    1  0.5889087E-006  0.7422104E+02  0.7818608E-02  0.1454832E+00
          2   -1    0    0  502    0  0.00000000000E+00  0.00000000000E+00  0.14545126182E+03  0.14545126182E+03  0.00000000000E+00 0. -1.
          1   -1    0    0  501    0 -0.00000000000E+00 -0.00000000000E+00 -0.37481895394E+03  0.37481895394E+03  0.00000000000E+00 0. -1.
         25    2    1    2    0    0 -0.53829760847E+02 -0.34629242295E+02 -0.21585207681E+03  0.25752079782E+03  0.12501205810E+03 0.  0.
          2    1    1    2  501    0  0.80067989356E+02  0.17364622780E+02 -0.12359099755E+03  0.14828063838E+03  0.00000000000E+00 0. -1.
          1    1    1    2  502    0 -0.26238228509E+02  0.17264619515E+02  0.11007538223E+03  0.11446877957E+03  0.00000000000E+00 0. -1.
         22    1    3    3    0    0 -0.69773415560E+02 -0.44743083163E+02 -0.22255217121E+03  0.23748629838E+03  0.00000000000E+00 0. -1.
         22    1    3    3    0    0  0.15943654712E+02  0.10113840868E+02  0.67000943978E+01  0.20034499435E+02  0.00000000000E+00 0. -1.
</event>
<event>
 7    1  0.5889087E-006  0.9879502E+02  0.7818608E-02  0.1358081E+00
          2   -1    0    0  502    0  0.00000000000E+00  0.00000000000E+00  0.21593677348E+03  0.21593677348E+03  0.00000000000E+00 0. -1.
          1   -1    0    0  501    0 -0.00000000000E+00 -0.00000000000E+00 -0.44468445855E+03  0.44468445855E+03  0.00000000000E+00 0. -1.
         25    2    1    2    0    0 -0.34950836428E+02 -0.13429118099E+03 -0.75401166699E+02  0.20140887525E+03  0.12499806731E+03 0.  0.
          2    1    1    2  501    0  0.42342849864E+02  0.84391248042E+02 -0.29452669142E+03  0.30929075583E+03  0.00000000000E+00 0. -1.
          1    1    1    2  502    0 -0.73920134367E+01  0.49899932953E+02  0.14118017305E+03  0.14992160096E+03  0.00000000000E+00 0. -1.
         22    1    3    3    0    0 -0.22817758524E+02 -0.60915444053E+02  0.30626461543E+02  0.71897994234E+02  0.00000000000E+00 0.  1.
         22    1    3    3    0    0 -0.12133077904E+02 -0.73375736942E+02 -0.10602762824E+03  0.12951088102E+03  0.00000000000E+00 0.  1.
</event>
<event>
 7    1  0.5889087E-006  0.8332399E+02  0.7818608E-02  0.1381255E+00
          2   -1    0    0  502    0  0.00000000000E+00  0.00000000000E+00  0.27784941658E+04  0.27784941658E+04  0.00000000000E+00 0. -1.
          1   -1    0    0  501    0 -0.00000000000E+00 -0.00000000000E+00 -0.41323242755E+03  0.41323242755E+03  0.00000000000E+00 0. -1.
         25    2    1    2    0    0  0.61036095358E+02 -0.10328610537E+03  0.10676008250E+03  0.20350816055E+03  0.12499772677E+03 0.  0.
          2    1    1    2  501    0  0.19163527045E+01  0.49327848601E+02 -0.36253007746E+03  0.36587561564E+03  0.00000000000E+00 0. -1.
          1    1    1    2  502    0 -0.62952448062E+02  0.53958256766E+02  0.26210317332E+04  0.26223428172E+04  0.00000000000E+00 0. -1.
         22    1    3    3    0    0  0.62081082827E+02 -0.95971541084E+02  0.13351138747E+03  0.17575519374E+03  0.00000000000E+00 0.  1.
         22    1    3    3    0    0 -0.10449874698E+01 -0.73145642829E+01 -0.26751304966E+02  0.27752966811E+02  0.00000000000E+00 0.  1.
</event>
<event>
 7    1  0.5889087E-006  0.1791139E+03  0.7818608E-02  0.1308911E+00
          2   -1    0    0  502    0  0.00000000000E+00  0.00000000000E+00  0.69788601534E+03  0.69788601534E+03  0.00000000000E+00 0. -1.
          1   -1    0    0  501    0 -0.00000000000E+00 -0.00000000000E+00 -0.40455559717E+03  0.40455559717E+03  0.00000000000E+00 0. -1.
         25    2    1    2    0    0 -0.96367262713E+02 -0.12922256244E+03 -0.15030490593E+03  0.25337793641E+03  0.12499477568E+03 0.  0.
          2    1    1    2  501    0  0.13773005111E+03  0.14017403540E+03 -0.15414256285E+03  0.24975639503E+03  0.00000000000E+00 0. -1.
          1    1    1    2  502    0 -0.41362788393E+02 -0.10951472961E+02  0.59777788694E+03  0.59930728107E+03  0.00000000000E+00 0. -1.
         22    1    3    3    0    0 -0.73801136836E+02 -0.12259236577E+03 -0.17035076174E+03  0.22247444340E+03  0.00000000000E+00 0.  1.
         22    1    3    3    0    0 -0.22566125877E+02 -0.66301966706E+01  0.20045855809E+02  0.30903493008E+02  0.00000000000E+00 0.  1.
</event>
<event>
 7    1  0.5889087E-006  0.1078090E+03  0.7818608E-02  0.1323361E+00
          2   -1    0    0  502    0  0.00000000000E+00  0.00000000000E+00  0.11160788507E+04  0.11160788507E+04  0.00000000000E+00 0. -1.
          1   -1    0    0  501    0 -0.00000000000E+00 -0.00000000000E+00 -0.14378259768E+04  0.14378259768E+04  0.00000000000E+00 0. -1.
         25    2    1    2    0    0  0.88636378487E+02  0.14460564557E+03  0.16733024466E+03  0.26905803928E+03  0.12500246957E+03 0.  0.
          2    1    1    2  501    0 -0.54462493004E+02 -0.92359896851E+02 -0.13838005117E+04  0.13879482591E+04  0.00000000000E+00 0. -1.
          1    1    1    2  502    0 -0.34173885482E+02 -0.52245748720E+02  0.89472314093E+03  0.89689852917E+03  0.00000000000E+00 0. -1.
         22    1    3    3    0    0 -0.29673144997E+02  0.40345440785E+02  0.22337801824E+02  0.54838193957E+02  0.00000000000E+00 0. -1.
         22    1    3    3    0    0  0.11830952348E+03  0.10426020479E+03  0.14499244284E+03  0.21421984532E+03  0.00000000000E+00 0. -1.
</event>
<event>
 7    1  0.5889087E-006  0.1906526E+03  0.7818608E-02  0.1323261E+00
          2   -1    0    0  502    0  0.00000000000E+00  0.00000000000E+00  0.15646542533E+03  0.15646542533E+03  0.00000000000E+00 0. -1.
          1   -1    0    0  501    0 -0.00000000000E+00 -0.00000000000E+00 -0.27626230891E+04  0.27626230891E+04  0.00000000000E+00 0. -1.
         25    2    1    2    0    0 -0.15137120273E+03 -0.10706015251E+03 -0.15574271640E+03  0.27249861002E+03  0.12499832591E+03 0.  0.
          2    1    1    2  501    0  0.13304047404E+03  0.13726725160E+03 -0.25416101803E+04  0.25487888055E+04  0.00000000000E+00 0. -1.
          1    1    1    2  502    0  0.18330728692E+02 -0.30207099090E+02  0.91195232934E+02  0.97801098970E+02  0.00000000000E+00 0. -1.
         22    1    3    3    0    0 -0.35937180260E+02 -0.62450370787E+02 -0.12611668019E+03  0.14524788040E+03  0.00000000000E+00 0. -1.
         22    1    3    3    0    0 -0.11543402247E+03 -0.44609781724E+02 -0.29626036210E+02  0.12725072963E+03  0.00000000000E+00 0. -1.
</event>
<event>
 7    1  0.5889087E-006  0.6908308E+02  0.7818608E-02  0.1502015E+00
          2   -1    0    0  502    0  0.00000000000E+00  0.00000000000E+00  0.60825843786E+03  0.60825843786E+03  0.00000000000E+00 0. -1.
          1   -1    0    0  501    0 -0.00000000000E+00 -0.00000000000E+00 -0.35495431466E+02  0.35495431466E+02  0.00000000000E+00 0. -1.
         25    2    1    2    0    0 -0.60366948722E+02  0.66820916153E+02  0.47116860477E+03  0.49571439408E+03  0.12499481206E+03 0.  0.
          2    1    1    2  501    0  0.48897141046E+02 -0.45556189273E+02  0.31469299718E+02  0.73868894728E+02  0.00000000000E+00 0. -1.
          1    1    1    2  502    0  0.11469807676E+02 -0.21264726879E+02  0.70125101912E+02  0.74170580526E+02  0.00000000000E+00 0. -1.
         22    1    3    3    0    0  0.15647849915E+02  0.64718605837E+02  0.31569400003E+03  0.32263920221E+03  0.00000000000E+00 0. -1.
         22    1    3    3    0    0 -0.76014798637E+02  0.21023103151E+01  0.15547460474E+03  0.17307519186E+03  0.00000000000E+00 0. -1.
</event>
<event>
 7    1  0.5889087E-006  0.5203512E+02  0.7818608E-02  0.1543758E+00
          2   -1    0    0  502    0  0.00000000000E+00  0.00000000000E+00  0.23988557334E+04  0.23988557334E+04  0.00000000000E+00 0. -1.
          1   -1    0    0  501    0 -0.00000000000E+00 -0.00000000000E+00 -0.10179026865E+03  0.10179026865E+03  0.00000000000E+00 0. -1.
         25    2    1    2    0    0 -0.54866802248E+02  0.49667090130E+02  0.36064124654E+03  0.38879919701E+03  0.12500208423E+03 0.  0.
          2    1    1    2  501    0  0.22238456535E+02 -0.97685303226E+01 -0.85695019955E+02  0.89070812159E+02  0.00000000000E+00 0. -1.
          1    1    1    2  502    0  0.32628345714E+02 -0.39898559808E+02  0.20221192382E+04  0.20227759929E+04  0.00000000000E+00 0. -1.
         22    1    3    3    0    0  0.21969211498E+02  0.27914670947E+02  0.24131753239E+02  0.42944343310E+02  0.00000000000E+00 0. -1.
         22    1    3    3    0    0 -0.76836013746E+02  0.21752419183E+02  0.33650949330E+03  0.34585485370E+03  0.00000000000E+00 0. -1.
</event>
<event>
 7    1  0.5889087E-006  0.7464927E+02  0.7818608E-02  0.1404125E+00
          2   -1    0    0  502    0  0.00000000000E+00  0.00000000000E+00  0.34730919156E+04  0.34730919156E+04  0.00000000000E+00 0. -1.
          1   -1    0    0  501    0 -0.00000000000E+00 -0.00000000000E+00 -0.99448647134E+01  0.99448647134E+01  0.00000000000E+00 0. -1.
         25    2    1    2    0    0  0.86650566993E+02 -0.43685698755E+02  0.21298495476E+04  0.21357202103E+04  0.12499984099E+03 0.  0.
          2    1    1    2  501    0 -0.44416264054E+02 -0.11514699206E+02  0.81013213428E+02  0.93104959912E+02  0.00000000000E+00 0. -1.
          1    1    1    2  502    0 -0.42234302939E+02  0.55200397961E+02  0.12522842898E+04  0.12542116101E+04  0.00000000000E+00 0. -1.
         22    1    3    3    0    0 -0.72485701506E+01  0.14670138495E+02  0.10690569654E+04  0.10691821874E+04  0.00000000000E+00 0.  1.
         22    1    3    3    0    0  0.93899137144E+02 -0.58355837250E+02  0.10607925823E+04  0.10665380229E+04  0.00000000000E+00 0.  1.
</event>
<event>
 7    1  0.5889087E-006  0.1475178E+03  0.7818608E-02  0.1262843E+00
          2   -1    0    0  502    0  0.00000000000E+00  0.00000000000E+00  0.44066122070E+03  0.44066122070E+03  0.00000000000E+00 0. -1.
          1   -1    0    0  501    0 -0.00000000000E+00 -0.00000000000E+00 -0.90708213288E+03  0.90708213288E+03  0.00000000000E+00 0. -1.
         25    2    1    2    0    0  0.99782808601E+02 -0.46491984591E+02  0.85652576065E+01  0.16677156541E+03  0.12498511059E+03 0.  0.
          2    1    1    2  501    0 -0.85326361845E+02  0.12539596375E+03 -0.81634436391E+03  0.83031491389E+03  0.00000000000E+00 0. -1.
          1    1    1    2  502    0 -0.14456446756E+02 -0.78903979163E+02  0.34135819412E+03  0.35065687427E+03  0.00000000000E+00 0. -1.
         22    1    3    3    0    0  0.42675090030E+02 -0.47559928505E+02 -0.52833922982E+02  0.82912806768E+02  0.00000000000E+00 0.  1.
         22    1    3    3    0    0  0.57107718572E+02  0.10679439142E+01  0.61399180589E+02  0.83858758646E+02  0.00000000000E+00 0.  1.
</event>
<event>
 7    1  0.5889087E-006  0.1047933E+03  0.7818608E-02  0.1360185E+00
          2   -1    0    0  502    0  0.00000000000E+00  0.00000000000E+00  0.79537140844E+02  0.79537140844E+02  0.00000000000E+00 0. -1.
          1   -1    0    0  501    0 -0.00000000000E+00 -0.00000000000E+00 -0.15521661015E+04  0.15521661015E+04  0.00000000000E+00 0. -1.
         25    2    1    2    0    0 -0.93711288773E+02  0.75484650878E+02 -0.42542723150E+03  0.45944714720E+03  0.12499445433E+03 0.  0.
          2    1    1    2  501    0  0.99524752096E+02 -0.29124941297E+02 -0.10982032856E+04  0.11030883441E+04  0.00000000000E+00 0. -1.
          1    1    1    2  502    0 -0.58134633231E+01 -0.46359709581E+02  0.51001556400E+02  0.69167751036E+02  0.00000000000E+00 0. -1.
         22    1    3    3    0    0 -0.36427715893E+02  0.22361396563E+02 -0.21149082190E+02  0.47689560900E+02  0.00000000000E+00 0. -1.
         22    1    3    3    0    0 -0.57283572881E+02  0.53123254316E+02 -0.40427814930E+03  0.41175758630E+03  0.00000000000E+00 0. -1.
</event>
<event>
 7    1  0.5889087E-006  0.6378330E+02  0.7818608E-02  0.1434947E+00
          2   -1    0    0  502    0  0.00000000000E+00  0.00000000000E+00  0.85378781416E+03  0.85378781416E+03  0.00000000000E+00 0. -1.
          1   -1    0    0  501    0 -0.00000000000E+00 -0.00000000000E+00 -0.83792351726E+03  0.83792351726E+03  0.00000000000E+00 0. -1.
         25    2    1    2    0    0  0.24678753872E+01 -0.49794375943E+02 -0.16438714612E+03  0.21245122749E+03  0.12500727967E+03 0.  0.
          2    1    1    2  501    0 -0.44782577117E+02  0.47825410273E+02 -0.64730890991E+03  0.65061630316E+03  0.00000000000E+00 0. -1.
          1    1    1    2  502    0  0.42314701730E+02  0.19689656694E+01  0.82756035293E+03  0.82864380076E+03  0.00000000000E+00 0. -1.
         22    1    3    3    0    0 -0.56953433705E+01 -0.75932245435E+02 -0.41842857495E+02  0.86884794736E+02  0.00000000000E+00 0.  1.
         22    1    3    3    0    0  0.81632187577E+01  0.26137869492E+02 -0.12254428862E+03  0.12556643276E+03  0.00000000000E+00 0.  1.
</event>
<event>
 7    1  0.5889087E-006  0.1060318E+03  0.7818608E-02  0.1320375E+00
          2   -1    0    0  502    0  0.00000000000E+00  0.00000000000E+00  0.12357357511E+04  0.12357357511E+04  0.00000000000E+00 0. -1.
          1   -1    0    0  501    0 -0.00000000000E+00 -0.00000000000E+00 -0.14105631508E+03  0.14105631508E+03  0.00000000000E+00 0. -1.
         25    2    1    2    0    0  0.13222484882E+03  0.10188313948E+03  0.14735993167E+03  0.25534836156E+03  0.12499700611E+03 0.  0.
          2    1    1    2  501    0 -0.44519283567E+02 -0.47617509229E+02 -0.71881401054E+02  0.97037774151E+02  0.00000000000E+00 0. -1.
          1    1    1    2  502    0 -0.87705565253E+02 -0.54265630246E+02  0.10192009054E+04  0.10244059305E+04  0.00000000000E+00 0. -1.
         22    1    3    3    0    0  0.13901887102E+03  0.91458096778E+02  0.76048784080E+02  0.18295968825E+03  0.00000000000E+00 0. -1.
         22    1    3    3    0    0 -0.67940221992E+01  0.10425042697E+02  0.71311147591E+02  0.72388673310E+02  0.00000000000E+00 0. -1.
</event>
<event>
 7    1  0.5889087E-006  0.1582851E+03  0.7818608E-02  0.1278375E+00
          2   -1    0    0  502    0  0.00000000000E+00  0.00000000000E+00  0.32544277280E+04  0.32544277280E+04  0.00000000000E+00 0. -1.
          1   -1    0    0  501    0 -0.00000000000E+00 -0.00000000000E+00 -0.37952240027E+03  0.37952240027E+03  0.00000000000E+00 0. -1.
         25    2    1    2    0    0 -0.72738100049E+02  0.20331181833E+03  0.12507200302E+02  0.24981589057E+03  0.12500008980E+03 0.  0.
          2    1    1    2  501    0 -0.10650199083E+01 -0.64334960524E+02 -0.25488544308E+03  0.26288155223E+03  0.00000000000E+00 0. -1.
          1    1    1    2  502    0  0.73803119957E+02 -0.13897685781E+03  0.31172835705E+04  0.31212526855E+04  0.00000000000E+00 0. -1.
         22    1    3    3    0    0 -0.10151524046E+03  0.11706588236E+03  0.28357745967E+02  0.15752436831E+03  0.00000000000E+00 0.  1.
         22    1    3    3    0    0  0.28777140407E+02  0.86245935980E+02 -0.15850545665E+02  0.92291522259E+02  0.00000000000E+00 0.  1.
</event>
<event>
 7    1  0.5889087E-006  0.1907174E+03  0.7818608E-02  0.1247131E+00
          2   -1    0    0  502    0  0.00000000000E+00  0.00000000000E+00  0.29902788929E+03  0.29902788929E+03  0.00000000000E+00 0. -1.
          1   -1    0    0  501    0 -0.00000000000E+00 -0.00000000000E+00 -0.75396769393E+03  0.75396769393E+03  0.00000000000E+00 0. -1.
         25    2    1    2    0    0  0.18796403458E+03 -0.10803990849E+03 -0.12183691454E+03  0.27833527834E+03  0.12499277301E+03 0.  0.
          2    1    1    2  501    0 -0.12337004474E+03  0.14095943640E+03 -0.53144031437E+03  0.56348783340E+03  0.00000000000E+00 0. -1.
          1    1    1    2  502    0 -0.64593989830E+02 -0.32919527914E+02  0.19833742427E+03  0.21117247147E+03  0.00000000000E+00 0. -1.
         22    1    3    3    0    0  0.20149287641E+03 -0.79904148365E+02 -0.93109217508E+02  0.23590968305E+03  0.00000000000E+00 0. -1.
         22    1    3    3    0    0 -0.13528841837E+02 -0.28135760123E+02 -0.28727697037E+02  0.42425595296E+02  0.00000000000E+00 0. -1.
</event>
<event>
 7    1  0.5889087E-006  0.6588009E+02  0.7818608E-02  0.1395476E+00
          2   -1    0    0  502    0  0.00000000000E+00  0.00000000000E+00  0.10358932084E+04  0.10358932084E+04  0.00000000000E+00 0. -1.
          1   -1    0    0  501    0 -0.00000000000E+00 -0.00000000000E+00 -0.46231673240E+03  0.46231673240E+03  0.00000000000E+00 0. -1.
         25    2    1    2    0    0  0.70545830330E+02 -0.16119973045E+02  0.12129625269E+03  0.18861305389E+03  0.12500214188E+03 0.  0.
          2    1    1    2  501    0 -0.33063779038E+02  0.57293199653E+02 -0.42521873542E+03  0.43033323967E+03  0.00000000000E+00 0. -1.
          1    1    1    2  502    0 -0.37482051291E+02 -0.41173226608E+02  0.87749895872E+03  0.87926364721E+03  0.00000000000E+00 0. -1.
         22    1    3    3    0    0  0.36124970309E+02  0.55802606678E+01 -0.19935685382E+02  0.41636334380E+02  0.00000000000E+00 0.  1.
         22    1    3    3    0    0  0.34420860020E+02 -0.21700233713E+02  0.14123193807E+03  0.14697671951E+03  0.00000000000E+00 0.  1.
</event>
<event>
 7    1  0.5889087E-006  0.1203630E+03  0.7818608E-02  0.1334640E+00
          2   -1    0    0  502    0  0.00000000000E+00  0.00000000000E+00  0.10528743968E+04  0.10528743968E+04  0.00000000000E+00 0. -1.
          1   -1    0    0  501    0 -0.00000000000E+00 -0.00000000000E+00 -0.13598622162E+03  0.13598622162E+03  0.00000000000E+00 0. -1.
         25    2    1    2    0    0  0.25970835210E+02  0.10925662513E+03  0.23310483720E+03  0.28735492230E+03  0.12499396715E+03 0.  0.
          2    1    1    2  501    0  0.23420359503E+02 -0.12038308431E+03 -0.73204399545E+02  0.14282676339E+03  0.00000000000E+00 0. -1.
          1    1    1    2  502    0 -0.49391194713E+02  0.11126459184E+02  0.75698773750E+03  0.75867893271E+03  0.00000000000E+00 0. -1.
         22    1    3    3    0    0  0.17630533150E+02  0.63264119909E+02  0.23144530900E+03  0.24058286644E+03  0.00000000000E+00 0.  1.
         22    1    3    3    0    0  0.83403020602E+01  0.45992505220E+02  0.16595282003E+01  0.46772055853E+02  0.00000000000E+00 0.  1.
</event>
<event>
 7    1  0.5889087E-006  0.7275708E+02  0.7818608E-02  0.1355755E+00
          2   -1    0    0  502    0  0.00000000000E+00  0.00000000000E+00  0.10789753150E+03  0.10789753150E+03  0.00000000000E+00 0. -1.
          1   -1    0    0  501    0 -0.00000000000E+00 -0.00000000000E+00 -0.84363618133E+03  0.84363618133E+03  0.00000000000E+00 0. -1.
         25    2    1    2    0    0  0.69567393656E+02  0.53128895652E+02 -0.31271076143E+03  0.34795841234E+03  0.12499893837E+03 0.  0.
          2    1    1    2  501    0 -0.66838737130E+02  0.20307518921E+02 -0.49547882265E+03  0.50037893221E+03  0.00000000000E+00 0. -1.
          1    1    1    2  502    0 -0.27286565262E+01 -0.73436414572E+02  0.72450934254E+02  0.10319636828E+03  0.00000000000E+00 0. -1.
         22    1    3    3    0    0  0.26100319760E+02  0.73014355747E+02 -0.27872172859E+03  0.28930628203E+03  0.00000000000E+00 0.  1.
         22    1    3    3    0    0  0.43467073896E+02 -0.19885460096E+02 -0.33989032842E+02  0.58652130309E+02  0.00000000000E+00 0.  1.
</event>
<event>
 7    1  0.5889087E-006  0.1145218E+03  0.7818608E-02  0.1339244E+00
          2   -1    0    0  502    0  0.00000000000E+00  0.00000000000E+00  0.13161048249E+04  0.13161048249E+04  0.00000000000E+00 0. -1.
          1   -1    0    0  501    0 -0.00000000000E+00 -0.00000000000E+00 -0.88729877743E+03  0.88729877743E+03  0.00000000000E+00 0. -1.
         25    2    1    2    0    0 -0.15048696754E+02  0.82736168639E+02  0.59258463914E+03  0.61143571350E+03  0.12500136132E+03 0.  0.
          2    1    1    2  501    0 -0.79427173147E+01  0.50500471926E+02 -0.87071688079E+03  0.87221629824E+03  0.00000000000E+00 0. -1.
          1    1    1    2  502    0  0.22991414068E+02 -0.13323664056E+03  0.70693828914E+03  0.71975159059E+03  0.00000000000E+00 0. -1.
         22    1    3    3    0    0  0.20162331407E+02  0.10577219137E+03  0.45460112277E+03  0.46717925564E+03  0.00000000000E+00 0. -1.
         22    1    3    3    0    0 -0.35211028161E+02 -0.23036022728E+02  0.13798351637E+03  0.14425645787E+03  0.00000000000E+00 0. -1.
</event>
<event>
 7    1  0.5889087E-006  0.1118771E+03  0.7818608E-02  0.1277501E+00
          2   -1    0    0  502    0  0.00000000000E+00  0.00000000000E+00  0.19141118239E+04  0.19141118239E+04  0.00000000000E+00 0. -1.
          1   -1    0    0  501    0 -0.00000000000E+00 -0.00000000000E+00 -0.38731858077E+02  0.38731858077E+02  0.00000000000E+00 0. -1.
         25    2    1    2    0    0 -0.81307593146E+02  0.31731150221E+02  0.26148066729E+03  0.30267924811E+03  0.12499918910E+03 0.  0.
          2    1    1    2  501    0  0.44404171907E+02  0.80343106749E+02  0.11743771551E+03  0.14905825140E+03  0.00000000000E+00 0. -1.
          1    1    1    2  502    0  0.36903421239E+02 -0.11207425697E+03  0.14964615831E+04  0.15011061825E+04  0.00000000000E+00 0. -1.
         22    1    3    3    0    0 -0.62717966035E+02  0.28724745372E+02  0.27234035331E+03  0.28094113672E+03  0.00000000000E+00 0. -1.
         22    1    3    3    0    0 -0.18589627110E+02  0.30064048490E+01 -0.10859686027E+02  0.21738111390E+02  0.00000000000E+00 0. -1.
</event>
<event>
 7    1  0.5889087E-006  0.3513805E+02  0.7818608E-02  0.1584643E+00
          2   -1    0    0  502    0  0.00000000000E+00  0.00000000000E+00  0.14310024772E+03  0.14310024772E+03  0.00000000000E+00 0. -1.
          1   -1    0    0  501    0 -0.00000000000E+00 -0.00000000000E+00 -0.57151672418E+03  0.57151672418E+03  0.00000000000E+00 0. -1.
         25    2    1    2    0    0 -0.22287382143E+02 -0.57138488206E+02  0.67269644627E+01  0.13939826738E+03  0.12500036264E+03 0.  0.
          2    1    1    2  501    0  0.96123581409E+01  0.26081623910E+02 -0.50075704446E+03  0.50152793154E+03  0.00000000000E+00 0. -1.
          1    1    1    2  502    0  0.12675024002E+02  0.31056864296E+02  0.65613603541E+02  0.73690772984E+02  0.00000000000E+00 0. -1.
         22    1    3    3    0    0 -0.44473056949E+02 -0.66301163756E+02 -0.38167457391E+02  0.88489840736E+02  0.00000000000E+00 0.  1.
         22    1    3    3    0    0  0.22185674806E+02  0.91626755500E+01  0.44894421853E+02  0.50908426644E+02  0.00000000000E+00 0.  1.
</event>
<event>
 7    1  0.5889087E-006  0.1035782E+03  0.7818608E-02  0.1464205E+00
          2   -1    0    0  502    0  0.00000000000E+00  0.00000000000E+00  0.11625490132E+04  0.11625490132E+04  0.00000000000E+00 0. -1.
          1   -1    0    0  501    0 -0.00000000000E+00 -0.00000000000E+00 -0.11188836359E+04  0.11188836359E+04  0.00000000000E+00 0. -1.
         25    2    1    2    0    0  0.59569387185E+02 -0.75935598303E+02  0.86000041517E+03  0.87437999756E+03  0.12499975619E+03 0.  0.
          2    1    1    2  501    0 -0.78748379530E+02  0.67322416498E+02 -0.11089020054E+04  0.11137312389E+04  0.00000000000E+00 0. -1.
          1    1    1    2  502    0  0.19178992345E+02  0.86131818047E+01  0.29256696749E+03  0.29332141264E+03  0.00000000000E+00 0. -1.
         22    1    3    3    0    0 -0.18652972702E+01  0.24982397114E+02  0.34905337655E+03  0.34995122401E+03  0.00000000000E+00 0. -1.
         22    1    3    3    0    0  0.61434684455E+02 -0.10091799542E+03  0.51094703862E+03  0.52442877355E+03  0.00000000000E+00 0. -1.
</event>
<event>
 7    1  0.5889087E-006  0.2115394E+03  0.7818608E-02  0.1204971E+00
          2   -1    0    0  502    0  0.00000000000E+00  0.00000000000E+00  0.60704501566E+03  0.60704501566E+03  0.00000000000E+00 0. -1.
          1   -1    0    0  501    0 -0.00000000000E+00 -0.00000000000E+00 -0.46709303842E+03  0.46709303842E+03  0.00000000000E+00 0. -1.
         25    2    1    2    0    0 -0.18725880202E+03  0.15479183247E+03  0.77899861521E+02  0.28412930631E+03  0.12503880975E+03 0.  0.
          2    1    1    2  501    0  0.96103797913E+02  0.32076114407E+02 -0.33056208177E+03  0.34573994128E+03  0.00000000000E+00 0. -1.
          1    1    1    2  502    0  0.91155004104E+02 -0.18686794688E+03  0.39261419750E+03  0.44426880649E+03  0.00000000000E+00 0. -1.
         22    1    3    3    0    0 -0.16334396257E+03  0.17420411436E+03  0.83180444970E+02  0.25287805360E+03  0.00000000000E+00 0. -1.
         22    1    3    3    0    0 -0.23914839449E+02 -0.19412281890E+02 -0.52805834492E+01  0.31251252705E+02  0.00000000000E+00 0. -1.
</event>
<event>
 7    1  0.5889087E-006  0.7068870E+02  0.7818608E-02  0.1391589E+00
          2   -1    0    0  502    0  0.00000000000E+00  0.00000000000E+00  0.71881466207E+03  0.71881466207E+03  0.00000000000E+00 0. -1.
          1   -1    0    0  501    0 -0.00000000000E+00 -0.00000000000E+00 -0.69839726420E+02  0.69839726420E+02  0.00000000000E+00 0. -1.
         25    2    1    2    0    0  0.90152295467E+01 -0.31567411789E+02  0.88916411325E+02  0.15687202593E+03  0.12499971386E+03 0.  0.
          2    1    1    2  501    0 -0.40107971239E+02 -0.35449542790E+02 -0.12095582418E+02  0.54878252113E+02  0.00000000000E+00 0. -1.
          1    1    1    2  502    0  0.31092741692E+02  0.67016954579E+02  0.57215410674E+03  0.57690411045E+03  0.00000000000E+00 0. -1.
         22    1    3    3    0    0  0.44586949533E+02 -0.38487159705E+02 -0.20676586450E+01  0.58936684188E+02  0.00000000000E+00 0.  1.
         22    1    3    3    0    0 -0.35571719986E+02  0.69197479158E+01  0.90984069970E+02  0.97935341743E+02  0.00000000000E+00 0.  1.
</event>
<event>
 7    1  0.5889087E-006  0.1907911E+03  0.7818608E-02  0.1306795E+00
          2   -1    0    0  502    0  0.00000000000E+00  0.00000000000E+00  0.16939733094E+04  0.16939733094E+04  0.00000000000E+00 0. -1.
          1   -1    0    0  501    0 -0.00000000000E+00 -0.00000000000E+00 -0.78886213906E+03  0.78886213906E+03  0.00000000000E+00 0. -1.
         25    2    1    2    0    0  0.15670793537E+03 -0.20793842352E+02 -0.34184581911E+03  0.39682790844E+03  0.12499625588E+03 0.  0.
          2    1    1    2  501    0  0.27674227969E+02 -0.30184282377E+02 -0.41301942238E+03  0.41504457238E+03  0.00000000000E+00 0. -1.
          1    1    1    2  502    0 -0.18438216334E+03  0.50978124729E+02  0.16599764119E+04  0.16709629677E+04  0.00000000000E+00 0. -1.
         22    1    3    3    0    0  0.13555863892E+03  0.24770600205E+02 -0.30450821770E+03  0.33423791208E+03  0.00000000000E+00 0. -1.
         22    1    3    3    0    0  0.21149296452E+02 -0.45564442557E+02 -0.37337601407E+02  0.62589996363E+02  0.00000000000E+00 0. -1.
</event>
<event>
 7    1  0.5889087E-006  0.1363755E+03  0.7818608E-02  0.1263599E+00
          2   -1    0    0  502    0  0.00000000000E+00  0.00000000000E+00  0.10501567450E+04  0.10501567450E+04  0.00000000000E+00 0. -1.
          1   -1    0    0  501    0 -0.00000000000E+00 -0.00000000000E+00 -0.13222047804E+03  0.13222047804E+03  0.00000000000E+00 0. -1.
         25    2    1    2    0    0  0.38742086101E+01  0.19025901288E+03  0.32248227075E+03  0.39475709590E+03  0.12499939336E+03 0.  0.
          2    1    1    2  501    0 -0.53321847793E+02 -0.11973474247E+03 -0.47131697259E+02  0.13928756188E+03  0.00000000000E+00 0. -1.
          1    1    1    2  502    0  0.49447639183E+02 -0.70524270403E+02  0.64258569342E+03  0.64833256522E+03  0.00000000000E+00 0. -1.
         22    1    3    3    0    0 -0.22300087023E+02  0.44007015930E+02  0.12326810383E+02  0.50851367597E+02  0.00000000000E+00 0. -1.
         22    1    3    3    0    0  0.26174295633E+02  0.14625199695E+03  0.31015546037E+03  0.34390572830E+03  0.00000000000E+00 0. -1.
</event>
<event>
 7    1  0.5889087E-006  0.1349612E+03  0.7818608E-02  0.1313551E+00
          2   -1    0    0  502    0  0.00000000000E+00  0.00000000000E+00  0.48824566932E+03  0.48824566932E+03  0.00000000000E+00 0. -1.
          1   -1    0    0  501    0 -0.00000000000E+00 -0.00000000000E+00 -0.25445383750E+04  0.25445383750E+04  0.00000000000E+00 0. -1.
         25    2    1    2    0    0 -0.20035972757E+02  0.87322686072E+02 -0.30578180022E+03  0.34227504423E+03  0.12499201917E+03 0.  0.
          2    1    1    2  501    0  0.79802281830E+01 -0.14042062049E+03 -0.22166967106E+04  0.22211541913E+04  0.00000000000E+00 0. -1.
          1    1    1    2  502    0  0.12055744574E+02  0.53097934417E+02  0.46618580514E+03  0.46935480879E+03  0.00000000000E+00 0. -1.
         22    1    3    3    0    0  0.11610036598E+02  0.85029139772E+00 -0.20664071118E+03  0.20696835377E+03  0.00000000000E+00 0. -1.
         22    1    3    3    0    0 -0.31646009355E+02  0.86472394675E+02 -0.99141089032E+02  0.13530669046E+03  0.00000000000E+00 0. -1.
</event>
<event>
 7    1  0.5889087E-006  0.3020497E+03  0.7818608E-02  0.1230149E+00
          2   -1    0    0  502    0  0.00000000000E+00  0.00000000000E+00  0.15337770953E+04  0.15337770953E+04  0.00000000000E+00 0. -1.
          1   -1    0    0  501    0 -0.00000000000E+00 -0.00000000000E+00 -0.38928827602E+03  0.38928827602E+03  0.00000000000E+00 0. -1.
         25    2    1    2    0    0 -0.11161345534E+03 -0.28161990777E+03 -0.44125195367E+02  0.33066690852E+03  0.12500494253E+03 0.  0.
          2    1    1    2  501    0 -0.48323269983E+02  0.25013680124E+02 -0.18141494006E+03  0.18939958578E+03  0.00000000000E+00 0. -1.
          1    1    1    2  502    0  0.15993672532E+03  0.25660622765E+03  0.13700289547E+04  0.14029988770E+04  0.00000000000E+00 0. -1.
         22    1    3    3    0    0 -0.13211671685E+03 -0.17695242044E+03 -0.35426057153E+02  0.22365596682E+03  0.00000000000E+00 0. -1.
         22    1    3    3    0    0  0.20503261507E+02 -0.10466748733E+03 -0.86991382134E+01  0.10701094170E+03  0.00000000000E+00 0. -1.
</event>
<event>
 7    1  0.5889087E-006  0.1008669E+03  0.7818608E-02  0.1343385E+00
          2   -1    0    0  502    0  0.00000000000E+00  0.00000000000E+00  0.61316927441E+03  0.61316927441E+03  0.00000000000E+00 0. -1.
          1   -1    0    0  501    0 -0.00000000000E+00 -0.00000000000E+00 -0.85793766939E+02  0.85793766939E+02  0.00000000000E+00 0. -1.
         25    2    1    2    0    0 -0.52481982741E+02 -0.30245266421E+02  0.16925142111E+03  0.21894350117E+03  0.12498431304E+03 0.  0.
          2    1    1    2  501    0  0.80208760176E+02  0.78899964686E+02 -0.49815620554E+01  0.11262089325E+03  0.00000000000E+00 0. -1.
          1    1    1    2  502    0 -0.27726777435E+02 -0.48654698264E+02  0.36310564841E+03  0.36739864692E+03  0.00000000000E+00 0. -1.
         22    1    3    3    0    0 -0.39560432359E+02  0.27044642127E+02  0.14948330731E+03  0.15697674873E+03  0.00000000000E+00 0.  1.
         22    1    3    3    0    0 -0.12921550381E+02 -0.57289908548E+02  0.19768113802E+02  0.61966752449E+02  0.00000000000E+00 0.  1.
</event>
<event>
 7    1  0.5889087E-006  0.2635813E+03  0.7818608E-02  0.1221592E+00
          2   -1    0    0  502    0  0.00000000000E+00  0.00000000000E+00  0.13187231317E+04  0.13187231317E+04  0.00000000000E+00 0. -1.
          1   -1    0    0  501    0 -0.00000000000E+00 -0.00000000000E+00 -0.52443812217E+03  0.52443812217E+03  0.00000000000E+00 0. -1.
         25    2    1    2    0    0  0.84906475352E+02  0.25260781534E+03  0.16234436794E+03  0.33615977383E+03  0.12501152672E+03 0.  0.
          2    1    1    2  501    0  0.60357915634E+02 -0.31657487634E+02 -0.41838591685E+03  0.42390099071E+03  0.00000000000E+00 0. -1.
          1    1    1    2  502    0 -0.14526439099E+03 -0.22095032771E+03  0.10503265584E+04  0.10831004893E+04  0.00000000000E+00 0. -1.
         22    1    3    3    0    0  0.17339672428E+02 -0.11919196691E+02  0.15671576941E+02  0.26236040355E+02  0.00000000000E+00 0.  1.
         22    1    3    3    0    0  0.67566802924E+02  0.26452701204E+03  0.14667279100E+03  0.30992373348E+03  0.00000000000E+00 0.  1.
</event>
<event>
 7    1  0.5889087E-006  0.8902835E+02  0.7818608E-02  0.1341583E+00
          2   -1    0    0  502    0  0.00000000000E+00  0.00000000000E+00  0.17995471777E+04  0.17995471777E+04  0.00000000000E+00 0. -1.
          1   -1    0    0  501    0 -0.00000000000E+00 -0.00000000000E+00 -0.16567104981E+04  0.16567104981E+04  0.00000000000E+00 0. -1.
         25    2    1    2    0    0  0.50274583436E+02 -0.14381019659E+02  0.11118659909E+03  0.17527567597E+03  0.12499902121E+03 0.  0.
          2    1    1    2  501    0  0.30186464107E+02  0.56934113009E+02 -0.16227754957E+04  0.16240545020E+04  0.00000000000E+00 0. -1.
          1    1    1    2  502    0 -0.80461047543E+02 -0.42553093350E+02  0.16544255763E+04  0.16569274979E+04  0.00000000000E+00 0. -1.
         22    1    3    3    0    0 -0.36483796963E+02 -0.81230897829E+01  0.69288597343E+02  0.78727134777E+02  0.00000000000E+00 0. -1.
         22    1    3    3    0    0  0.86758380399E+02 -0.62579298765E+01  0.41898001749E+02  0.96548541192E+02  0.00000000000E+00 0. -1.
</event>
<event>
 7    1  0.5889087E-006  0.6684455E+02  0.7818608E-02  0.1507902E+00
          2   -1    0    0  502    0  0.00000000000E+00  0.00000000000E+00  0.47131032835E+02  0.47131032835E+02  0.00000000000E+00 0. -1.
          1   -1    0    0  501    0 -0.00000000000E+00 -0.00000000000E+00 -0.63667472540E+03  0.63667472540E+03  0.00000000000E+00 0. -1.
         25    2    1    2    0    0  0.40754998141E+02 -0.74661042515E+02 -0.25839429724E+03  0.29937487726E+03  0.12498985217E+03 0.  0.
          2    1    1    2  501    0 -0.10470877763E+01  0.23963725062E+02 -0.31775103822E+03  0.31865510948E+03  0.00000000000E+00 0. -1.
          1    1    1    2  502    0 -0.39707910364E+02  0.50697317454E+02 -0.13398357110E+02  0.65775771495E+02  0.00000000000E+00 0. -1.
         22    1    3    3    0    0  0.52692026058E+02  0.12185095328E+02 -0.51523387933E+02  0.74696624170E+02  0.00000000000E+00 0. -1.
         22    1    3    3    0    0 -0.11937027918E+02 -0.86846137844E+02 -0.20687090930E+03  0.22467825309E+03  0.00000000000E+00 0. -1.
</event>
<event>
 7    1  0.5889087E-006  0.9443362E+02  0.7818608E-02  0.1345451E+00
          2   -1    0    0  502    0  0.00000000000E+00  0.00000000000E+00  0.10070821384E+04  0.10070821384E+04  0.00000000000E+00 0. -1.
          1   -1    0    0  501    0 -0.00000000000E+00 -0.00000000000E+00 -0.97333056262E+02  0.97333056262E+02  0.00000000000E+00 0. -1.
         25    2    1    2    0    0  0.81251121961E+02 -0.17085360698E+02  0.57108339136E+03  0.59046982744E+03  0.12499889140E+03 0.  0.
          2    1    1    2  501    0 -0.62275698343E+02  0.72699082807E+02 -0.58678886767E+02  0.11227925453E+03  0.00000000000E+00 0. -1.
          1    1    1    2  502    0 -0.18975423618E+02 -0.55613722108E+02  0.39734457757E+03  0.40166611272E+03  0.00000000000E+00 0. -1.
         22    1    3    3    0    0 -0.15032714662E+02  0.27839240920E+02  0.54021774686E+02  0.62604776059E+02  0.00000000000E+00 0. -1.
         22    1    3    3    0    0  0.96283836623E+02 -0.44924601619E+02  0.51706161668E+03  0.52786505138E+03  0.00000000000E+00 0. -1.
</event>
<event>
 7    1  0.5889087E-006  0.4648088E+02  0.7818608E-02  0.1550493E+00
          2   -1    0    0  502    0  0.00000000000E+00  0.00000000000E+00  0.13084231512E+04  0.13084231512E+04  0.00000000000E+00 0. -1.
          1   -1    0    0  501    0 -0.00000000000E+00 -0.00000000000E+00 -0.23885456008E+03  0.23885456008E+03  0.00000000000E+00 0. -1.
         25    2    1    2    0    0 -0.17441339735E+02 -0.68621552442E+02  0.46644667334E+03  0.48806823396E+03  0.12499993658E+03 0.  0.
          2    1    1    2  501    0  0.96286039110E+01  0.24190475040E+02 -0.22668593158E+03  0.22817624914E+03  0.00000000000E+00 0. -1.
          1    1    1    2  502    0  0.78127358236E+01  0.44431077402E+02  0.82980784931E+03  0.83103322813E+03  0.00000000000E+00 0. -1.
         22    1    3    3    0    0  0.41698411000E+02 -0.67529248970E+02  0.20079465775E+03  0.21591074898E+03  0.00000000000E+00 0. -1.
         22    1    3    3    0    0 -0.59139750735E+02 -0.10923034718E+01  0.26565201559E+03  0.27215748498E+03  0.00000000000E+00 0. -1.
</event>
<event>
 7    1  0.5889087E-006  0.2279653E+03  0.7818608E-02  0.1259383E+00
          2   -1    0    0  502    0  0.00000000000E+00  0.00000000000E+00  0.29384180053E+03  0.29384180053E+03  0.00000000000E+00 0. -1.
          1   -1    0    0  501    0 -0.00000000000E+00 -0.00000000000E+00 -0.50788513371E+03  0.50788513371E+03  0.00000000000E+00 0. -1.
         25    2    1    2    0    0 -0.10413782452E+03 -0.17144772282E+03 -0.16502439571E+03  0.28826551880E+03  0.12499979997E+03 0.  0.
          2    1    1    2  501    0  0.13845969590E+03  0.21274891058E+03 -0.21896701028E+03  0.33523087258E+03  0.00000000000E+00 0. -1.
          1    1    1    2  502    0 -0.34321871378E+02 -0.41301187754E+02  0.16994807279E+03  0.17823054287E+03  0.00000000000E+00 0. -1.
         22    1    3    3    0    0 -0.99904873849E+02 -0.18173203439E+03 -0.17647230301E+03  0.27230495749E+03  0.00000000000E+00 0.  1.
         22    1    3    3    0    0 -0.42329506683E+01  0.10284311568E+02  0.11447907300E+02  0.15960561310E+02  0.00000000000E+00 0.  1.
</event>
<event>
 7    1  0.5889087E-006  0.1884507E+03  0.7818608E-02  0.1242560E+00
          2   -1    0    0  502    0  0.00000000000E+00  0.00000000000E+00  0.50621075537E+03  0.50621075537E+03  0.00000000000E+00 0. -1.
          1   -1    0    0  501    0 -0.00000000000E+00 -0.00000000000E+00 -0.12416896462E+03  0.12416896462E+03  0.00000000000E+00 0. -1.
         25    2    1    2    0    0 -0.95007101476E+02  0.11470179342E+03  0.17207186683E+03  0.25964941785E+03  0.12500496828E+03 0.  0.
          2    1    1    2  501    0  0.12593275990E+03 -0.18503079146E+03  0.12572714246E+03  0.25671534460E+03  0.00000000000E+00 0. -1.
          1    1    1    2  502    0 -0.30925658427E+02  0.70328998039E+02  0.84242781463E+02  0.11401495754E+03  0.00000000000E+00 0. -1.
         22    1    3    3    0    0 -0.12533669165E+03  0.85931282378E+02  0.12569884871E+03  0.19721478680E+03  0.00000000000E+00 0. -1.
         22    1    3    3    0    0  0.30329590174E+02  0.28770511039E+02  0.46373018118E+02  0.62434631055E+02  0.00000000000E+00 0. -1.
</event>
<event>
 7    1  0.5889087E-006  0.5174026E+02  0.7818608E-02  0.1564200E+00
          2   -1    0    0  502    0  0.00000000000E+00  0.00000000000E+00  0.50766940280E+03  0.50766940280E+03  0.00000000000E+00 0. -1.
          1   -1    0    0  501    0 -0.00000000000E+00 -0.00000000000E+00 -0.43412704342E+02  0.43412704342E+02  0.00000000000E+00 0. -1.
         25    2    1    2    0    0  0.40443582276E+02 -0.16328028272E+02  0.11255771516E+03  0.17377445995E+03  0.12500414326E+03 0.  0.
          2    1    1    2  501    0  0.12013206302E+02  0.17754367584E+02 -0.27976566314E+00  0.21438585839E+02  0.00000000000E+00 0. -1.
          1    1    1    2  502    0 -0.52456788578E+02 -0.14263393119E+01  0.35197874896E+03  0.35586906136E+03  0.00000000000E+00 0. -1.
         22    1    3    3    0    0  0.40056576725E+01  0.53347086541E+02  0.51057614086E+02  0.73951584784E+02  0.00000000000E+00 0. -1.
         22    1    3    3    0    0  0.36437924603E+02 -0.69675114813E+02  0.61500101078E+02  0.99822875165E+02  0.00000000000E+00 0. -1.
</event>
<event>
 7    1  0.5889087E-006  0.3885659E+02  0.7818608E-02  0.1581087E+00
          2   -1    0    0  502    0  0.00000000000E+00  0.00000000000E+00  0.22271341943E+04  0.22271341943E+04  0.00000000000E+00 0. -1.
          1   -1    0    0  501    0 -0.00000000000E+00 -0.00000000000E+00 -0.69988332789E+02  0.69988332789E+02  0.00000000000E+00 0. -1.
         25    2    1    2    0    0  0.17895573649E+02 -0.57930647973E+02  0.90437322063E+03  0.91498199773E+03  0.12499968979E+03 0.  0.
          2    1    1    2  501    0 -0.21153413075E+02  0.32445663462E+02 -0.58748683183E+02  0.70367575899E+02  0.00000000000E+00 0. -1.
          1    1    1    2  502    0  0.32578394259E+01  0.25484984511E+02  0.13115213240E+04  0.13117729534E+04  0.00000000000E+00 0. -1.
         22    1    3    3    0    0  0.31075901319E+02  0.29688321428E+02  0.45018179753E+03  0.45222865776E+03  0.00000000000E+00 0.  1.
         22    1    3    3    0    0 -0.13180327670E+02 -0.87618969401E+02  0.45419142310E+03  0.46275333997E+03  0.00000000000E+00 0.  1.
</event>
<event>
 7    1  0.5889087E-006  0.7357570E+02  0.7818608E-02  0.1462588E+00
          2   -1    0    0  502    0  0.00000000000E+00  0.00000000000E+00  0.31939671860E+04  0.31939671860E+04  0.00000000000E+00 0. -1.
          1   -1    0    0  501    0 -0.00000000000E+00 -0.00000000000E+00 -0.14984041853E+02  0.14984041853E+02  0.00000000000E+00 0. -1.
         25    2    1    2    0    0 -0.77021828442E+02  0.63401555752E+02  0.21197941104E+04  0.21258184856E+04  0.12500017693E+03 0.  0.
          2    1    1    2  501    0  0.48857314465E+02 -0.53228396030E+02  0.99442342462E+02  0.12291899282E+03  0.00000000000E+00 0. -1.
          1    1    1    2  502    0  0.28164513977E+02 -0.10173159722E+02  0.95974669135E+03  0.96021374942E+03  0.00000000000E+00 0. -1.
         22    1    3    3    0    0 -0.52549960727E+02 -0.19353281249E+02  0.40488373587E+03  0.40873816490E+03  0.00000000000E+00 0. -1.
         22    1    3    3    0    0 -0.24471867715E+02  0.82754837001E+02  0.17149103745E+04  0.17170803207E+04  0.00000000000E+00 0. -1.
</event>
<event>
 7    1  0.5889087E-006  0.2775222E+02  0.7818608E-02  0.1656585E+00
          2   -1    0    0  502    0  0.00000000000E+00  0.00000000000E+00  0.14163395108E+03  0.14163395108E+03  0.00000000000E+00 0. -1.
          1   -1    0    0  501    0 -0.00000000000E+00 -0.00000000000E+00 -0.50770648075E+03  0.50770648075E+03  0.00000000000E+00 0. -1.
         25    2    1    2    0    0  0.73870940818E+01 -0.21667223556E+02 -0.10880673227E+03  0.16729490807E+03  0.12499857417E+03 0.  0.
          2    1    1    2  501    0  0.19132779414E+02  0.12913986951E+02 -0.36755313012E+03  0.36827725665E+03  0.00000000000E+00 0. -1.
          1    1    1    2  502    0 -0.26519873496E+02  0.87532366052E+01  0.11028733272E+03  0.11376826711E+03  0.00000000000E+00 0. -1.
         22    1    3    3    0    0  0.13275524370E+02  0.18225236694E+02  0.21339493104E+02  0.31044689817E+02  0.00000000000E+00 0.  1.
         22    1    3    3    0    0 -0.58884302883E+01 -0.39892460250E+02 -0.13014622537E+03  0.13625021826E+03  0.00000000000E+00 0.  1.
</event>
<event>
 7    1  0.5889087E-006  0.5351852E+02  0.7818608E-02  0.1541655E+00
          2   -1    0    0  502    0  0.00000000000E+00  0.00000000000E+00  0.14064746893E+04  0.14064746893E+04  0.00000000000E+00 0. -1.
          1   -1    0    0  501    0 -0.00000000000E+00 -0.00000000000E+00 -0.30859462455E+02  0.30859462455E+02  0.00000000000E+00 0. -1.
         25    2    1    2    0    0 -0.60154031785E+02 -0.24409484707E+02  0.96836478808E+03  0.97855489067E+03  0.12499992311E+03 0.  0.
          2    1    1    2  501    0  0.53284922693E+02  0.14756112108E+01  0.25447197116E+01  0.53366056752E+02  0.00000000000E+00 0. -1.
          1    1    1    2  502    0  0.68691090926E+01  0.22933873496E+02  0.40470571903E+03  0.40541320431E+03  0.00000000000E+00 0. -1.
         22    1    3    3    0    0 -0.27793093150E+02  0.13941266190E+02  0.50400744393E+02  0.59220350938E+02  0.00000000000E+00 0. -1.
         22    1    3    3    0    0 -0.32360938636E+02 -0.38350750897E+02  0.91796404369E+03  0.91933453973E+03  0.00000000000E+00 0. -1.
</event>
<event>
 7    1  0.5889087E-006  0.4213129E+02  0.7818608E-02  0.1523710E+00
          2   -1    0    0  502    0  0.00000000000E+00  0.00000000000E+00  0.98941282890E+03  0.98941282890E+03  0.00000000000E+00 0. -1.
          1   -1    0    0  501    0 -0.00000000000E+00 -0.00000000000E+00 -0.32891423481E+03  0.32891423481E+03  0.00000000000E+00 0. -1.
         25    2    1    2    0    0  0.25168052541E+01 -0.11142328684E+02  0.35042612685E+03  0.37222832032E+03  0.12499986509E+03 0.  0.
          2    1    1    2  501    0  0.23595134821E+02 -0.24782573236E+02 -0.31630411888E+03  0.31814965338E+03  0.00000000000E+00 0. -1.
          1    1    1    2  502    0 -0.26111940075E+02  0.35924901919E+02  0.62637658612E+03  0.62794909000E+03  0.00000000000E+00 0. -1.
         22    1    3    3    0    0 -0.29206409466E+02 -0.14506006349E+02  0.16072112561E+02  0.36355898782E+02  0.00000000000E+00 0. -1.
         22    1    3    3    0    0  0.31723214720E+02  0.33636776654E+01  0.33435401429E+03  0.33587242154E+03  0.00000000000E+00 0. -1.
</event>
<event>
 7    1  0.5889087E-006  0.1140644E+03  0.7818608E-02  0.1319069E+00
          2   -1    0    0  502    0  0.00000000000E+00  0.00000000000E+00  0.99591003932E+03  0.99591003932E+03  0.00000000000E+00 0. -1.
          1   -1    0    0  501    0 -0.00000000000E+00 -0.00000000000E+00 -0.10052118518E+03  0.10052118518E+03  0.00000000000E+00 0. -1.
         25    2    1    2    0    0 -0.18930468546E+02  0.53743027344E+02  0.24984845229E+02  0.13962699354E+03  0.12499911682E+03 0.  0.
          2    1    1    2  501    0 -0.11689726688E+02  0.60183570519E+02 -0.15372737586E+02  0.63206272880E+02  0.00000000000E+00 0. -1.
          1    1    1    2  502    0  0.30620195233E+02 -0.11392659786E+03  0.88577674650E+03  0.89359795809E+03  0.00000000000E+00 0. -1.
         22    1    3    3    0    0  0.61449364946E+01  0.10731424768E+02  0.70857552222E+02  0.71928550861E+02  0.00000000000E+00 0.  1.
         22    1    3    3    0    0 -0.25075405040E+02  0.43011602576E+02 -0.45872706992E+02  0.67698442677E+02  0.00000000000E+00 0.  1.
</event>
<event>
 7    1  0.5889087E-006  0.8758852E+02  0.7818608E-02  0.1396847E+00
          2   -1    0    0  502    0  0.00000000000E+00  0.00000000000E+00  0.10299500961E+04  0.10299500961E+04  0.00000000000E+00 0. -1.
          1   -1    0    0  501    0 -0.00000000000E+00 -0.00000000000E+00 -0.10429036853E+03  0.10429036853E+03  0.00000000000E+00 0. -1.
         25    2    1    2    0    0 -0.59571128737E+02 -0.10776011412E+02  0.64391117609E+02  0.15308682439E+03  0.12499807187E+03 0.  0.
          2    1    1    2  501    0 -0.14534045449E+02 -0.38790699926E+02 -0.50341844018E+02  0.65194003842E+02  0.00000000000E+00 0. -1.
          1    1    1    2  502    0  0.74105174186E+02  0.49566711338E+02  0.91161045403E+03  0.91595963645E+03  0.00000000000E+00 0. -1.
         22    1    3    3    0    0 -0.44169118605E+02  0.42215391249E+02  0.75160466225E+02  0.96861478307E+02  0.00000000000E+00 0.  1.
         22    1    3    3    0    0 -0.15402010133E+02 -0.52991402660E+02 -0.10769348616E+02  0.56225346079E+02  0.00000000000E+00 0.  1.
</event>
<event>
 7    1  0.5889087E-006  0.6005103E+02  0.7818608E-02  0.1484014E+00
          2   -1    0    0  502    0  0.00000000000E+00  0.00000000000E+00  0.20627531124E+04  0.20627531124E+04  0.00000000000E+00 0. -1.
          1   -1    0    0  501    0 -0.00000000000E+00 -0.00000000000E+00 -0.34051271371E+03  0.34051271371E+03  0.00000000000E+00 0. -1.
         25    2    1    2    0    0 -0.58937575813E+02  0.90102882833E+01  0.44906547795E+03  0.46993724518E+03  0.12500555098E+03 0.  0.
          2    1    1    2  501    0  0.55802299633E+02  0.22325061311E+02 -0.32718467913E+03  0.33265916380E+03  0.00000000000E+00 0. -1.
          1    1    1    2  502    0  0.31352761800E+01 -0.31335349595E+02  0.16003595999E+04  0.16006694171E+04  0.00000000000E+00 0. -1.
         22    1    3    3    0    0 -0.44173626202E+02 -0.48957562283E+02  0.33187773300E+03  0.33836516047E+03  0.00000000000E+00 0.  1.
         22    1    3    3    0    0 -0.14763949611E+02  0.57967850566E+02  0.11718774495E+03  0.13157208471E+03  0.00000000000E+00 0.  1.
</event>
<event>
 7    1  0.5889087E-006  0.4309431E+02  0.7818608E-02  0.1507330E+00
          2   -1    0    0  502    0  0.00000000000E+00  0.00000000000E+00  0.15976063586E+03  0.15976063586E+03  0.00000000000E+00 0. -1.
          1   -1    0    0  501    0 -0.00000000000E+00 -0.00000000000E+00 -0.12451954037E+04  0.12451954037E+04  0.00000000000E+00 0. -1.
         25    2    1    2    0    0 -0.72069842053E+02 -0.32285195320E+02 -0.21805182831E+03  0.26345371865E+03  0.12499946429E+03 0.  0.
          2    1    1    2  501    0  0.36164559642E+02  0.93393337108E+01 -0.10007739252E+04  0.10014706925E+04  0.00000000000E+00 0. -1.
          1    1    1    2  502    0  0.35905282412E+02  0.22945861609E+02  0.13339098573E+03  0.14003162837E+03  0.00000000000E+00 0. -1.
         22    1    3    3    0    0 -0.42816381998E+02  0.24982585180E+02 -0.17060377373E+02  0.52425457611E+02  0.00000000000E+00 0. -1.
         22    1    3    3    0    0 -0.29253460056E+02 -0.57267780500E+02 -0.20099145093E+03  0.21102826104E+03  0.00000000000E+00 0. -1.
</event>
<event>
 7    1  0.5889087E-006  0.1112826E+03  0.7818608E-02  0.1429488E+00
          2   -1    0    0  502    0  0.00000000000E+00  0.00000000000E+00  0.49051712431E+02  0.49051712431E+02  0.00000000000E+00 0. -1.
          1   -1    0    0  501    0 -0.00000000000E+00 -0.00000000000E+00 -0.84502547585E+03  0.84502547585E+03  0.00000000000E+00 0. -1.
         25    2    1    2    0    0 -0.12317624016E+03  0.50107926190E+02 -0.55457321241E+03  0.58383182322E+03  0.12499983791E+03 0.  0.
          2    1    1    2  501    0  0.24539581821E+02 -0.61642913691E+01 -0.18815543308E+03  0.18984903624E+03  0.00000000000E+00 0. -1.
          1    1    1    2  502    0  0.98636658335E+02 -0.43943634821E+02 -0.53245117925E+02  0.12039632881E+03  0.00000000000E+00 0. -1.
         22    1    3    3    0    0 -0.16135331906E+02 -0.35568951092E+02 -0.69157490904E+02  0.79424541332E+02  0.00000000000E+00 0.  1.
         22    1    3    3    0    0 -0.10704090825E+03  0.85676877282E+02 -0.48541572151E+03  0.50440728189E+03  0.00000000000E+00 0.  1.
</event>
<event>
 7    1  0.5889087E-006  0.7145514E+02  0.7818608E-02  0.1361013E+00
          2   -1    0    0  502    0  0.00000000000E+00  0.00000000000E+00  0.36081853196E+03  0.36081853196E+03  0.00000000000E+00 0. -1.
          1   -1    0    0  501    0 -0.00000000000E+00 -0.00000000000E+00 -0.11258962804E+04  0.11258962804E+04  0.00000000000E+00 0. -1.
         25    2    1    2    0    0  0.24136368029E+02 -0.26473034968E+02  0.65424644577E+02  0.14556483784E+03  0.12500140821E+03 0.  0.
          2    1    1    2  501    0  0.53933103591E+02  0.41491941860E+02 -0.10785392344E+04  0.10806836914E+04  0.00000000000E+00 0. -1.
          1    1    1    2  502    0 -0.78069471620E+02 -0.15018906892E+02  0.24803684133E+03  0.26046628308E+03  0.00000000000E+00 0. -1.
         22    1    3    3    0    0  0.42417721479E+02  0.40707829415E+02  0.41429604368E+02  0.71922198167E+02  0.00000000000E+00 0. -1.
         22    1    3    3    0    0 -0.18281353450E+02 -0.67180864383E+02  0.23995040209E+02  0.73642639672E+02  0.00000000000E+00 0. -1.
</event>
<event>
 7    1  0.5889087E-006  0.8904680E+02  0.7818608E-02  0.1425102E+00
          2   -1    0    0  502    0  0.00000000000E+00  0.00000000000E+00  0.24796021882E+04  0.24796021882E+04  0.00000000000E+00 0. -1.
          1   -1    0    0  501    0 -0.00000000000E+00 -0.00000000000E+00 -0.18929402875E+03  0.18929402875E+03  0.00000000000E+00 0. -1.
         25    2    1    2    0    0  0.16044408042E+02  0.72502681022E+02  0.55970788465E+02  0.15579196326E+03  0.12499737945E+03 0.  0.
          2    1    1    2  501    0  0.10885161984E+02 -0.91040801079E+02 -0.12417912881E+03  0.15436116819E+03  0.00000000000E+00 0. -1.
          1    1    1    2  502    0 -0.26929570026E+02  0.18538120058E+02  0.23585164998E+04  0.23587430855E+04  0.00000000000E+00 0. -1.
         22    1    3    3    0    0  0.13227338288E+02  0.27391858914E+02 -0.39681146946E+02  0.49998698342E+02  0.00000000000E+00 0. -1.
         22    1    3    3    0    0  0.28170697544E+01  0.45110822108E+02  0.95651935412E+02  0.10579326491E+03  0.00000000000E+00 0. -1.
</event>
<event>
 7    1  0.5889087E-006  0.8651448E+02  0.7818608E-02  0.1414811E+00
          2   -1    0    0  502    0  0.00000000000E+00  0.00000000000E+00  0.72791696162E+03  0.72791696162E+03  0.00000000000E+00 0. -1.
          1   -1    0    0  501    0 -0.00000000000E+00 -0.00000000000E+00 -0.19172374211E+03  0.19172374211E+03  0.00000000000E+00 0. -1.
         25    2    1    2    0    0 -0.14538835486E+02 -0.76786536183E+02  0.59621466531E+02  0.15902056205E+03  0.12500108002E+03 0.  0.
          2    1    1    2  501    0 -0.36016099828E+02  0.54219527246E+01 -0.13653381373E+03  0.14130831296E+03  0.00000000000E+00 0. -1.
          1    1    1    2  502    0  0.50554935315E+02  0.71364583459E+02  0.61310556671E+03  0.61931182872E+03  0.00000000000E+00 0. -1.
         22    1    3    3    0    0 -0.64425732553E+02 -0.66194440589E+02  0.20180170690E+02  0.94549554568E+02  0.00000000000E+00 0. -1.
         22    1    3    3    0    0  0.49886897067E+02 -0.10592095594E+02  0.39441295842E+02  0.64471007482E+02  0.00000000000E+00 0. -1.
</event>
<event>
 7    1  0.5889087E-006  0.1838535E+03  0.7818608E-02  0.1338390E+00
          2   -1    0    0  502    0  0.00000000000E+00  0.00000000000E+00  0.52001736169E+03  0.52001736169E+03  0.00000000000E+00 0. -1.
          1   -1    0    0  501    0 -0.00000000000E+00 -0.00000000000E+00 -0.22165492196E+04  0.22165492196E+04  0.00000000000E+00 0. -1.
         25    2    1    2    0    0  0.86449435379E+02 -0.16400417160E+03 -0.41402962408E+03  0.47054778209E+03  0.12499524965E+03 0.  0.
          2    1    1    2  501    0 -0.11264453786E+03  0.14548523165E+03 -0.17689605168E+04  0.17785038809E+04  0.00000000000E+00 0. -1.
          1    1    1    2  502    0  0.26195102477E+02  0.18518939957E+02  0.48645828292E+03  0.48751491829E+03  0.00000000000E+00 0. -1.
         22    1    3    3    0    0  0.17082815361E+02 -0.10434085096E+03 -0.32925804391E+03  0.34581743051E+03  0.00000000000E+00 0. -1.
         22    1    3    3    0    0  0.69366620018E+02 -0.59663320642E+02 -0.84771580164E+02  0.12473035158E+03  0.00000000000E+00 0. -1.
</event>
<event>
 7    1  0.5889087E-006  0.9944800E+02  0.7818608E-02  0.1314815E+00
          2   -1    0    0  502    0  0.00000000000E+00  0.00000000000E+00  0.29694455682E+03  0.29694455682E+03  0.00000000000E+00 0. -1.
          1   -1    0    0  501    0 -0.00000000000E+00 -0.00000000000E+00 -0.17593761447E+03  0.17593761447E+03  0.00000000000E+00 0. -1.
         25    2    1    2    0    0  0.43159686040E+02 -0.25341013772E+02  0.47129882144E+02  0.14265934202E+03  0.12500214637E+03 0.  0.
          2    1    1    2  501    0  0.72976011514E+02 -0.34204048031E+01 -0.97117138925E+02  0.12152751169E+03  0.00000000000E+00 0. -1.
          1    1    1    2  502    0 -0.11613569755E+03  0.28761418575E+02  0.17099419913E+03  0.20869531758E+03  0.00000000000E+00 0. -1.
         22    1    3    3    0    0  0.31189650280E+01  0.32809898283E+02  0.62267442164E+02  0.70451768763E+02  0.00000000000E+00 0.  1.
         22    1    3    3    0    0  0.40040721012E+02 -0.58150912055E+02 -0.15137560020E+02  0.72207573255E+02  0.00000000000E+00 0.  1.
</event>
<event>
 7    1  0.5889087E-006  0.1420508E+03  0.7818608E-02  0.1394412E+00
          2   -1    0    0  502    0  0.00000000000E+00  0.00000000000E+00  0.44790757871E+03  0.44790757871E+03  0.00000000000E+00 0. -1.
          1   -1    0    0  501    0 -0.00000000000E+00 -0.00000000000E+00 -0.10502365165E+04  0.10502365165E+04  0.00000000000E+00 0. -1.
         25    2    1    2    0    0 -0.11068951869E+03 -0.69311122325E+02  0.39000273013E+01  0.18082319996E+03  0.12500247280E+03 0.  0.
          2    1    1    2  501    0  0.10660080545E+03  0.95030726622E+02 -0.95598687076E+03  0.96659477951E+03  0.00000000000E+00 0. -1.
          1    1    1    2  502    0  0.40887132409E+01 -0.25719604297E+02  0.34975790571E+03  0.35072611569E+03  0.00000000000E+00 0. -1.
         22    1    3    3    0    0 -0.74392296355E+02  0.17288248256E+02 -0.28459921234E+02  0.81504996174E+02  0.00000000000E+00 0.  1.
         22    1    3    3    0    0 -0.36297222338E+02 -0.86599370581E+02  0.32359948536E+02  0.99318203788E+02  0.00000000000E+00 0.  1.
</event>
<event>
 7    1  0.5889087E-006  0.5937897E+02  0.7818608E-02  0.1406254E+00
          2   -1    0    0  502    0  0.00000000000E+00  0.00000000000E+00  0.64025983540E+02  0.64025983540E+02  0.00000000000E+00 0. -1.
          1   -1    0    0  501    0 -0.00000000000E+00 -0.00000000000E+00 -0.10533914375E+04  0.10533914375E+04  0.00000000000E+00 0. -1.
         25    2    1    2    0    0  0.33643108101E+02  0.82163462072E+02 -0.53366508186E+03  0.55525333562E+03  0.12500061562E+03 0.  0.
          2    1    1    2  501    0  0.18128976970E+02 -0.53752845811E+02 -0.49039925591E+03  0.49366938171E+03  0.00000000000E+00 0. -1.
          1    1    1    2  502    0 -0.51772085071E+02 -0.28410616261E+02  0.34698883757E+02  0.68494703758E+02  0.00000000000E+00 0. -1.
         22    1    3    3    0    0  0.43901627641E+02  0.87899030575E+02 -0.53451441852E+03  0.54346964597E+03  0.00000000000E+00 0.  1.
         22    1    3    3    0    0 -0.10258519540E+02 -0.57355685025E+01  0.84933665730E+00  0.11783689658E+02  0.00000000000E+00 0.  1.
</event>
<event>
 7    1  0.5889087E-006  0.1077788E+03  0.7818608E-02  0.1304047E+00
          2   -1    0    0  502    0  0.00000000000E+00  0.00000000000E+00  0.20949584883E+04  0.20949584883E+04  0.00000000000E+00 0. -1.
          1   -1    0    0  501    0 -0.00000000000E+00 -0.00000000000E+00 -0.24406635927E+03  0.24406635927E+03  0.00000000000E+00 0. -1.
         25    2    1    2    0    0 -0.64958391683E+02 -0.14581302738E+02  0.65384693236E+02  0.15598922209E+03  0.12500108904E+03 0.  0.
          2    1    1    2  501    0  0.75342254852E+02  0.88187023640E+02 -0.18108059235E+03  0.21504322223E+03  0.00000000000E+00 0. -1.
          1    1    1    2  502    0 -0.10383863169E+02 -0.73605720902E+02  0.19665880282E+04  0.19679924033E+04  0.00000000000E+00 0. -1.
         22    1    3    3    0    0 -0.56031017462E+02 -0.36487250297E+02  0.96191745915E+02  0.11714796769E+03  0.00000000000E+00 0.  1.
         22    1    3    3    0    0 -0.89273742208E+01  0.21905947559E+02 -0.30807052679E+02  0.38841254404E+02  0.00000000000E+00 0.  1.
</event>
<event>
 7    1  0.5889087E-006  0.3891447E+02  0.7818608E-02  0.1564520E+00
          2   -1    0    0  502    0  0.00000000000E+00  0.00000000000E+00  0.22557124324E+04  0.22557124324E+04  0.00000000000E+00 0. -1.
          1   -1    0    0  501    0 -0.00000000000E+00 -0.00000000000E+00 -0.36069382382E+03  0.36069382382E+03  0.00000000000E+00 0. -1.
         25    2    1    2    0    0 -0.38466476386E+02 -0.29239409222E+02  0.15103543392E+04  0.15162888035E+04  0.12500757114E+03 0.  0.
          2    1    1    2  501    0 -0.15902534200E+00  0.28444372161E+02 -0.35665734086E+03  0.35778983550E+03  0.00000000000E+00 0. -1.
          1    1    1    2  502    0  0.38625501728E+02  0.79503706138E+00  0.74132161024E+03  0.74232761722E+03  0.00000000000E+00 0. -1.
         22    1    3    3    0    0 -0.44835481035E+02  0.67412276619E+01  0.18656343603E+03  0.19199369826E+03  0.00000000000E+00 0.  1.
         22    1    3    3    0    0  0.63690046498E+01 -0.35980636884E+02  0.13237909032E+04  0.13242951053E+04  0.00000000000E+00 0.  1.
</event>
<event>
 7    1  0.5889087E-006  0.1136905E+03  0.7818608E-02  0.1407527E+00
          2   -1    0    0  502    0  0.00000000000E+00  0.00000000000E+00  0.47315508521E+03  0.47315508521E+03  0.00000000000E+00 0. -1.
          1   -1    0    0  501    0 -0.00000000000E+00 -0.00000000000E+00 -0.21527609024E+04  0.21527609024E+04  0.00000000000E+00 0. -1.
         25    2    1    2    0    0 -0.86850286704E+02  0.22067509722E+02 -0.46466766804E+02  0.16066897780E+03  0.12500165088E+03 0.  0.
          2    1    1    2  501    0 -0.20422923631E+02  0.21056754275E+02 -0.20410534463E+04  0.20412642292E+04  0.00000000000E+00 0. -1.
          1    1    1    2  502    0  0.10727321033E+03 -0.43124263996E+02  0.40791439596E+03  0.42398278058E+03  0.00000000000E+00 0. -1.
         22    1    3    3    0    0 -0.44318300285E+02 -0.48850468194E+02 -0.41283197752E+02  0.77812482286E+02  0.00000000000E+00 0.  1.
         22    1    3    3    0    0 -0.42531986419E+02  0.70917977915E+02 -0.51835690520E+01  0.82856495512E+02  0.00000000000E+00 0.  1.
</event>
<event>
 7    1  0.5889087E-006  0.3259928E+03  0.7818608E-02  0.1309268E+00
          2   -1    0    0  502    0  0.00000000000E+00  0.00000000000E+00  0.14206169345E+04  0.14206169345E+04  0.00000000000E+00 0. -1.
          1   -1    0    0  501    0 -0.00000000000E+00 -0.00000000000E+00 -0.21608865737E+04  0.21608865737E+04  0.00000000000E+00 0. -1.
         25    2    1    2    0    0 -0.24804749083E+03 -0.17455418161E+03 -0.54161500208E+03  0.63322224093E+03  0.12500750336E+03 0.  0.
          2    1    1    2  501    0 -0.19253926132E+02 -0.13357108556E+02 -0.15539646947E+04  0.15541413701E+04  0.00000000000E+00 0. -1.
          1    1    1    2  502    0  0.26730141697E+03  0.18791129017E+03  0.13553100576E+04  0.13941398972E+04  0.00000000000E+00 0. -1.
         22    1    3    3    0    0 -0.17599499544E+03 -0.13825675929E+03 -0.48651292083E+03  0.53552216765E+03  0.00000000000E+00 0. -1.
         22    1    3    3    0    0 -0.72052495398E+02 -0.36297422328E+02 -0.55102081255E+02  0.97700073282E+02  0.00000000000E+00 0. -1.
</event>
<event>
 7    1  0.5889087E-006  0.5625273E+02  0.7818608E-02  0.1465247E+00
          2   -1    0    0  502    0  0.00000000000E+00  0.00000000000E+00  0.10415282969E+04  0.10415282969E+04  0.00000000000E+00 0. -1.
          1   -1    0    0  501    0 -0.00000000000E+00 -0.00000000000E+00 -0.55635195079E+02  0.55635195079E+02  0.00000000000E+00 0. -1.
         25    2    1    2    0    0 -0.15233208771E+02 -0.32529009419E+02  0.59819595763E+03  0.61217192774E+03  0.12500351309E+03 0.  0.
          2    1    1    2  501    0 -0.38185809117E+02 -0.42549317282E+01 -0.38202298042E+02  0.54181879236E+02  0.00000000000E+00 0. -1.
          1    1    1    2  502    0  0.53419017888E+02  0.36783941147E+02  0.42589944224E+03  0.43080968501E+03  0.00000000000E+00 0. -1.
         22    1    3    3    0    0  0.20791936956E+02  0.28311483362E+02  0.61385939192E+02  0.70725372131E+02  0.00000000000E+00 0. -1.
         22    1    3    3    0    0 -0.36025145727E+02 -0.60840492780E+02  0.53681001844E+03  0.54144655561E+03  0.00000000000E+00 0. -1.
</event>
<event>
 7    1  0.5889087E-006  0.1902272E+03  0.7818608E-02  0.1277870E+00
          2   -1    0    0  502    0  0.00000000000E+00  0.00000000000E+00  0.22582114506E+04  0.22582114506E+04  0.00000000000E+00 0. -1.
          1   -1    0    0  501    0 -0.00000000000E+00 -0.00000000000E+00 -0.76894256911E+03  0.76894256911E+03  0.00000000000E+00 0. -1.
         25    2    1    2    0    0 -0.11877040798E+03  0.20806053344E+03  0.60118247656E+02  0.27683001642E+03  0.12500023563E+03 0.  0.
          2    1    1    2  501    0  0.98526717872E+02 -0.15821655796E+03 -0.64708390836E+03  0.67339258817E+03  0.00000000000E+00 0. -1.
          1    1    1    2  502    0  0.20243690107E+02 -0.49843975473E+02  0.20762345422E+04  0.20769314151E+04  0.00000000000E+00 0. -1.
         22    1    3    3    0    0 -0.46152227750E+02  0.84269370197E+02 -0.37629493009E+02  0.10318591776E+03  0.00000000000E+00 0.  1.
         22    1    3    3    0    0 -0.72618180229E+02  0.12379116324E+03  0.97747740665E+02  0.17364409866E+03  0.00000000000E+00 0.  1.
</event>
<event>
 7    1  0.5889087E-006  0.6786443E+02  0.7818608E-02  0.1448389E+00
          2   -1    0    0  502    0  0.00000000000E+00  0.00000000000E+00  0.10432021415E+04  0.10432021415E+04  0.00000000000E+00 0. -1.
          1   -1    0    0  501    0 -0.00000000000E+00 -0.00000000000E+00 -0.49805330077E+03  0.49805330077E+03  0.00000000000E+00 0. -1.
         25    2    1    2    0    0  0.25005034727E+02 -0.97347119589E+02 -0.22282319593E+03  0.27454819071E+03  0.12499927568E+03 0.  0.
          2    1    1    2  501    0  0.33776884624E+01  0.35857928893E+02 -0.24693267484E+03  0.24954547831E+03  0.00000000000E+00 0. -1.
          1    1    1    2  502    0 -0.28382723189E+02  0.61489190696E+02  0.10149047115E+04  0.10171617732E+04  0.00000000000E+00 0. -1.
         22    1    3    3    0    0 -0.35778632719E+02 -0.47023213010E+02 -0.16899097307E+03  0.17902302115E+03  0.00000000000E+00 0. -1.
         22    1    3    3    0    0  0.60783667446E+02 -0.50323906578E+02 -0.53832222860E+02  0.95525169560E+02  0.00000000000E+00 0. -1.
</event>
<event>
 7    1  0.5889087E-006  0.1051183E+03  0.7818608E-02  0.1284764E+00
          2   -1    0    0  502    0  0.00000000000E+00  0.00000000000E+00  0.45081326784E+03  0.45081326784E+03  0.00000000000E+00 0. -1.
          1   -1    0    0  501    0 -0.00000000000E+00 -0.00000000000E+00 -0.16439775992E+04  0.16439775992E+04  0.00000000000E+00 0. -1.
         25    2    1    2    0    0 -0.13323252731E+03  0.14003897563E+03 -0.10253320589E+03  0.25198995957E+03  0.12499624148E+03 0.  0.
          2    1    1    2  501    0  0.63991556194E+02 -0.80703463536E+02 -0.14593468710E+04  0.14629768481E+04  0.00000000000E+00 0. -1.
          1    1    1    2  502    0  0.69240971120E+02 -0.59335512090E+02  0.36871574551E+03  0.37982405935E+03  0.00000000000E+00 0. -1.
         22    1    3    3    0    0  0.10121423228E+02  0.68844831590E+02 -0.39113301340E+02  0.79824209276E+02  0.00000000000E+00 0.  1.
         22    1    3    3    0    0 -0.14335395054E+03  0.71194144037E+02 -0.63419904550E+02  0.17216575029E+03  0.00000000000E+00 0.  1.
</event>
<event>
 7    1  0.5889087E-006  0.1161350E+03  0.7818608E-02  0.1323432E+00
          2   -1    0    0  502    0  0.00000000000E+00  0.00000000000E+00  0.54741214419E+02  0.54741214419E+02  0.00000000000E+00 0. -1.
          1   -1    0    0  501    0 -0.00000000000E+00 -0.00000000000E+00 -0.11345210277E+04  0.11345210277E+04  0.00000000000E+00 0. -1.
         25    2    1    2    0    0 -0.59066752450E+02 -0.33265052884E+02 -0.11319530980E+03  0.18175210113E+03  0.12500081246E+03 0.  0.
          2    1    1    2  501    0  0.90045267764E+02  0.82201243361E+02 -0.93223250669E+03  0.94017160199E+03  0.00000000000E+00 0. -1.
          1    1    1    2  502    0 -0.30978515315E+02 -0.48936190478E+02 -0.34351996765E+02  0.67338538975E+02  0.00000000000E+00 0. -1.
         22    1    3    3    0    0  0.21581659612E+01 -0.42844965842E+02 -0.11182029874E+03  0.11976697370E+03  0.00000000000E+00 0.  1.
         22    1    3    3    0    0 -0.61224918411E+02  0.95799129581E+01 -0.13750110552E+01  0.61985127427E+02  0.00000000000E+00 0.  1.
</event>
<event>
 7    1  0.5889087E-006  0.1215835E+03  0.7818608E-02  0.1381750E+00
          2   -1    0    0  502    0  0.00000000000E+00  0.00000000000E+00  0.25746000115E+04  0.25746000115E+04  0.00000000000E+00 0. -1.
          1   -1    0    0  501    0 -0.00000000000E+00 -0.00000000000E+00 -0.94923035181E+02  0.94923035181E+02  0.00000000000E+00 0. -1.
         25    2    1    2    0    0  0.12590311546E+03 -0.52917562647E+01  0.17389506566E+04  0.17479858599E+04  0.12500233281E+03 0.  0.
          2    1    1    2  501    0 -0.11841952450E+03 -0.27561667654E+02 -0.49003832841E+02  0.13108853855E+03  0.00000000000E+00 0. -1.
          1    1    1    2  502    0 -0.74835909614E+01  0.32853423919E+02  0.78973015252E+03  0.79044864817E+03  0.00000000000E+00 0. -1.
         22    1    3    3    0    0  0.46185343645E+02 -0.14238609113E+02  0.16348379737E+03  0.17047808058E+03  0.00000000000E+00 0. -1.
         22    1    3    3    0    0  0.79717771817E+02  0.89468528484E+01  0.15754668593E+04  0.15775077794E+04  0.00000000000E+00 0. -1.
</event>
<event>
 7    1  0.5889087E-006  0.7233658E+02  0.7818608E-02  0.1485631E+00
          2   -1    0    0  502    0  0.00000000000E+00  0.00000000000E+00  0.14868354280E+03  0.14868354280E+03  0.00000000000E+00 0. -1.
          1   -1    0    0  501    0 -0.00000000000E+00 -0.00000000000E+00 -0.10607339675E+03  0.10607339675E+03  0.00000000000E+00 0. -1.
         25    2    1    2    0    0  0.47825387706E+02  0.32602060819E+02  0.43653969362E+02  0.14450277306E+03  0.12500088120E+03 0.  0.
          2    1    1    2  501    0  0.21627031037E+02  0.14156640862E+02 -0.54337011094E+01  0.26413331099E+02  0.00000000000E+00 0. -1.
          1    1    1    2  502    0 -0.69452418743E+02 -0.46758701681E+02  0.43898778012E+01  0.83840835393E+02  0.00000000000E+00 0. -1.
         22    1    3    3    0    0 -0.25540948594E+01  0.73080127112E+02  0.23239759033E+02  0.76728839293E+02  0.00000000000E+00 0. -1.
         22    1    3    3    0    0  0.50379482565E+02 -0.40478066293E+02  0.20414210329E+02  0.67773933763E+02  0.00000000000E+00 0. -1.
</event>
<event>
 7    1  0.5889087E-006  0.9859714E+02  0.7818608E-02  0.1360462E+00
          2   -1    0    0  502    0  0.00000000000E+00  0.00000000000E+00  0.12449825387E+03  0.12449825387E+03  0.00000000000E+00 0. -1.
          1   -1    0    0  501    0 -0.00000000000E+00 -0.00000000000E+00 -0.32242251537E+03  0.32242251537E+03  0.00000000000E+00 0. -1.
         25    2    1    2    0    0 -0.57282137634E+02  0.72879850983E+02 -0.14201388920E+03  0.21068339703E+03  0.12500733214E+03 0.  0.
          2    1    1    2  501    0  0.41389052717E+02  0.27230617647E+02 -0.11050711244E+03  0.12110483939E+03  0.00000000000E+00 0. -1.
          1    1    1    2  502    0  0.15893084917E+02 -0.10011046863E+03  0.54596740153E+02  0.11513253282E+03  0.00000000000E+00 0. -1.
         22    1    3    3    0    0 -0.68459582245E+02 -0.10145390847E+02 -0.45220100753E+02  0.82671040085E+02  0.00000000000E+00 0.  1.
         22    1    3    3    0    0  0.11177444612E+02  0.83025241830E+02 -0.96793788451E+02  0.12801235695E+03  0.00000000000E+00 0.  1.
</event>
<event>
 7    1  0.5889087E-006  0.1630282E+03  0.7818608E-02  0.1282870E+00
          2   -1    0    0  502    0  0.00000000000E+00  0.00000000000E+00  0.91681983141E+03  0.91681983141E+03  0.00000000000E+00 0. -1.
          1   -1    0    0  501    0 -0.00000000000E+00 -0.00000000000E+00 -0.52322952378E+03  0.52322952378E+03  0.00000000000E+00 0. -1.
         25    2    1    2    0    0 -0.14309541582E+03 -0.18610339210E+02  0.40970809893E+02  0.19526288971E+03  0.12500538421E+03 0.  0.
          2    1    1    2  501    0 -0.33378887810E+01 -0.59765768195E+02 -0.43537899099E+03  0.43947463448E+03  0.00000000000E+00 0. -1.
          1    1    1    2  502    0  0.14643330460E+03  0.78376107405E+02  0.78799848873E+03  0.80531183100E+03  0.00000000000E+00 0. -1.
         22    1    3    3    0    0 -0.11399683028E+03 -0.46686995223E+02 -0.17238835932E+02  0.12438701821E+03  0.00000000000E+00 0.  1.
         22    1    3    3    0    0 -0.29098585542E+02  0.28076656013E+02  0.58209645826E+02  0.70875871497E+02  0.00000000000E+00 0.  1.
</event>
<event>
 7    1  0.5889087E-006  0.1123763E+03  0.7818608E-02  0.1411198E+00
          2   -1    0    0  502    0  0.00000000000E+00  0.00000000000E+00  0.94644468663E+03  0.94644468663E+03  0.00000000000E+00 0. -1.
          1   -1    0    0  501    0 -0.00000000000E+00 -0.00000000000E+00 -0.69075814104E+03  0.69075814104E+03  0.00000000000E+00 0. -1.
         25    2    1    2    0    0 -0.64502881123E+02  0.11560720990E+03 -0.27450683772E+03  0.32939571691E+03  0.12498754222E+03 0.  0.
          2    1    1    2  501    0  0.27101703259E+02 -0.98557370048E+01 -0.38484256237E+03  0.38592154084E+03  0.00000000000E+00 0. -1.
          1    1    1    2  502    0  0.37401177864E+02 -0.10575147290E+03  0.91503594569E+03  0.92188556992E+03  0.00000000000E+00 0. -1.
         22    1    3    3    0    0 -0.35558257087E+02  0.16060977553E+02 -0.34251153924E+01  0.39167283063E+02  0.00000000000E+00 0. -1.
         22    1    3    3    0    0 -0.28944624035E+02  0.99546232351E+02 -0.27108172233E+03  0.29022843385E+03  0.00000000000E+00 0. -1.
</event>
<event>
 7    1  0.5889087E-006  0.1228861E+03  0.7818608E-02  0.1287165E+00
          2   -1    0    0  502    0  0.00000000000E+00  0.00000000000E+00  0.62721052685E+03  0.62721052685E+03  0.00000000000E+00 0. -1.
          1   -1    0    0  501    0 -0.00000000000E+00 -0.00000000000E+00 -0.43793710245E+03  0.43793710245E+03  0.00000000000E+00 0. -1.
         25    2    1    2    0    0 -0.13335537328E+03  0.99755816532E+02 -0.20652139899E+02  0.20925275985E+03  0.12500131243E+03 0.  0.
          2    1    1    2  501    0  0.57254643886E+02 -0.10463070508E+03 -0.30909168183E+03  0.33130551832E+03  0.00000000000E+00 0. -1.
          1    1    1    2  502    0  0.76100729393E+02  0.48748885469E+01  0.51901724612E+03  0.52458935113E+03  0.00000000000E+00 0. -1.
         22    1    3    3    0    0  0.43095986075E+01 -0.45772692864E+01 -0.35340532454E+02  0.35895365556E+02  0.00000000000E+00 0. -1.
         22    1    3    3    0    0 -0.13766497189E+03  0.10433308582E+03  0.14688392555E+02  0.17335739429E+03  0.00000000000E+00 0. -1.
</event>
<event>
 7    1  0.5889087E-006  0.8034502E+02  0.7818608E-02  0.1383910E+00
          2   -1    0    0  502    0  0.00000000000E+00  0.00000000000E+00  0.14146280538E+04  0.14146280538E+04  0.00000000000E+00 0. -1.
          1   -1    0    0  501    0 -0.00000000000E+00 -0.00000000000E+00 -0.16134296607E+03  0.16134296607E+03  0.00000000000E+00 0. -1.
         25    2    1    2    0    0  0.99334833866E+02 -0.50287646772E+02  0.63017418471E+03  0.65202625741E+03  0.12498992215E+03 0.  0.
          2    1    1    2  501    0 -0.50605464898E+02  0.61939579982E+02 -0.13890294218E+03  0.16028553270E+03  0.00000000000E+00 0. -1.
          1    1    1    2  502    0 -0.48729368968E+02 -0.11651933210E+02  0.76201384515E+03  0.76365922973E+03  0.00000000000E+00 0. -1.
         22    1    3    3    0    0  0.11458798801E+03 -0.35593511305E+02  0.33054411784E+03  0.35164857298E+03  0.00000000000E+00 0. -1.
         22    1    3    3    0    0 -0.15253154141E+02 -0.14694135467E+02  0.29963006688E+03  0.30037768443E+03  0.00000000000E+00 0. -1.
</event>
<event>
 7    1  0.5889087E-006  0.5356542E+02  0.7818608E-02  0.1463860E+00
          2   -1    0    0  502    0  0.00000000000E+00  0.00000000000E+00  0.24546722227E+03  0.24546722227E+03  0.00000000000E+00 0. -1.
          1   -1    0    0  501    0 -0.00000000000E+00 -0.00000000000E+00 -0.10675795715E+04  0.10675795715E+04  0.00000000000E+00 0. -1.
         25    2    1    2    0    0  0.39768260148E+02 -0.53661182489E+02 -0.20339189321E+03  0.24789980242E+03  0.12500005117E+03 0.  0.
          2    1    1    2  501    0  0.98719260884E+00  0.53559139869E+02 -0.83921226398E+03  0.84092019837E+03  0.00000000000E+00 0. -1.
          1    1    1    2  502    0 -0.40755452757E+02  0.10204261983E+00  0.22049180793E+03  0.22422679301E+03  0.00000000000E+00 0. -1.
         22    1    3    3    0    0 -0.11066948799E+02 -0.79760271424E+02 -0.14703542709E+03  0.16764126900E+03  0.00000000000E+00 0. -1.
         22    1    3    3    0    0  0.50835208947E+02  0.26099088935E+02 -0.56356466127E+02  0.80258533417E+02  0.00000000000E+00 0. -1.
</event>
<event>
 7    1  0.5889087E-006  0.7385833E+02  0.7818608E-02  0.1359940E+00
          2   -1    0    0  502    0  0.00000000000E+00  0.00000000000E+00  0.15309103158E+03  0.15309103158E+03  0.00000000000E+00 0. -1.
          1   -1    0    0  501    0 -0.00000000000E+00 -0.00000000000E+00 -0.58496717837E+03  0.58496717837E+03  0.00000000000E+00 0. -1.
         25    2    1    2    0    0  0.71359598833E+02  0.32215905901E+02 -0.32463698385E+03  0.35657449548E+03  0.12500457033E+03 0.  0.
          2    1    1    2  501    0 -0.72965179825E+02  0.34193225295E+02 -0.22900961712E+03  0.24277252492E+03  0.00000000000E+00 0. -1.
          1    1    1    2  502    0  0.16055809913E+01 -0.66409131195E+02  0.12177045418E+03  0.13871118955E+03  0.00000000000E+00 0. -1.
         22    1    3    3    0    0  0.83376027203E+02  0.62707844496E+02 -0.17800196304E+03  0.20632143495E+03  0.00000000000E+00 0. -1.
         22    1    3    3    0    0 -0.12016428370E+02 -0.30491938595E+02 -0.14663502081E+03  0.15025306053E+03  0.00000000000E+00 0. -1.
</event>
<event>
 7    1  0.5889087E-006  0.7209631E+02  0.7818608E-02  0.1369329E+00
          2   -1    0    0  502    0  0.00000000000E+00  0.00000000000E+00  0.54442472597E+03  0.54442472597E+03  0.00000000000E+00 0. -1.
          1   -1    0    0  501    0 -0.00000000000E+00 -0.00000000000E+00 -0.11448063937E+04  0.11448063937E+04  0.00000000000E+00 0. -1.
         25    2    1    2    0    0 -0.97522895741E+02 -0.77485997276E+02  0.34084785043E+02  0.17973291079E+03  0.12500940637E+03 0.  0.
          2    1    1    2  501    0  0.60356650940E+02  0.17790164268E+02 -0.10682249398E+04  0.10700766035E+04  0.00000000000E+00 0. -1.
          1    1    1    2  502    0  0.37166244800E+02  0.59695833007E+02  0.43375848704E+03  0.43942160542E+03  0.00000000000E+00 0. -1.
         22    1    3    3    0    0 -0.72527587719E+02 -0.10308626356E+03 -0.57679409125E+01  0.12617566270E+03  0.00000000000E+00 0. -1.
         22    1    3    3    0    0 -0.24995308021E+02  0.25600266283E+02  0.39852725955E+02  0.53557248089E+02  0.00000000000E+00 0. -1.
</event>
<event>
 7    1  0.5889087E-006  0.1190469E+03  0.7818608E-02  0.1302754E+00
          2   -1    0    0  502    0  0.00000000000E+00  0.00000000000E+00  0.76399309780E+03  0.76399309780E+03  0.00000000000E+00 0. -1.
          1   -1    0    0  501    0 -0.00000000000E+00 -0.00000000000E+00 -0.22388983166E+04  0.22388983166E+04  0.00000000000E+00 0. -1.
         25    2    1    2    0    0 -0.87275223611E+02 -0.16064494231E+03  0.16860676170E+03  0.27834715274E+03  0.12500054079E+03 0.  0.
          2    1    1    2  501    0  0.71941029505E+02  0.94292137356E+02 -0.21802648659E+04  0.21834883568E+04  0.00000000000E+00 0. -1.
          1    1    1    2  502    0  0.15334194106E+02  0.66352804958E+02  0.53675288538E+03  0.54105590487E+03  0.00000000000E+00 0. -1.
         22    1    3    3    0    0 -0.25385813583E+01 -0.34256306008E+02  0.11007856142E+03  0.11531360970E+03  0.00000000000E+00 0. -1.
         22    1    3    3    0    0 -0.84736642253E+02 -0.12638863631E+03  0.58528200278E+02  0.16303354304E+03  0.00000000000E+00 0. -1.
</event>
<event>
 7    1  0.5889087E-006  0.7335534E+02  0.7818608E-02  0.1480671E+00
          2   -1    0    0  502    0  0.00000000000E+00  0.00000000000E+00  0.81001325774E+02  0.81001325774E+02  0.00000000000E+00 0. -1.
          1   -1    0    0  501    0 -0.00000000000E+00 -0.00000000000E+00 -0.99253276073E+03  0.99253276073E+03  0.00000000000E+00 0. -1.
         25    2    1    2    0    0 -0.80937126515E+02  0.33590138637E+02 -0.22200635200E+03  0.26942196340E+03  0.12498903220E+03 0.  0.
          2    1    1    2  501    0  0.24008184571E+02  0.10966680886E+02 -0.72367728891E+03  0.72415846298E+03  0.00000000000E+00 0. -1.
          1    1    1    2  502    0  0.56928941944E+02 -0.44556819523E+02  0.34152205951E+02  0.79953660130E+02  0.00000000000E+00 0. -1.
         22    1    3    3    0    0 -0.11152903569E+02  0.71585977948E+02 -0.11917178757E+03  0.13946632013E+03  0.00000000000E+00 0. -1.
         22    1    3    3    0    0 -0.69784222946E+02 -0.37995839311E+02 -0.10283456443E+03  0.12995564327E+03  0.00000000000E+00 0. -1.
</event>
<event>
 7    1  0.5889087E-006  0.4233891E+02  0.7818608E-02  0.1500170E+00
          2   -1    0    0  502    0  0.00000000000E+00  0.00000000000E+00  0.20548886048E+04  0.20548886048E+04  0.00000000000E+00 0. -1.
          1   -1    0    0  501    0 -0.00000000000E+00 -0.00000000000E+00 -0.60617988431E+03  0.60617988431E+03  0.00000000000E+00 0. -1.
         25    2    1    2    0    0 -0.99241522078E+01  0.54879400360E+02  0.24596940475E+03  0.28149230780E+03  0.12500693540E+03 0.  0.
          2    1    1    2  501    0  0.34392938495E+02 -0.20275213388E+02 -0.58749012788E+03  0.58884514845E+03  0.00000000000E+00 0. -1.
          1    1    1    2  502    0 -0.24468786288E+02 -0.34604186971E+02  0.17902294436E+04  0.17907310328E+04  0.00000000000E+00 0. -1.
         22    1    3    3    0    0  0.52822474405E+01  0.57881060866E+02  0.25633772453E+03  0.26284434246E+03  0.00000000000E+00 0. -1.
         22    1    3    3    0    0 -0.15206399648E+02 -0.30016605061E+01 -0.10368319786E+02  0.18647965338E+02  0.00000000000E+00 0. -1.
</event>
<event>
 7    1  0.5889087E-006  0.1560936E+03  0.7818608E-02  0.1308720E+00
          2   -1    0    0  502    0  0.00000000000E+00  0.00000000000E+00  0.89096281996E+03  0.89096281996E+03  0.00000000000E+00 0. -1.
          1   -1    0    0  501    0 -0.00000000000E+00 -0.00000000000E+00 -0.40345924165E+04  0.40345924165E+04  0.00000000000E+00 0. -1.
         25    2    1    2    0    0  0.18937844132E+02 -0.16880476595E+03  0.59778835363E+02  0.21920807663E+03  0.12499992301E+03 0.  0.
          2    1    1    2  501    0 -0.61137663907E+02  0.14354193683E+03 -0.39525323228E+04  0.39556104288E+04  0.00000000000E+00 0. -1.
          1    1    1    2  502    0  0.42199819775E+02  0.25262829126E+02  0.74912389093E+03  0.75073673101E+03  0.00000000000E+00 0. -1.
         22    1    3    3    0    0  0.64375275018E+02 -0.10737830044E+03  0.67810709012E+02  0.14238176743E+03  0.00000000000E+00 0.  1.
         22    1    3    3    0    0 -0.45437430885E+02 -0.61426465511E+02 -0.80318736489E+01  0.76826309198E+02  0.00000000000E+00 0.  1.
</event>
<event>
 7    1  0.5889087E-006  0.4862739E+02  0.7818608E-02  0.1513803E+00
          2   -1    0    0  502    0  0.00000000000E+00  0.00000000000E+00  0.14357203382E+03  0.14357203382E+03  0.00000000000E+00 0. -1.
          1   -1    0    0  501    0 -0.00000000000E+00 -0.00000000000E+00 -0.30778598572E+03  0.30778598572E+03  0.00000000000E+00 0. -1.
         25    2    1    2    0    0 -0.31556852655E+02 -0.59759643324E+02 -0.14765938925E+03  0.20491658350E+03  0.12498184284E+03 0.  0.
          2    1    1    2  501    0 -0.71010810773E+01  0.30875261368E+02 -0.12435790753E+03  0.12833002877E+03  0.00000000000E+00 0. -1.
          1    1    1    2  502    0  0.38657933732E+02  0.28884381955E+02  0.10780334489E+03  0.11811140728E+03  0.00000000000E+00 0. -1.
         22    1    3    3    0    0 -0.46735349564E+02  0.57722034837E+01 -0.52026798863E+01  0.47376989245E+02  0.00000000000E+00 0.  1.
         22    1    3    3    0    0  0.15178496909E+02 -0.65531846807E+02 -0.14245670936E+03  0.15753959425E+03  0.00000000000E+00 0.  1.
</event>
<event>
 7    1  0.5889087E-006  0.6766743E+02  0.7818608E-02  0.1475829E+00
          2   -1    0    0  502    0  0.00000000000E+00  0.00000000000E+00  0.87083856760E+03  0.87083856760E+03  0.00000000000E+00 0. -1.
          1   -1    0    0  501    0 -0.00000000000E+00 -0.00000000000E+00 -0.43688750402E+03  0.43688750402E+03  0.00000000000E+00 0. -1.
         25    2    1    2    0    0  0.22060927430E+02 -0.31934740614E+02  0.92053334425E+01  0.13117622562E+03  0.12496380207E+03 0.  0.
          2    1    1    2  501    0  0.14609966627E+02 -0.25755742437E+02 -0.37385646518E+03  0.37502728694E+03  0.00000000000E+00 0. -1.
          1    1    1    2  502    0 -0.36670894057E+02  0.57690483051E+02  0.79860219532E+03  0.80152255905E+03  0.00000000000E+00 0. -1.
         22    1    3    3    0    0 -0.42955341037E+02 -0.96965227296E+00  0.34234285178E+02  0.54937126161E+02  0.00000000000E+00 0. -1.
         22    1    3    3    0    0  0.65016268467E+02 -0.30965088341E+02 -0.25028951735E+02  0.76239099459E+02  0.00000000000E+00 0. -1.
</event>
<event>
 7    1  0.6457790E-006  0.1267473E+03  0.7818608E-02  0.1295916E+00
          2   -1    0    0  502    0  0.00000000000E+00  0.00000000000E+00  0.10321845144E+04  0.10321845144E+04  0.00000000000E+00 0. -1.
          1   -1    0    0  501    0 -0.00000000000E+00 -0.00000000000E+00 -0.14222941276E+04  0.14222941276E+04  0.00000000000E+00 0. -1.
         25    2    1    2    0    0  0.41190699927E+02  0.60302765637E+02 -0.29170147862E+03  0.32565043115E+03  0.12500141350E+03 0.  0.
          2    1    1    2  501    0 -0.72471210855E+02 -0.12082729471E+03 -0.11080090023E+04  0.11169311799E+04  0.00000000000E+00 0. -1.
          1    1    1    2  502    0  0.31280510928E+02  0.60524529075E+02  0.10096008677E+04  0.10118970309E+04  0.00000000000E+00 0. -1.
         22    1    3    3    0    0  0.69708706077E+02  0.41648682686E+01 -0.87436785993E+02  0.11190103384E+03  0.00000000000E+00 0.  1.
         22    1    3    3    0    0 -0.28518006150E+02  0.56137897369E+02 -0.20426469262E+03  0.21374939731E+03  0.00000000000E+00 0.  1.
</event>
<event>
 7    1  0.5889087E-006  0.1743434E+03  0.7818608E-02  0.1175382E+00
          2   -1    0    0  502    0  0.00000000000E+00  0.00000000000E+00  0.52351679252E+03  0.52351679252E+03  0.00000000000E+00 0. -1.
          1   -1    0    0  501    0 -0.00000000000E+00 -0.00000000000E+00 -0.16001970288E+04  0.16001970288E+04  0.00000000000E+00 0. -1.
         25    2    1    2    0    0  0.10017385833E+03 -0.49993148750E+02  0.12141281258E+03  0.20712362513E+03  0.12500003286E+03 0.  0.
          2    1    1    2  501    0  0.23489343247E+02  0.17288756413E+03 -0.15309384954E+04  0.15408486414E+04  0.00000000000E+00 0. -1.
          1    1    1    2  502    0 -0.12366320157E+03 -0.12289441538E+03  0.33284544650E+03  0.37574155481E+03  0.00000000000E+00 0. -1.
         22    1    3    3    0    0  0.77493554819E+02 -0.30268635986E+02  0.11935122550E+01  0.83203760939E+02  0.00000000000E+00 0.  1.
         22    1    3    3    0    0  0.22680303508E+02 -0.19724512764E+02  0.12021930032E+03  0.12391986419E+03  0.00000000000E+00 0.  1.
</event>
<event>
 7    1  0.5889087E-006  0.7924019E+02  0.7818608E-02  0.1438047E+00
          2   -1    0    0  502    0  0.00000000000E+00  0.00000000000E+00  0.86423699409E+03  0.86423699409E+03  0.00000000000E+00 0. -1.
          1   -1    0    0  501    0 -0.00000000000E+00 -0.00000000000E+00 -0.36879796306E+03  0.36879796306E+03  0.00000000000E+00 0. -1.
         25    2    1    2    0    0  0.45147148360E+02  0.26380489547E+02  0.22691081066E+02  0.13737491497E+03  0.12499114716E+03 0.  0.
          2    1    1    2  501    0 -0.57362295769E+02 -0.57372875266E+02 -0.30581050283E+03  0.31638922775E+03  0.00000000000E+00 0. -1.
          1    1    1    2  502    0  0.12215147408E+02  0.30992385719E+02  0.77855845280E+03  0.77927081443E+03  0.00000000000E+00 0. -1.
         22    1    3    3    0    0  0.23964774422E+02 -0.48752720981E+02 -0.49832216018E+01  0.54552458365E+02  0.00000000000E+00 0.  1.
         22    1    3    3    0    0  0.21182373938E+02  0.75133210528E+02  0.27674302668E+02  0.82822456605E+02  0.00000000000E+00 0.  1.
</event>
<event>
 7    1  0.5889087E-006  0.2275131E+03  0.7818608E-02  0.1244393E+00
          2   -1    0    0  502    0  0.00000000000E+00  0.00000000000E+00  0.12366041349E+04  0.12366041349E+04  0.00000000000E+00 0. -1.
          1   -1    0    0  501    0 -0.00000000000E+00 -0.00000000000E+00 -0.66834046610E+03  0.66834046610E+03  0.00000000000E+00 0. -1.
         25    2    1    2    0    0 -0.24715302522E+03 -0.11996733275E+03  0.44257604057E+03  0.53571494515E+03  0.12506067314E+03 0.  0.
          2    1    1    2  501    0  0.21582124080E+03  0.65921889619E+02 -0.59990900250E+03  0.64094876144E+03  0.00000000000E+00 0. -1.
          1    1    1    2  502    0  0.31331784417E+02  0.54045443130E+02  0.72559663069E+03  0.72828089437E+03  0.00000000000E+00 0. -1.
         22    1    3    3    0    0 -0.13760648439E+03  0.12075119327E+01  0.18196827643E+03  0.22814349926E+03  0.00000000000E+00 0.  1.
         22    1    3    3    0    0 -0.10954654083E+03 -0.12117484468E+03  0.26060776414E+03  0.30757144589E+03  0.00000000000E+00 0.  1.
</event>
<event>
 7    1  0.5889087E-006  0.8265854E+02  0.7818608E-02  0.1467177E+00
          2   -1    0    0  502    0  0.00000000000E+00  0.00000000000E+00  0.69816525085E+03  0.69816525085E+03  0.00000000000E+00 0. -1.
          1   -1    0    0  501    0 -0.00000000000E+00 -0.00000000000E+00 -0.11838401066E+04  0.11838401066E+04  0.00000000000E+00 0. -1.
         25    2    1    2    0    0 -0.17728988818E+02 -0.77461780564E+02 -0.19598457511E+02  0.14941487105E+03  0.12500423857E+03 0.  0.
          2    1    1    2  501    0 -0.75645653523E+01  0.82481948765E+02 -0.10975097534E+04  0.11006307979E+04  0.00000000000E+00 0. -1.
          1    1    1    2  502    0  0.25293554170E+02 -0.50201682016E+01  0.63143335511E+03  0.63195968853E+03  0.00000000000E+00 0. -1.
         22    1    3    3    0    0 -0.26360261427E+02 -0.10253343335E+03 -0.42789749684E+02  0.11418813868E+03  0.00000000000E+00 0.  1.
         22    1    3    3    0    0  0.86312726090E+01  0.25071652789E+02  0.23191292174E+02  0.35226732365E+02  0.00000000000E+00 0.  1.
</event>
<event>
 7    1  0.5889087E-006  0.1142860E+03  0.7818608E-02  0.1275046E+00
          2   -1    0    0  502    0  0.00000000000E+00  0.00000000000E+00  0.54662589769E+03  0.54662589769E+03  0.00000000000E+00 0. -1.
          1   -1    0    0  501    0 -0.00000000000E+00 -0.00000000000E+00 -0.15700893956E+04  0.15700893956E+04  0.00000000000E+00 0. -1.
         25    2    1    2    0    0  0.11058677199E+03 -0.15969357765E+03 -0.18222748275E+02  0.23170727842E+03  0.12499888575E+03 0.  0.
          2    1    1    2  501    0 -0.72854861945E+02  0.56178954350E+02 -0.14367309961E+04  0.14396735259E+04  0.00000000000E+00 0. -1.
          1    1    1    2  502    0 -0.37731910044E+02  0.10351462329E+03  0.43149024650E+03  0.44533448901E+03  0.00000000000E+00 0. -1.
         22    1    3    3    0    0  0.15983850237E+02 -0.53641865759E+02  0.49096590559E+02  0.74454069298E+02  0.00000000000E+00 0. -1.
         22    1    3    3    0    0  0.94602921752E+02 -0.10605171189E+03 -0.67319338834E+02  0.15725320912E+03  0.00000000000E+00 0. -1.
</event>
<event>
 7    1  0.5889087E-006  0.1332719E+03  0.7818608E-02  0.1248781E+00
          2   -1    0    0  502    0  0.00000000000E+00  0.00000000000E+00  0.57656141490E+03  0.57656141490E+03  0.00000000000E+00 0. -1.
          1   -1    0    0  501    0 -0.00000000000E+00 -0.00000000000E+00 -0.99421445409E+03  0.99421445409E+03  0.00000000000E+00 0. -1.
         25    2    1    2    0    0  0.84647553086E+02 -0.28005462049E+02 -0.71660959509E+02  0.16944327728E+03  0.12500486771E+03 0.  0.
          2    1    1    2  501    0  0.36704515748E+02  0.95217982390E+02 -0.86148113644E+03  0.86750414068E+03  0.00000000000E+00 0. -1.
          1    1    1    2  502    0 -0.12135206883E+03 -0.67212520341E+02  0.51548905676E+03  0.53382845104E+03  0.00000000000E+00 0. -1.
         22    1    3    3    0    0  0.61147204251E+02 -0.45908199707E+02  0.14969275106E+02  0.77914200152E+02  0.00000000000E+00 0.  1.
         22    1    3    3    0    0  0.23500348835E+02  0.17902737659E+02 -0.86630234615E+02  0.91529077131E+02  0.00000000000E+00 0.  1.
</event>
<event>
 7    1  0.5889087E-006  0.1359245E+03  0.7818608E-02  0.1429440E+00
          2   -1    0    0  502    0  0.00000000000E+00  0.00000000000E+00  0.29591681077E+04  0.29591681077E+04  0.00000000000E+00 0. -1.
          1   -1    0    0  501    0 -0.00000000000E+00 -0.00000000000E+00 -0.93066862767E+03  0.93066862767E+03  0.00000000000E+00 0. -1.
         25    2    1    2    0    0 -0.10414103956E+03 -0.83109102742E+02  0.10631388245E+04  0.10787228932E+04  0.12500576413E+03 0.  0.
          2    1    1    2  501    0 -0.14685948863E+02  0.14620122664E+02 -0.92026930023E+03  0.92050258556E+03  0.00000000000E+00 0. -1.
          1    1    1    2  502    0  0.11882698843E+03  0.68488980079E+02  0.18856299558E+04  0.18906112566E+04  0.00000000000E+00 0. -1.
         22    1    3    3    0    0  0.69609384767E+01 -0.39501608946E+02  0.93150771992E+02  0.10141941676E+03  0.00000000000E+00 0.  1.
         22    1    3    3    0    0 -0.11110197804E+03 -0.43607493797E+02  0.96998805249E+03  0.97730347642E+03  0.00000000000E+00 0.  1.
</event>
<event>
 7    1  0.5889087E-006  0.1893590E+03  0.7818608E-02  0.1169868E+00
          2   -1    0    0  502    0  0.00000000000E+00  0.00000000000E+00  0.16603418000E+04  0.16603418000E+04  0.00000000000E+00 0. -1.
          1   -1    0    0  501    0 -0.00000000000E+00 -0.00000000000E+00 -0.16543520969E+04  0.16543520969E+04  0.00000000000E+00 0. -1.
         25    2    1    2    0    0  0.16679974634E+03  0.12642348507E+03  0.59283034023E+03  0.64099776823E+03  0.12500109450E+03 0.  0.
          2    1    1    2  501    0  0.31378397780E+02 -0.16412962931E+03 -0.16161694684E+04  0.16247851826E+04  0.00000000000E+00 0. -1.
          1    1    1    2  502    0 -0.19817814412E+03  0.37706144241E+02  0.10293288312E+04  0.10489109461E+04  0.00000000000E+00 0. -1.
         22    1    3    3    0    0  0.98403884023E+02  0.94124955342E+02  0.51406745224E+03  0.53179712021E+03  0.00000000000E+00 0. -1.
         22    1    3    3    0    0  0.68395862316E+02  0.32298529729E+02  0.78762887990E+02  0.10920064803E+03  0.00000000000E+00 0. -1.
</event>
<event>
 7    1  0.7831640E-006  0.9481372E+02  0.7818608E-02  0.1332928E+00
          2   -1    0    0  502    0  0.00000000000E+00  0.00000000000E+00  0.10148851716E+04  0.10148851716E+04  0.00000000000E+00 0. -1.
          1   -1    0    0  501    0 -0.00000000000E+00 -0.00000000000E+00 -0.16002414070E+04  0.16002414070E+04  0.00000000000E+00 0. -1.
         25    2    1    2    0    0 -0.11842205494E+03  0.26106155130E+02 -0.31115638728E+03  0.35657909755E+03  0.12500016413E+03 0.  0.
          2    1    1    2  501    0  0.51090944117E+02  0.40572710831E+02 -0.12632673640E+04  0.12649509328E+04  0.00000000000E+00 0. -1.
          1    1    1    2  502    0  0.67331110823E+02 -0.66678865961E+02  0.98906751593E+03  0.99359654826E+03  0.00000000000E+00 0. -1.
         22    1    3    3    0    0 -0.13429775606E+03  0.30636834975E+02 -0.19209722785E+03  0.23638072656E+03  0.00000000000E+00 0. -1.
         22    1    3    3    0    0  0.15875701118E+02 -0.45306798448E+01 -0.11905915943E+03  0.12019837099E+03  0.00000000000E+00 0. -1.
</event>
<event>
 7    1  0.5889087E-006  0.2019947E+03  0.7818608E-02  0.1176104E+00
          2   -1    0    0  502    0  0.00000000000E+00  0.00000000000E+00  0.16894134641E+04  0.16894134641E+04  0.00000000000E+00 0. -1.
          1   -1    0    0  501    0 -0.00000000000E+00 -0.00000000000E+00 -0.36118315011E+03  0.36118315011E+03  0.00000000000E+00 0. -1.
         25    2    1    2    0    0  0.75846799300E+02 -0.10554318639E+03 -0.23287872246E+03  0.29453299443E+03  0.12500033712E+03 0.  0.
          2    1    1    2  501    0 -0.27429684458E+03  0.14321851133E+03  0.17536076312E+03  0.35567077217E+03  0.00000000000E+00 0. -1.
          1    1    1    2  502    0  0.19845004528E+03 -0.37675324941E+02  0.13857482734E+04  0.14003928476E+04  0.00000000000E+00 0. -1.
         22    1    3    3    0    0  0.51962348369E+02  0.13288315240E+02 -0.40720677883E+02  0.67341210096E+02  0.00000000000E+00 0. -1.
         22    1    3    3    0    0  0.23884450931E+02 -0.11883150163E+03 -0.19215804457E+03  0.22719178434E+03  0.00000000000E+00 0. -1.
</event>
<event>
 7    1  0.5889087E-006  0.6702962E+02  0.7818608E-02  0.1415374E+00
          2   -1    0    0  502    0  0.00000000000E+00  0.00000000000E+00  0.33441483766E+03  0.33441483766E+03  0.00000000000E+00 0. -1.
          1   -1    0    0  501    0 -0.00000000000E+00 -0.00000000000E+00 -0.67104896397E+02  0.67104896397E+02  0.00000000000E+00 0. -1.
         25    2    1    2    0    0  0.37606467584E+02 -0.31084908528E+02  0.59114111997E+02  0.14662823433E+03  0.12499937169E+03 0.  0.
          2    1    1    2  501    0  0.33646001605E+02  0.32536765746E+02  0.15285074287E+02  0.49237465868E+02  0.00000000000E+00 0. -1.
          1    1    1    2  502    0 -0.71252469189E+02 -0.14518572179E+01  0.19291075498E+03  0.20565403386E+03  0.00000000000E+00 0. -1.
         22    1    3    3    0    0  0.27622216728E+01 -0.40371533057E+02  0.90300409774E+02  0.98952789527E+02  0.00000000000E+00 0. -1.
         22    1    3    3    0    0  0.34844245911E+02  0.92866245288E+01 -0.31186297777E+02  0.47675444804E+02  0.00000000000E+00 0. -1.
</event>
<event>
 7    1  0.5889087E-006  0.4231571E+02  0.7818608E-02  0.1540979E+00
          2   -1    0    0  502    0  0.00000000000E+00  0.00000000000E+00  0.92400118297E+03  0.92400118297E+03  0.00000000000E+00 0. -1.
          1   -1    0    0  501    0 -0.00000000000E+00 -0.00000000000E+00 -0.41186009130E+02  0.41186009130E+02  0.00000000000E+00 0. -1.
         25    2    1    2    0    0 -0.56310510111E+02  0.28122623653E+02  0.14299110695E+03  0.20008284560E+03  0.12499973170E+03 0.  0.
          2    1    1    2  501    0  0.39098120279E+02 -0.30504664932E+01  0.18890329488E+02  0.43529448692E+02  0.00000000000E+00 0. -1.
          1    1    1    2  502    0  0.17212389831E+02 -0.25072157160E+02  0.72093373739E+03  0.72157489780E+03  0.00000000000E+00 0. -1.
         22    1    3    3    0    0 -0.80841176672E+02  0.57719812115E+02  0.11795021577E+03  0.15420481820E+03  0.00000000000E+00 0.  1.
         22    1    3    3    0    0  0.24530666561E+02 -0.29597188461E+02  0.25040891180E+02  0.45878027397E+02  0.00000000000E+00 0.  1.
</event>
<event>
 7    1  0.5889087E-006  0.1029905E+03  0.7818608E-02  0.1314323E+00
          2   -1    0    0  502    0  0.00000000000E+00  0.00000000000E+00  0.10468767586E+04  0.10468767586E+04  0.00000000000E+00 0. -1.
          1   -1    0    0  501    0 -0.00000000000E+00 -0.00000000000E+00 -0.92670988623E+02  0.92670988623E+02  0.00000000000E+00 0. -1.
         25    2    1    2    0    0  0.13537126215E+03 -0.93064040464E+02  0.29692027061E+03  0.36163239336E+03  0.12502018470E+03 0.  0.
          2    1    1    2  501    0 -0.86085619522E+02  0.42156557335E+02 -0.19176102442E+02  0.97752913613E+02  0.00000000000E+00 0. -1.
          1    1    1    2  502    0 -0.49285642631E+02  0.50907483129E+02  0.67646160176E+03  0.68016244021E+03  0.00000000000E+00 0. -1.
         22    1    3    3    0    0  0.96017461819E+02 -0.98818527645E+02  0.12790423206E+03  0.18799985893E+03  0.00000000000E+00 0. -1.
         22    1    3    3    0    0  0.39353800334E+02  0.57544871810E+01  0.16901603855E+03  0.17363253442E+03  0.00000000000E+00 0. -1.
</event>
<event>
 7    1  0.5889087E-006  0.1120222E+03  0.7818608E-02  0.1390856E+00
          2   -1    0    0  502    0  0.00000000000E+00  0.00000000000E+00  0.16106124392E+04  0.16106124392E+04  0.00000000000E+00 0. -1.
          1   -1    0    0  501    0 -0.00000000000E+00 -0.00000000000E+00 -0.51603397264E+03  0.51603397264E+03  0.00000000000E+00 0. -1.
         25    2    1    2    0    0  0.22561005840E+02 -0.92991542474E+02 -0.33617118077E+03  0.37120343250E+03  0.12499799825E+03 0.  0.
          2    1    1    2  501    0  0.33742840026E+02 -0.39837750523E+01 -0.15857152759E+03  0.16217083301E+03  0.00000000000E+00 0. -1.
          1    1    1    2  502    0 -0.56303845867E+02  0.96975317526E+02  0.15893211749E+04  0.15932721463E+04  0.00000000000E+00 0. -1.
         22    1    3    3    0    0 -0.42022792442E+02 -0.37728043559E+02 -0.60665030224E+02  0.82882846522E+02  0.00000000000E+00 0.  1.
         22    1    3    3    0    0  0.64583798282E+02 -0.55263498915E+02 -0.27550615054E+03  0.28832058598E+03  0.00000000000E+00 0.  1.
</event>
<event>
 7    1  0.5889087E-006  0.1678564E+03  0.7818608E-02  0.1291164E+00
          2   -1    0    0  502    0  0.00000000000E+00  0.00000000000E+00  0.13235896554E+04  0.13235896554E+04  0.00000000000E+00 0. -1.
          1   -1    0    0  501    0 -0.00000000000E+00 -0.00000000000E+00 -0.24435973622E+04  0.24435973622E+04  0.00000000000E+00 0. -1.
         25    2    1    2    0    0  0.17010400999E+03 -0.13694337629E+03  0.21817934633E+03  0.33304023668E+03  0.12499883822E+03 0.  0.
          2    1    1    2  501    0 -0.12056649800E+03  0.11602681083E+03 -0.23825409398E+04  0.23884094772E+04  0.00000000000E+00 0. -1.
          1    1    1    2  502    0 -0.49537511984E+02  0.20916565459E+02  0.10443538866E+04  0.10457373037E+04  0.00000000000E+00 0. -1.
         22    1    3    3    0    0  0.18174010534E+03 -0.12255275614E+03  0.22422730118E+03  0.31357060851E+03  0.00000000000E+00 0.  1.
         22    1    3    3    0    0 -0.11636095350E+02 -0.14390620147E+02 -0.60479548461E+01  0.19469628169E+02  0.00000000000E+00 0.  1.
</event>
<event>
 7    1  0.5889087E-006  0.1866172E+03  0.7818608E-02  0.1293387E+00
          2   -1    0    0  502    0  0.00000000000E+00  0.00000000000E+00  0.86416463620E+03  0.86416463620E+03  0.00000000000E+00 0. -1.
          1   -1    0    0  501    0 -0.00000000000E+00 -0.00000000000E+00 -0.25527292379E+03  0.25527292379E+03  0.00000000000E+00 0. -1.
         25    2    1    2    0    0 -0.12595749964E+03 -0.18271613901E+03  0.17425301898E+03  0.30860820307E+03  0.12499771680E+03 0.  0.
          2    1    1    2  501    0  0.11875127794E+03  0.13589398311E+03 -0.14361466558E+03  0.23063870627E+03  0.00000000000E+00 0. -1.
          1    1    1    2  502    0  0.72062217076E+01  0.46822155893E+02  0.57825335901E+03  0.58019065066E+03  0.00000000000E+00 0. -1.
         22    1    3    3    0    0 -0.11004534548E+03 -0.14009396986E+03  0.19000994171E+03  0.26046127620E+03  0.00000000000E+00 0.  1.
         22    1    3    3    0    0 -0.15912154165E+02 -0.42622169150E+02 -0.15756922720E+02  0.48146926868E+02  0.00000000000E+00 0.  1.
</event>
<event>
 7    1  0.5889087E-006  0.5526681E+02  0.7818608E-02  0.1421224E+00
          2   -1    0    0  502    0  0.00000000000E+00  0.00000000000E+00  0.23812773685E+04  0.23812773685E+04  0.00000000000E+00 0. -1.
          1   -1    0    0  501    0 -0.00000000000E+00 -0.00000000000E+00 -0.30627810381E+03  0.30627810381E+03  0.00000000000E+00 0. -1.
         25    2    1    2    0    0  0.27167598581E+02  0.54932587892E+02  0.12158699584E+04  0.12238142788E+04  0.12500386237E+03 0.  0.
          2    1    1    2  501    0  0.30156940472E+02 -0.45111992290E+02 -0.29913536213E+03  0.30401726560E+03  0.00000000000E+00 0. -1.
          1    1    1    2  502    0 -0.57324539053E+02 -0.98205956025E+01  0.11582646685E+04  0.11597239280E+04  0.00000000000E+00 0. -1.
         22    1    3    3    0    0  0.55874456210E+02 -0.18863409319E+02  0.59500324357E+03  0.59791859223E+03  0.00000000000E+00 0.  1.
         22    1    3    3    0    0 -0.28706857629E+02  0.73795997212E+02  0.62086671479E+03  0.62589568653E+03  0.00000000000E+00 0.  1.
</event>
<event>
 7    1  0.5889087E-006  0.1165890E+03  0.7818608E-02  0.1275243E+00
          2   -1    0    0  502    0  0.00000000000E+00  0.00000000000E+00  0.62109863071E+02  0.62109863071E+02  0.00000000000E+00 0. -1.
          1   -1    0    0  501    0 -0.00000000000E+00 -0.00000000000E+00 -0.12229392861E+04  0.12229392861E+04  0.00000000000E+00 0. -1.
         25    2    1    2    0    0 -0.91848928765E+02  0.16696765047E+02 -0.49215371051E+03  0.51629117630E+03  0.12500518502E+03 0.  0.
          2    1    1    2  501    0  0.22786196374E+02  0.87079704953E+02 -0.63262056100E+03  0.63899206564E+03  0.00000000000E+00 0. -1.
          1    1    1    2  502    0  0.69062732391E+02 -0.10377647000E+03 -0.36055151549E+02  0.12976590725E+03  0.00000000000E+00 0. -1.
         22    1    3    3    0    0 -0.59197616586E+02  0.70944514309E+02 -0.27607429512E+03  0.29112625843E+03  0.00000000000E+00 0. -1.
         22    1    3    3    0    0 -0.32651312179E+02 -0.54247749262E+02 -0.21607941539E+03  0.22516491788E+03  0.00000000000E+00 0. -1.
</event>
<event>
 7    1  0.5889087E-006  0.6309161E+02  0.7818608E-02  0.1413117E+00
          2   -1    0    0  502    0  0.00000000000E+00  0.00000000000E+00  0.35106795336E+03  0.35106795336E+03  0.00000000000E+00 0. -1.
          1   -1    0    0  501    0 -0.00000000000E+00 -0.00000000000E+00 -0.82931698645E+03  0.82931698645E+03  0.00000000000E+00 0. -1.
         25    2    1    2    0    0 -0.10865614450E+03  0.90601775310E+01 -0.28004973254E+02  0.16822336178E+03  0.12500630531E+03 0.  0.
          2    1    1    2  501    0  0.47603785951E+02 -0.17165865169E+02 -0.72693747382E+03  0.72869669837E+03  0.00000000000E+00 0. -1.
          1    1    1    2  502    0  0.61052358550E+02  0.81056876378E+01  0.27669341398E+03  0.28346487965E+03  0.00000000000E+00 0. -1.
         22    1    3    3    0    0 -0.53125364740E+01  0.39160432628E+02 -0.44292811709E+02  0.59360051351E+02  0.00000000000E+00 0.  1.
         22    1    3    3    0    0 -0.10334360803E+03 -0.30100255096E+02  0.16287838455E+02  0.10886331043E+03  0.00000000000E+00 0.  1.
</event>
<event>
 7    1  0.5889087E-006  0.7685486E+02  0.7818608E-02  0.1421544E+00
          2   -1    0    0  502    0  0.00000000000E+00  0.00000000000E+00  0.71861702939E+03  0.71861702939E+03  0.00000000000E+00 0. -1.
          1   -1    0    0  501    0 -0.00000000000E+00 -0.00000000000E+00 -0.27097256991E+02  0.27097256991E+02  0.00000000000E+00 0. -1.
         25    2    1    2    0    0 -0.55324667503E+02 -0.32382033027E+02  0.27205870848E+03  0.30618738492E+03  0.12500143570E+03 0.  0.
          2    1    1    2  501    0  0.57478596164E+02  0.71247901943E+02  0.27080729670E+03  0.28586123293E+03  0.00000000000E+00 0. -1.
          1    1    1    2  502    0 -0.21539286618E+01 -0.38865868917E+02  0.14865376722E+03  0.15366566853E+03  0.00000000000E+00 0. -1.
         22    1    3    3    0    0 -0.50700936857E+02 -0.24584639242E+02  0.28492782683E+03  0.29044596053E+03  0.00000000000E+00 0. -1.
         22    1    3    3    0    0 -0.46237306457E+01 -0.77973937852E+01 -0.12869118348E+02  0.15741424395E+02  0.00000000000E+00 0. -1.
</event>
<event>
 7    1  0.5889087E-006  0.1876524E+03  0.7818608E-02  0.1355886E+00
          2   -1    0    0  502    0  0.00000000000E+00  0.00000000000E+00  0.21470374341E+03  0.21470374341E+03  0.00000000000E+00 0. -1.
          1   -1    0    0  501    0 -0.00000000000E+00 -0.00000000000E+00 -0.60526652647E+03  0.60526652647E+03  0.00000000000E+00 0. -1.
         25    2    1    2    0    0 -0.61510278628E+02 -0.15087976982E+03 -0.48466925513E+03  0.52637927895E+03  0.12499055614E+03 0.  0.
          2    1    1    2  501    0 -0.11266636886E+02 -0.24597099794E+02 -0.48849487288E+02  0.55841085532E+02  0.00000000000E+00 0. -1.
          1    1    1    2  502    0  0.72776915514E+02  0.17547686962E+03  0.14295595935E+03  0.23774990540E+03  0.00000000000E+00 0. -1.
         22    1    3    3    0    0 -0.76167510582E+01 -0.27369310998E+02 -0.27932847808E+03  0.28076946549E+03  0.00000000000E+00 0.  1.
         22    1    3    3    0    0 -0.53893527569E+02 -0.12351045882E+03 -0.20534077705E+03  0.24560981347E+03  0.00000000000E+00 0.  1.
</event>
<event>
 7    1  0.5889087E-006  0.8022823E+02  0.7818608E-02  0.1364226E+00
          2   -1    0    0  502    0  0.00000000000E+00  0.00000000000E+00  0.36915415453E+03  0.36915415453E+03  0.00000000000E+00 0. -1.
          1   -1    0    0  501    0 -0.00000000000E+00 -0.00000000000E+00 -0.46630639305E+03  0.46630639305E+03  0.00000000000E+00 0. -1.
         25    2    1    2    0    0  0.14060230894E+02  0.12008545009E+03 -0.10686905969E+03  0.20411904942E+03  0.12500153999E+03 0.  0.
          2    1    1    2  501    0  0.22435010458E+02 -0.73730094228E+02 -0.30323595522E+03  0.31287617523E+03  0.00000000000E+00 0. -1.
          1    1    1    2  502    0 -0.36495241352E+02 -0.46355355864E+02  0.31295277639E+03  0.31846532293E+03  0.00000000000E+00 0. -1.
         22    1    3    3    0    0 -0.13574479299E+00  0.13629143811E+03 -0.11763261615E+03  0.18003557124E+03  0.00000000000E+00 0. -1.
         22    1    3    3    0    0  0.14195975687E+02 -0.16205988021E+02  0.10763556458E+02  0.24083478176E+02  0.00000000000E+00 0. -1.
</event>
<event>
 7    1  0.5889087E-006  0.6941066E+02  0.7818608E-02  0.1396964E+00
          2   -1    0    0  502    0  0.00000000000E+00  0.00000000000E+00  0.16144149594E+02  0.16144149594E+02  0.00000000000E+00 0. -1.
          1   -1    0    0  501    0 -0.00000000000E+00 -0.00000000000E+00 -0.14076587984E+04  0.14076587984E+04  0.00000000000E+00 0. -1.
         25    2    1    2    0    0  0.11426526665E+02 -0.23778258264E+02 -0.41437304968E+03  0.43362032757E+03  0.12500237237E+03 0.  0.
          2    1    1    2  501    0 -0.16579187654E+02  0.75747455438E+02 -0.83772068746E+03  0.84130166805E+03  0.00000000000E+00 0. -1.
          1    1    1    2  502    0  0.51526609886E+01 -0.51969197174E+02 -0.13942091163E+03  0.14888095234E+03  0.00000000000E+00 0. -1.
         22    1    3    3    0    0  0.20975711988E+02 -0.65861503447E+02 -0.14290331768E+03  0.15874216936E+03  0.00000000000E+00 0. -1.
         22    1    3    3    0    0 -0.95491853226E+01  0.42083245183E+02 -0.27146973200E+03  0.27487815820E+03  0.00000000000E+00 0. -1.
</event>
<event>
 7    1  0.5889087E-006  0.7958691E+02  0.7818608E-02  0.1444077E+00
          2   -1    0    0  502    0  0.00000000000E+00  0.00000000000E+00  0.71478791125E+03  0.71478791125E+03  0.00000000000E+00 0. -1.
          1   -1    0    0  501    0 -0.00000000000E+00 -0.00000000000E+00 -0.13564814549E+04  0.13564814549E+04  0.00000000000E+00 0. -1.
         25    2    1    2    0    0  0.87185590915E+01  0.50530877895E+02 -0.19719721527E+03  0.23903640713E+03  0.12498911685E+03 0.  0.
          2    1    1    2  501    0 -0.22428178309E+01 -0.81570914851E+02 -0.11365387898E+04  0.11394644642E+04  0.00000000000E+00 0. -1.
          1    1    1    2  502    0 -0.64757412606E+01  0.31040036956E+02  0.69204246139E+03  0.69276849487E+03  0.00000000000E+00 0. -1.
         22    1    3    3    0    0  0.66721273310E+02  0.20943109408E+02 -0.10550127356E+03  0.12657353936E+03  0.00000000000E+00 0.  1.
         22    1    3    3    0    0 -0.58002714219E+02  0.29587768487E+02 -0.91695941713E+02  0.11246286777E+03  0.00000000000E+00 0.  1.
</event>
<event>
 7    1  0.5889087E-006  0.5905260E+02  0.7818608E-02  0.1513249E+00
          2   -1    0    0  502    0  0.00000000000E+00  0.00000000000E+00  0.12054468593E+03  0.12054468593E+03  0.00000000000E+00 0. -1.
          1   -1    0    0  501    0 -0.00000000000E+00 -0.00000000000E+00 -0.37115076143E+03  0.37115076143E+03  0.00000000000E+00 0. -1.
         25    2    1    2    0    0 -0.55511171094E+02 -0.60570077065E+02 -0.66445518082E+02  0.16368184576E+03  0.12500606147E+03 0.  0.
          2    1    1    2  501    0  0.21324756038E+02  0.15197068262E+02 -0.24405862381E+03  0.24545938149E+03  0.00000000000E+00 0. -1.
          1    1    1    2  502    0  0.34186415056E+02  0.45373008804E+02  0.59898066389E+02  0.82554220119E+02  0.00000000000E+00 0. -1.
         22    1    3    3    0    0  0.12480120641E+02 -0.72159288211E+02 -0.59510496978E+02  0.94362150976E+02  0.00000000000E+00 0.  1.
         22    1    3    3    0    0 -0.67991291735E+02  0.11589211146E+02 -0.69350211047E+01  0.69319694781E+02  0.00000000000E+00 0.  1.
</event>
<event>
 7    1  0.5889087E-006  0.8269477E+02  0.7818608E-02  0.1377479E+00
          2   -1    0    0  502    0  0.00000000000E+00  0.00000000000E+00  0.34975390892E+04  0.34975390892E+04  0.00000000000E+00 0. -1.
          1   -1    0    0  501    0 -0.00000000000E+00 -0.00000000000E+00 -0.53515469787E+03  0.53515469787E+03  0.00000000000E+00 0. -1.
         25    2    1    2    0    0 -0.29202911560E+02 -0.12526440934E+03  0.27093745126E+03  0.32492328797E+03  0.12499623305E+03 0.  0.
          2    1    1    2  501    0 -0.52760415883E+01  0.51025604274E+02 -0.50634212265E+03  0.50893397811E+03  0.00000000000E+00 0. -1.
          1    1    1    2  502    0  0.34478953148E+02  0.74238805067E+02  0.31977890627E+04  0.31988365210E+04  0.00000000000E+00 0. -1.
         22    1    3    3    0    0  0.28614955321E+02 -0.54806463521E+02  0.32905418773E+02  0.70038066053E+02  0.00000000000E+00 0.  1.
         22    1    3    3    0    0 -0.57817866881E+02 -0.70457945820E+02  0.23803203249E+03  0.25488522192E+03  0.00000000000E+00 0.  1.
</event>
<event>
 7    1  0.7734939E-006  0.7922869E+02  0.7818608E-02  0.1334465E+00
          2   -1    0    0  502    0  0.00000000000E+00  0.00000000000E+00  0.65838770583E+03  0.65838770583E+03  0.00000000000E+00 0. -1.
          1   -1    0    0  501    0 -0.00000000000E+00 -0.00000000000E+00 -0.20022177947E+04  0.20022177947E+04  0.00000000000E+00 0. -1.
         25    2    1    2    0    0  0.41996679422E+02 -0.10164882613E+03 -0.36241313957E+03  0.39882908943E+03  0.12500061565E+03 0.  0.
          2    1    1    2  501    0  0.29667657998E+02  0.73397607740E+02 -0.16183082695E+04  0.16202435107E+04  0.00000000000E+00 0. -1.
          1    1    1    2  502    0 -0.71664337421E+02  0.28251218387E+02  0.63689132019E+03  0.64153290043E+03  0.00000000000E+00 0. -1.
         22    1    3    3    0    0 -0.11999588672E+02  0.23349990185E+02 -0.31555277048E+02  0.41048114202E+02  0.00000000000E+00 0. -1.
         22    1    3    3    0    0  0.53996268095E+02 -0.12499881631E+03 -0.33085786252E+03  0.35778097523E+03  0.00000000000E+00 0. -1.
</event>
<event>
 7    1  0.5889087E-006  0.4631773E+02  0.7818608E-02  0.1519671E+00
          2   -1    0    0  502    0  0.00000000000E+00  0.00000000000E+00  0.17192587842E+04  0.17192587842E+04  0.00000000000E+00 0. -1.
          1   -1    0    0  501    0 -0.00000000000E+00 -0.00000000000E+00 -0.48199996721E+03  0.48199996721E+03  0.00000000000E+00 0. -1.
         25    2    1    2    0    0 -0.13883726042E+02  0.76069855058E+02 -0.36542030312E+02  0.15145950743E+03  0.12500112685E+03 0.  0.
          2    1    1    2  501    0  0.11250419886E+02 -0.29931235233E+02 -0.38701843348E+03  0.38833711984E+03  0.00000000000E+00 0. -1.
          1    1    1    2  502    0  0.26333061555E+01 -0.46138619825E+02  0.16608192808E+04  0.16614621241E+04  0.00000000000E+00 0. -1.
         22    1    3    3    0    0 -0.63684317349E+02  0.61246644206E+02 -0.73991232898E+00  0.88359443032E+02  0.00000000000E+00 0.  1.
         22    1    3    3    0    0  0.49800591307E+02  0.14823210851E+02 -0.35802117983E+02  0.63100064394E+02  0.00000000000E+00 0.  1.
</event>
<event>
 7    1  0.5889087E-006  0.7826259E+02  0.7818608E-02  0.1459900E+00
          2   -1    0    0  502    0  0.00000000000E+00  0.00000000000E+00  0.15525255746E+03  0.15525255746E+03  0.00000000000E+00 0. -1.
          1   -1    0    0  501    0 -0.00000000000E+00 -0.00000000000E+00 -0.28469585607E+03  0.28469585607E+03  0.00000000000E+00 0. -1.
         25    2    1    2    0    0  0.70033391619E+01 -0.66193151905E+02 -0.14286196931E+03  0.20116018776E+03  0.12500119498E+03 0.  0.
          2    1    1    2  501    0  0.28275045803E+02 -0.49573194217E+01 -0.97912850198E+02  0.10203420733E+03  0.00000000000E+00 0. -1.
          1    1    1    2  502    0 -0.35278384965E+02  0.71150471326E+02  0.11133152089E+03  0.13675401844E+03  0.00000000000E+00 0. -1.
         22    1    3    3    0    0  0.57506444394E+02 -0.14780909101E+02 -0.10277489090E+03  0.11869349022E+03  0.00000000000E+00 0.  1.
         22    1    3    3    0    0 -0.50503105232E+02 -0.51412242804E+02 -0.40087078415E+02  0.82466697545E+02  0.00000000000E+00 0.  1.
</event>
<event>
 7    1  0.5889087E-006  0.6433155E+02  0.7818608E-02  0.1387468E+00
          2   -1    0    0  502    0  0.00000000000E+00  0.00000000000E+00  0.18335034744E+03  0.18335034744E+03  0.00000000000E+00 0. -1.
          1   -1    0    0  501    0 -0.00000000000E+00 -0.00000000000E+00 -0.13740065966E+03  0.13740065966E+03  0.00000000000E+00 0. -1.
         25    2    1    2    0    0 -0.39529053685E+02 -0.32776226008E+02 -0.11688172462E+02  0.13564240045E+03  0.12500168139E+03 0.  0.
          2    1    1    2  501    0  0.56232644447E+02 -0.31248001303E+02 -0.33463017049E+02  0.72514284090E+02  0.00000000000E+00 0. -1.
          1    1    1    2  502    0 -0.16703590762E+02  0.64024227311E+02  0.91100877299E+02  0.11259432256E+03  0.00000000000E+00 0. -1.
         22    1    3    3    0    0 -0.79965023330E+02  0.37427172011E+01 -0.13210989094E+02  0.81135338300E+02  0.00000000000E+00 0. -1.
         22    1    3    3    0    0  0.40435969645E+02 -0.36518943209E+02  0.15228166319E+01  0.54507062155E+02  0.00000000000E+00 0. -1.
</event>
<event>
 7    1  0.5889087E-006  0.9652822E+02  0.7818608E-02  0.1457631E+00
          2   -1    0    0  502    0  0.00000000000E+00  0.00000000000E+00  0.12483710837E+04  0.12483710837E+04  0.00000000000E+00 0. -1.
          1   -1    0    0  501    0 -0.00000000000E+00 -0.00000000000E+00 -0.12230325939E+03  0.12230325939E+03  0.00000000000E+00 0. -1.
         25    2    1    2    0    0  0.42509813349E+02 -0.10426979638E+03  0.14708592136E+03  0.22347064952E+03  0.12500235304E+03 0.  0.
          2    1    1    2  501    0 -0.22490198869E+02  0.91656416999E+02 -0.57460185903E+02  0.11049154170E+03  0.00000000000E+00 0. -1.
          1    1    1    2  502    0 -0.20019614479E+02  0.12613379384E+02  0.10364420889E+04  0.10367121519E+04  0.00000000000E+00 0. -1.
         22    1    3    3    0    0  0.37220147479E+01 -0.11921216799E+03  0.13509097686E+03  0.18020811974E+03  0.00000000000E+00 0.  1.
         22    1    3    3    0    0  0.38787798601E+02  0.14942371603E+02  0.11994944495E+02  0.43262529779E+02  0.00000000000E+00 0.  1.
</event>
<event>
 7    1  0.5889087E-006  0.3393485E+02  0.7818608E-02  0.1599925E+00
          2   -1    0    0  502    0  0.00000000000E+00  0.00000000000E+00  0.22479632974E+04  0.22479632974E+04  0.00000000000E+00 0. -1.
          1   -1    0    0  501    0 -0.00000000000E+00 -0.00000000000E+00 -0.11503966166E+03  0.11503966166E+03  0.00000000000E+00 0. -1.
         25    2    1    2    0    0  0.25338688733E+02  0.10471252006E+02  0.27669003856E+03  0.30485273108E+03  0.12500445569E+03 0.  0.
          2    1    1    2  501    0 -0.14494219155E+02  0.21861119335E+02 -0.99103469407E+02  0.10251579671E+03  0.00000000000E+00 0. -1.
          1    1    1    2  502    0 -0.10844469578E+02 -0.32332371341E+02  0.19553370666E+04  0.19556344312E+04  0.00000000000E+00 0. -1.
         22    1    3    3    0    0  0.38601389701E+02 -0.48954306121E+01  0.28134849062E+03  0.28402641726E+03  0.00000000000E+00 0. -1.
         22    1    3    3    0    0 -0.13262700968E+02  0.15366682618E+02 -0.46584520601E+01  0.20826313818E+02  0.00000000000E+00 0. -1.
</event>
<event>
 7    1  0.5889087E-006  0.1573210E+03  0.7818608E-02  0.1347553E+00
          2   -1    0    0  502    0  0.00000000000E+00  0.00000000000E+00  0.12466814040E+04  0.12466814040E+04  0.00000000000E+00 0. -1.
          1   -1    0    0  501    0 -0.00000000000E+00 -0.00000000000E+00 -0.18950224720E+03  0.18950224720E+03  0.00000000000E+00 0. -1.
         25    2    1    2    0    0 -0.12690131608E+03 -0.23056758625E+02  0.21644480263E+03  0.28126416276E+03  0.12500247410E+03 0.  0.
          2    1    1    2  501    0  0.15714065769E+03  0.39958092614E+02 -0.11485682538E+03  0.19870059335E+03  0.00000000000E+00 0. -1.
          1    1    1    2  502    0 -0.30239341606E+02 -0.16901333989E+02  0.95559117957E+03  0.95621889510E+03  0.00000000000E+00 0. -1.
         22    1    3    3    0    0  0.21587422043E+02  0.14735588561E+02  0.26473516194E+02  0.37202169565E+02  0.00000000000E+00 0.  1.
         22    1    3    3    0    0 -0.14848873812E+03 -0.37792347186E+02  0.18997128643E+03  0.24406199320E+03  0.00000000000E+00 0.  1.
</event>
<event>
 7    1  0.5889087E-006  0.7711169E+02  0.7818608E-02  0.1441289E+00
          2   -1    0    0  502    0  0.00000000000E+00  0.00000000000E+00  0.21968337900E+03  0.21968337900E+03  0.00000000000E+00 0. -1.
          1   -1    0    0  501    0 -0.00000000000E+00 -0.00000000000E+00 -0.49803776864E+03  0.49803776864E+03  0.00000000000E+00 0. -1.
         25    2    1    2    0    0  0.52564278828E+01 -0.44754524445E+02 -0.21992644490E+03  0.25695011143E+03  0.12500048443E+03 0.  0.
          2    1    1    2  501    0  0.99788595333E+01 -0.31887633882E+02 -0.25086158560E+03  0.25307693289E+03  0.00000000000E+00 0. -1.
          1    1    1    2  502    0 -0.15235287416E+02  0.76642158327E+02  0.19243364086E+03  0.20769410331E+03  0.00000000000E+00 0. -1.
         22    1    3    3    0    0  0.61420459366E+02 -0.15863650191E+02 -0.14921036818E+03  0.16213532063E+03  0.00000000000E+00 0. -1.
         22    1    3    3    0    0 -0.56164031483E+02 -0.28890874254E+02 -0.70716076720E+02  0.94814790799E+02  0.00000000000E+00 0. -1.
</event>
<event>
 7    1  0.5889087E-006  0.8920329E+02  0.7818608E-02  0.1376058E+00
          2   -1    0    0  502    0  0.00000000000E+00  0.00000000000E+00  0.47654863211E+03  0.47654863211E+03  0.00000000000E+00 0. -1.
          1   -1    0    0  501    0 -0.00000000000E+00 -0.00000000000E+00 -0.11238021187E+04  0.11238021187E+04  0.00000000000E+00 0. -1.
         25    2    1    2    0    0 -0.74851168093E+02  0.11241221642E+03 -0.91324714493E+02  0.20543705218E+03  0.12499990067E+03 0.  0.
          2    1    1    2  501    0  0.42988065205E+02 -0.76363318625E+02 -0.97206420116E+03  0.97600621994E+03  0.00000000000E+00 0. -1.
          1    1    1    2  502    0  0.31863102889E+02 -0.36048897798E+02  0.41613542908E+03  0.41890747868E+03  0.00000000000E+00 0. -1.
         22    1    3    3    0    0  0.68059437472E+01 -0.74231642846E+01  0.20152230242E+02  0.22528573457E+02  0.00000000000E+00 0.  1.
         22    1    3    3    0    0 -0.81657111841E+02  0.11983538071E+03 -0.11147694473E+03  0.18290847873E+03  0.00000000000E+00 0.  1.
</event>
<event>
 7    1  0.5889087E-006  0.7975187E+02  0.7818608E-02  0.1397118E+00
          2   -1    0    0  502    0  0.00000000000E+00  0.00000000000E+00  0.33540110720E+02  0.33540110720E+02  0.00000000000E+00 0. -1.
          1   -1    0    0  501    0 -0.00000000000E+00 -0.00000000000E+00 -0.73350745954E+03  0.73350745954E+03  0.00000000000E+00 0. -1.
         25    2    1    2    0    0 -0.36219008776E+00 -0.67580598042E+02 -0.31401347781E+03  0.34466996813E+03  0.12500261704E+03 0.  0.
          2    1    1    2  501    0 -0.44565069923E+02  0.74093899517E+02 -0.35967827264E+03  0.36992487239E+03  0.00000000000E+00 0. -1.
          1    1    1    2  502    0  0.44927260010E+02 -0.65133014754E+01 -0.26275598366E+02  0.52452729744E+02  0.00000000000E+00 0. -1.
         22    1    3    3    0    0 -0.60402145184E+02 -0.17482188141E+02 -0.16074260800E+03  0.17260426435E+03  0.00000000000E+00 0.  1.
         22    1    3    3    0    0  0.60039955096E+02 -0.50098409901E+02 -0.15327086982E+03  0.17206570378E+03  0.00000000000E+00 0.  1.
</event>
<event>
 7    1  0.5889087E-006  0.5576512E+02  0.7818608E-02  0.1475263E+00
          2   -1    0    0  502    0  0.00000000000E+00  0.00000000000E+00  0.80802978448E+03  0.80802978448E+03  0.00000000000E+00 0. -1.
          1   -1    0    0  501    0 -0.00000000000E+00 -0.00000000000E+00 -0.25937554492E+03  0.25937554492E+03  0.00000000000E+00 0. -1.
         25    2    1    2    0    0  0.84322720097E+02  0.27593637967E+02 -0.16004982871E+02  0.15412029470E+03  0.12500070313E+03 0.  0.
          2    1    1    2  501    0 -0.36073370989E+02 -0.40476347798E+00 -0.17139484130E+03  0.17515034556E+03  0.00000000000E+00 0. -1.
          1    1    1    2  502    0 -0.48249349108E+02 -0.27188874489E+02  0.73605406372E+03  0.73813468914E+03  0.00000000000E+00 0. -1.
         22    1    3    3    0    0  0.25829090359E+02  0.69644376470E+02  0.14851782228E+02  0.75749960515E+02  0.00000000000E+00 0. -1.
         22    1    3    3    0    0  0.58493629738E+02 -0.42050738503E+02 -0.30856765099E+02  0.78370334190E+02  0.00000000000E+00 0. -1.
</event>
<event>
 7    1  0.5889087E-006  0.1351774E+03  0.7818608E-02  0.1274000E+00
          2   -1    0    0  502    0  0.00000000000E+00  0.00000000000E+00  0.18247746616E+04  0.18247746616E+04  0.00000000000E+00 0. -1.
          1   -1    0    0  501    0 -0.00000000000E+00 -0.00000000000E+00 -0.17259729432E+03  0.17259729432E+03  0.00000000000E+00 0. -1.
         25    2    1    2    0    0 -0.23110421343E+00  0.88678751161E+02  0.83900641472E+02  0.17472308107E+03  0.12499945242E+03 0.  0.
          2    1    1    2  501    0 -0.56269059765E+02 -0.14327086528E+03 -0.79333684525E+02  0.17316634033E+03  0.00000000000E+00 0. -1.
          1    1    1    2  502    0  0.56500163978E+02  0.54592114118E+02  0.16476104104E+04  0.16494825346E+04  0.00000000000E+00 0. -1.
         22    1    3    3    0    0 -0.20896953078E+02  0.53036463180E+01  0.86138759741E+02  0.88795817705E+02  0.00000000000E+00 0. -1.
         22    1    3    3    0    0  0.20665848864E+02  0.83375104843E+02 -0.22381182689E+01  0.85927263370E+02  0.00000000000E+00 0. -1.
</event>
<event>
 7    1  0.5889087E-006  0.4499956E+02  0.7818608E-02  0.1534002E+00
          2   -1    0    0  502    0  0.00000000000E+00  0.00000000000E+00  0.14881067064E+04  0.14881067064E+04  0.00000000000E+00 0. -1.
          1   -1    0    0  501    0 -0.00000000000E+00 -0.00000000000E+00 -0.18365262460E+04  0.18365262460E+04  0.00000000000E+00 0. -1.
         25    2    1    2    0    0 -0.13448316344E+02 -0.27014902397E+02  0.44066122470E+03  0.45904007107E+03  0.12499923890E+03 0.  0.
          2    1    1    2  501    0  0.23925371293E+02 -0.17985021403E+02 -0.18267001348E+04  0.18269453377E+04  0.00000000000E+00 0. -1.
          1    1    1    2  502    0 -0.10477054949E+02  0.44999923800E+02  0.10376193705E+04  0.10386475436E+04  0.00000000000E+00 0. -1.
         22    1    3    3    0    0 -0.49380608833E+02  0.31665290984E+02  0.17294465879E+03  0.18262253472E+03  0.00000000000E+00 0.  1.
         22    1    3    3    0    0  0.35932292489E+02 -0.58680193381E+02  0.26771656591E+03  0.27641753635E+03  0.00000000000E+00 0.  1.
</event>
<event>
 7    1  0.5889087E-006  0.1420666E+03  0.7818608E-02  0.1238166E+00
          2   -1    0    0  502    0  0.00000000000E+00  0.00000000000E+00  0.29768474621E+04  0.29768474621E+04  0.00000000000E+00 0. -1.
          1   -1    0    0  501    0 -0.00000000000E+00 -0.00000000000E+00 -0.31793478391E+03  0.31793478391E+03  0.00000000000E+00 0. -1.
         25    2    1    2    0    0 -0.71457364945E+02  0.11483204062E+02  0.58170309717E+03  0.59936804648E+03  0.12500217158E+03 0.  0.
          2    1    1    2  501    0  0.11726848517E+03  0.84727399152E+02 -0.29090972931E+03  0.32489860016E+03  0.00000000000E+00 0. -1.
          1    1    1    2  502    0 -0.45811120222E+02 -0.96210603214E+02  0.23681193103E+04  0.23705155993E+04  0.00000000000E+00 0. -1.
         22    1    3    3    0    0 -0.32398131635E+02  0.59591355414E+02  0.17007763856E+03  0.18310426459E+03  0.00000000000E+00 0.  1.
         22    1    3    3    0    0 -0.39059233310E+02 -0.48108151351E+02  0.41162545862E+03  0.41626378189E+03  0.00000000000E+00 0.  1.
</event>
<event>
 7    1  0.5889087E-006  0.4880684E+02  0.7818608E-02  0.1498059E+00
          2   -1    0    0  502    0  0.00000000000E+00  0.00000000000E+00  0.41672227740E+03  0.41672227740E+03  0.00000000000E+00 0. -1.
          1   -1    0    0  501    0 -0.00000000000E+00 -0.00000000000E+00 -0.57222501345E+03  0.57222501345E+03  0.00000000000E+00 0. -1.
         25    2    1    2    0    0  0.38010364409E+02  0.58770902651E+02 -0.18331201182E+03  0.23265336101E+03  0.12500194363E+03 0.  0.
          2    1    1    2  501    0 -0.33609215302E+02 -0.10259802370E+02 -0.36187494987E+03  0.36357712007E+03  0.00000000000E+00 0. -1.
          1    1    1    2  502    0 -0.44011491061E+01 -0.48511100281E+02  0.38968422564E+03  0.39271680977E+03  0.00000000000E+00 0. -1.
         22    1    3    3    0    0  0.69409234180E+02  0.72989236305E+02 -0.97523611548E+02  0.14019959064E+03  0.00000000000E+00 0. -1.
         22    1    3    3    0    0 -0.31398869771E+02 -0.14218333654E+02 -0.85788400268E+02  0.92453770369E+02  0.00000000000E+00 0. -1.
</event>
<event>
 7    1  0.5889087E-006  0.3429240E+02  0.7818608E-02  0.1576272E+00
          2   -1    0    0  502    0  0.00000000000E+00  0.00000000000E+00  0.14187723544E+03  0.14187723544E+03  0.00000000000E+00 0. -1.
          1   -1    0    0  501    0 -0.00000000000E+00 -0.00000000000E+00 -0.10719269357E+04  0.10719269357E+04  0.00000000000E+00 0. -1.
         25    2    1    2    0    0  0.29397092297E+02  0.73016500675E+01 -0.47238864302E+03  0.48958739619E+03  0.12500914098E+03 0.  0.
          2    1    1    2  501    0 -0.13354102971E+02 -0.32642120321E+02 -0.58871718598E+03  0.58977263853E+03  0.00000000000E+00 0. -1.
          1    1    1    2  502    0 -0.16042989326E+02  0.25340470254E+02  0.13105612874E+03  0.13444413643E+03  0.00000000000E+00 0. -1.
         22    1    3    3    0    0 -0.45554284279E+02 -0.11093415364E+02 -0.11972600246E+03  0.12857905096E+03  0.00000000000E+00 0.  1.
         22    1    3    3    0    0  0.74951376576E+02  0.18395065432E+02 -0.35266264056E+03  0.36100834524E+03  0.00000000000E+00 0.  1.
</event>
<event>
 7    1  0.5889087E-006  0.2912718E+02  0.7818608E-02  0.1659189E+00
          2   -1    0    0  502    0  0.00000000000E+00  0.00000000000E+00  0.11197152105E+03  0.11197152105E+03  0.00000000000E+00 0. -1.
          1   -1    0    0  501    0 -0.00000000000E+00 -0.00000000000E+00 -0.44508412764E+03  0.44508412764E+03  0.00000000000E+00 0. -1.
         25    2    1    2    0    0  0.27511063573E+02 -0.24047768203E+02 -0.10913699645E+03  0.16991465899E+03  0.12499981429E+03 0.  0.
          2    1    1    2  501    0 -0.29015251511E+02  0.24244156864E+01 -0.30340922339E+03  0.30480308307E+03  0.00000000000E+00 0. -1.
          1    1    1    2  502    0  0.15041879378E+01  0.21623352517E+02  0.79433613244E+02  0.82337906631E+02  0.00000000000E+00 0. -1.
         22    1    3    3    0    0 -0.48582198061E+02  0.48753729452E+01 -0.40875619846E+02  0.63677433425E+02  0.00000000000E+00 0. -1.
         22    1    3    3    0    0  0.76093261635E+02 -0.28923141148E+02 -0.68261376607E+02  0.10623722557E+03  0.00000000000E+00 0. -1.
</event>
<event>
 7    1  0.1079925E-005  0.7403023E+02  0.7818608E-02  0.1405717E+00
          2   -1    0    0  502    0  0.00000000000E+00  0.00000000000E+00  0.25570324772E+04  0.25570324772E+04  0.00000000000E+00 0. -1.
          1   -1    0    0  501    0 -0.00000000000E+00 -0.00000000000E+00 -0.10120417276E+04  0.10120417276E+04  0.00000000000E+00 0. -1.
         25    2    1    2    0    0  0.10805781934E+03  0.50530819587E+02 -0.13469546210E+03  0.21907920617E+03  0.12499189981E+03 0.  0.
          2    1    1    2  501    0 -0.42955094241E+02 -0.15578792160E+02 -0.83398608718E+03  0.83523687209E+03  0.00000000000E+00 0. -1.
          1    1    1    2  502    0 -0.65102725095E+02 -0.34952027427E+02  0.25136722989E+04  0.25147581266E+04  0.00000000000E+00 0. -1.
         22    1    3    3    0    0  0.13205195173E+03  0.38828189726E+02 -0.13440759383E+03  0.19238177552E+03  0.00000000000E+00 0. -1.
         22    1    3    3    0    0 -0.23994132391E+02  0.11702629862E+02 -0.28786826291E+00  0.26697430645E+02  0.00000000000E+00 0. -1.
</event>
<event>
 7    1  0.5889087E-006  0.1041750E+03  0.7818608E-02  0.1332821E+00
          2   -1    0    0  502    0  0.00000000000E+00  0.00000000000E+00  0.73033600789E+02  0.73033600789E+02  0.00000000000E+00 0. -1.
          1   -1    0    0  501    0 -0.00000000000E+00 -0.00000000000E+00 -0.10672937117E+04  0.10672937117E+04  0.00000000000E+00 0. -1.
         25    2    1    2    0    0 -0.13648206688E+03 -0.51560137262E+02 -0.16893818409E+03  0.25583474262E+03  0.12500201260E+03 0.  0.
          2    1    1    2  501    0  0.59288600533E+02  0.41544942863E+01 -0.78168735092E+03  0.78394356465E+03  0.00000000000E+00 0. -1.
          1    1    1    2  502    0  0.77193466346E+02  0.47405642976E+02 -0.43634575879E+02  0.10054900519E+03  0.00000000000E+00 0. -1.
         22    1    3    3    0    0 -0.18379027961E+01 -0.57074104993E+02 -0.56488077356E+02  0.80322688145E+02  0.00000000000E+00 0. -1.
         22    1    3    3    0    0 -0.13464416408E+03  0.55139677308E+01 -0.11245010673E+03  0.17551205447E+03  0.00000000000E+00 0. -1.
</event>
<event>
 7    1  0.5889087E-006  0.1003995E+03  0.7818608E-02  0.1312021E+00
          2   -1    0    0  502    0  0.00000000000E+00  0.00000000000E+00  0.42299608803E+04  0.42299608803E+04  0.00000000000E+00 0. -1.
          1   -1    0    0  501    0 -0.00000000000E+00 -0.00000000000E+00 -0.96409966788E+02  0.96409966788E+02  0.00000000000E+00 0. -1.
         25    2    1    2    0    0 -0.43129934839E+02  0.11988012445E+03  0.69338265163E+03  0.71598596947E+03  0.12499988556E+03 0.  0.
          2    1    1    2  501    0  0.82464249598E+02 -0.56949730767E+02 -0.55074779124E+02  0.11435407991E+03  0.00000000000E+00 0. -1.
          1    1    1    2  502    0 -0.39334314759E+02 -0.62930393683E+02  0.34952430410E+04  0.34960307977E+04  0.00000000000E+00 0. -1.
         22    1    3    3    0    0 -0.74317686533E+02  0.27128984685E+02  0.26431304044E+03  0.27589940864E+03  0.00000000000E+00 0.  1.
         22    1    3    3    0    0  0.31187751694E+02  0.92751139764E+02  0.42906961118E+03  0.44008656083E+03  0.00000000000E+00 0.  1.
</event>
<event>
 7    1  0.5889087E-006  0.6916133E+02  0.7818608E-02  0.1369481E+00
          2   -1    0    0  502    0  0.00000000000E+00  0.00000000000E+00  0.29773069332E+03  0.29773069332E+03  0.00000000000E+00 0. -1.
          1   -1    0    0  501    0 -0.00000000000E+00 -0.00000000000E+00 -0.10864073421E+04  0.10864073421E+04  0.00000000000E+00 0. -1.
         25    2    1    2    0    0 -0.11659013037E+03 -0.53584417229E+02 -0.22912785111E+03  0.29084073240E+03  0.12499684475E+03 0.  0.
          2    1    1    2  501    0  0.49115894282E+02  0.43352148897E+02 -0.82073339899E+03  0.82334384803E+03  0.00000000000E+00 0. -1.
          1    1    1    2  502    0  0.67474236090E+02  0.10232268332E+02  0.26118460136E+03  0.26995345495E+03  0.00000000000E+00 0. -1.
         22    1    3    3    0    0  0.24624061801E+02 -0.22906414431E+02 -0.56063381422E+02  0.65376991198E+02  0.00000000000E+00 0.  1.
         22    1    3    3    0    0 -0.14121419217E+03 -0.30678002797E+02 -0.17306446969E+03  0.22546374120E+03  0.00000000000E+00 0.  1.
</event>
<event>
 7    1  0.5889087E-006  0.3916905E+03  0.7818608E-02  0.1188560E+00
          2   -1    0    0  502    0  0.00000000000E+00  0.00000000000E+00  0.64343730268E+03  0.64343730268E+03  0.00000000000E+00 0. -1.
          1   -1    0    0  501    0 -0.00000000000E+00 -0.00000000000E+00 -0.24390667295E+04  0.24390667295E+04  0.00000000000E+00 0. -1.
         25    2    1    2    0    0  0.20874115267E+03 -0.27113209904E+03 -0.21002573351E+02  0.36489837007E+03  0.12499691375E+03 0.  0.
          2    1    1    2  501    0 -0.21035303125E+03  0.33656932619E+03 -0.22262048187E+04  0.22613082947E+04  0.00000000000E+00 0. -1.
          1    1    1    2  502    0  0.16118785780E+01 -0.65437227152E+02  0.45157796520E+03  0.45629736740E+03  0.00000000000E+00 0. -1.
         22    1    3    3    0    0  0.54269521411E+02 -0.68622007155E+02 -0.61579552813E+02  0.10698692511E+03  0.00000000000E+00 0. -1.
         22    1    3    3    0    0  0.15447163126E+03 -0.20251009188E+03  0.40576979463E+02  0.25791144496E+03  0.00000000000E+00 0. -1.
</event>
<event>
 7    1  0.5889087E-006  0.4331833E+02  0.7818608E-02  0.1486199E+00
          2   -1    0    0  502    0  0.00000000000E+00  0.00000000000E+00  0.84579544242E+03  0.84579544242E+03  0.00000000000E+00 0. -1.
          1   -1    0    0  501    0 -0.00000000000E+00 -0.00000000000E+00 -0.67928086728E+03  0.67928086728E+03  0.00000000000E+00 0. -1.
         25    2    1    2    0    0 -0.13005135357E+01 -0.11983823251E+02  0.52902600969E+03  0.54372669640E+03  0.12499959236E+03 0.  0.
          2    1    1    2  501    0  0.24022593541E+02 -0.36047094560E+02 -0.66894369853E+03  0.67034479921E+03  0.00000000000E+00 0. -1.
          1    1    1    2  502    0 -0.22722080005E+02  0.48030917811E+02  0.30643226397E+03  0.31100481409E+03  0.00000000000E+00 0. -1.
         22    1    3    3    0    0 -0.92799655371E+01  0.81582840076E+01  0.52017760505E+03  0.52032433746E+03  0.00000000000E+00 0. -1.
         22    1    3    3    0    0  0.79794520014E+01 -0.20142107259E+02  0.88484046393E+01  0.23402358935E+02  0.00000000000E+00 0. -1.
</event>
<event>
 7    1  0.5889087E-006  0.7294887E+02  0.7818608E-02  0.1356629E+00
          2   -1    0    0  502    0  0.00000000000E+00  0.00000000000E+00  0.82127199407E+03  0.82127199407E+03  0.00000000000E+00 0. -1.
          1   -1    0    0  501    0 -0.00000000000E+00 -0.00000000000E+00 -0.19101567782E+04  0.19101567782E+04  0.00000000000E+00 0. -1.
         25    2    1    2    0    0 -0.11600936497E+03 -0.11432974427E+02 -0.28142899085E+02  0.17321919801E+03  0.12499592843E+03 0.  0.
          2    1    1    2  501    0  0.56188581168E+02  0.46138803153E+02 -0.18071461723E+04  0.18086080929E+04  0.00000000000E+00 0. -1.
          1    1    1    2  502    0  0.59820783800E+02 -0.34705828726E+02  0.74640428727E+03  0.74960148131E+03  0.00000000000E+00 0. -1.
         22    1    3    3    0    0 -0.24186081231E+01  0.44002271951E+02 -0.12834608331E+02  0.45899638050E+02  0.00000000000E+00 0.  1.
         22    1    3    3    0    0 -0.11359075685E+03 -0.55435246378E+02 -0.15308290754E+02  0.12731955996E+03  0.00000000000E+00 0.  1.
</event>
<event>
 7    1  0.5889087E-006  0.1421823E+03  0.7818608E-02  0.1374831E+00
          2   -1    0    0  502    0  0.00000000000E+00  0.00000000000E+00  0.73420137815E+03  0.73420137815E+03  0.00000000000E+00 0. -1.
          1   -1    0    0  501    0 -0.00000000000E+00 -0.00000000000E+00 -0.11454614984E+04  0.11454614984E+04  0.00000000000E+00 0. -1.
         25    2    1    2    0    0 -0.10260175321E+03  0.13711305905E+03 -0.10053895466E+04  0.10275018794E+04  0.12499944359E+03 0.  0.
          2    1    1    2  501    0  0.11432610986E+02 -0.28265845350E+02 -0.12012338014E+03  0.12393259887E+03  0.00000000000E+00 0. -1.
          1    1    1    2  502    0  0.91169142228E+02 -0.10884721370E+03  0.71425280654E+03  0.72822839829E+03  0.00000000000E+00 0. -1.
         22    1    3    3    0    0 -0.10945655017E+03  0.11812198849E+03 -0.98744275111E+03  0.10004882444E+04  0.00000000000E+00 0. -1.
         22    1    3    3    0    0  0.68547969609E+01  0.18991070565E+02 -0.17946795530E+02  0.27013634934E+02  0.00000000000E+00 0. -1.
</event>
<event>
 7    1  0.5889087E-006  0.3755855E+02  0.7818608E-02  0.1569742E+00
          2   -1    0    0  502    0  0.00000000000E+00  0.00000000000E+00  0.13329633992E+04  0.13329633992E+04  0.00000000000E+00 0. -1.
          1   -1    0    0  501    0 -0.00000000000E+00 -0.00000000000E+00 -0.11352789558E+04  0.11352789558E+04  0.00000000000E+00 0. -1.
         25    2    1    2    0    0  0.30536342439E+02  0.46434972151E+02 -0.19662875349E+03  0.23953746735E+03  0.12500662670E+03 0.  0.
          2    1    1    2  501    0  0.24033279396E+01 -0.28419522864E+02 -0.91670532023E+03  0.91714889162E+03  0.00000000000E+00 0. -1.
          1    1    1    2  502    0 -0.32939670379E+02 -0.18015449287E+02  0.13110185171E+04  0.13115559959E+04  0.00000000000E+00 0. -1.
         22    1    3    3    0    0  0.39177850228E+02 -0.22978749206E+02 -0.14677057036E+03  0.15363764899E+03  0.00000000000E+00 0. -1.
         22    1    3    3    0    0 -0.86415077884E+01  0.69413721357E+02 -0.49858183130E+02  0.85899818361E+02  0.00000000000E+00 0. -1.
</event>
<event>
 7    1  0.5889087E-006  0.1084396E+03  0.7818608E-02  0.1272651E+00
          2   -1    0    0  502    0  0.00000000000E+00  0.00000000000E+00  0.34763040255E+03  0.34763040255E+03  0.00000000000E+00 0. -1.
          1   -1    0    0  501    0 -0.00000000000E+00 -0.00000000000E+00 -0.20184955255E+04  0.20184955255E+04  0.00000000000E+00 0. -1.
         25    2    1    2    0    0  0.57069169866E+02  0.13443145862E+03 -0.24135605240E+02  0.19374229553E+03  0.12499936969E+03 0.  0.
          2    1    1    2  501    0 -0.93679527510E+02 -0.32681813899E+02 -0.18970824525E+04  0.18996751792E+04  0.00000000000E+00 0. -1.
          1    1    1    2  502    0  0.36610357645E+02 -0.10174964472E+03  0.25035293486E+03  0.27270845326E+03  0.00000000000E+00 0. -1.
         22    1    3    3    0    0  0.64610726457E+02  0.12061691316E+03 -0.63869820807E+02  0.15100443610E+03  0.00000000000E+00 0.  1.
         22    1    3    3    0    0 -0.75415565913E+01  0.13814545459E+02  0.39734215567E+02  0.42737859431E+02  0.00000000000E+00 0.  1.
</event>
<event>
 7    1  0.5889087E-006  0.2094063E+03  0.7818608E-02  0.1331324E+00
          2   -1    0    0  502    0  0.00000000000E+00  0.00000000000E+00  0.56480499890E+03  0.56480499890E+03  0.00000000000E+00 0. -1.
          1   -1    0    0  501    0 -0.00000000000E+00 -0.00000000000E+00 -0.14866530280E+04  0.14866530280E+04  0.00000000000E+00 0. -1.
         25    2    1    2    0    0  0.10495086699E+03  0.15457840665E+03 -0.10041018123E+04  0.10289582206E+04  0.12500160830E+03 0.  0.
          2    1    1    2  501    0 -0.44019165531E+01  0.29632629528E+02 -0.44967283955E+03  0.45066964867E+03  0.00000000000E+00 0. -1.
          1    1    1    2  502    0 -0.10054895044E+03 -0.18421103617E+03  0.53192662268E+03  0.57183015765E+03  0.00000000000E+00 0. -1.
         22    1    3    3    0    0 -0.42570556304E+01  0.42457244858E+02 -0.48240609689E+03  0.48428956470E+03  0.00000000000E+00 0. -1.
         22    1    3    3    0    0  0.10920792262E+03  0.11212116179E+03 -0.52169571539E+03  0.54466865591E+03  0.00000000000E+00 0. -1.
</event>
<event>
 7    1  0.5889087E-006  0.2891411E+03  0.7818608E-02  0.1106676E+00
          2   -1    0    0  502    0  0.00000000000E+00  0.00000000000E+00  0.12222551342E+04  0.12222551342E+04  0.00000000000E+00 0. -1.
          1   -1    0    0  501    0 -0.00000000000E+00 -0.00000000000E+00 -0.17140408866E+04  0.17140408866E+04  0.00000000000E+00 0. -1.
         25    2    1    2    0    0  0.41959982999E+02 -0.43322570998E+02 -0.65052072912E+03  0.66516208496E+03  0.12500357966E+03 0.  0.
          2    1    1    2  501    0  0.15567049625E+03 -0.17631071048E+03 -0.10247141549E+04  0.10513600094E+04  0.00000000000E+00 0. -1.
          1    1    1    2  502    0 -0.19763047925E+03  0.21963328148E+03  0.11834491316E+04  0.12197739265E+04  0.00000000000E+00 0. -1.
         22    1    3    3    0    0 -0.22906449443E+02  0.31051911805E+02 -0.14173148163E+03  0.14689022956E+03  0.00000000000E+00 0. -1.
         22    1    3    3    0    0  0.64866432442E+02 -0.74374482804E+02 -0.50878924748E+03  0.51827185541E+03  0.00000000000E+00 0. -1.
</event>
<event>
 7    1  0.8560853E-006  0.6643345E+02  0.7818608E-02  0.1396415E+00
          2   -1    0    0  502    0  0.00000000000E+00  0.00000000000E+00  0.20916735011E+04  0.20916735011E+04  0.00000000000E+00 0. -1.
          1   -1    0    0  501    0 -0.00000000000E+00 -0.00000000000E+00 -0.67960594673E+03  0.67960594673E+03  0.00000000000E+00 0. -1.
         25    2    1    2    0    0 -0.44585448037E+01  0.46076581546E+02 -0.11717352393E+03  0.17747352534E+03  0.12499714996E+03 0.  0.
          2    1    1    2  501    0 -0.53263790399E+02 -0.12899005681E+02 -0.53033245423E+03  0.53315656962E+03  0.00000000000E+00 0. -1.
          1    1    1    2  502    0  0.57722335202E+02 -0.33177575865E+02  0.20595735326E+04  0.20606493529E+04  0.00000000000E+00 0. -1.
         22    1    3    3    0    0  0.15814337382E+02  0.75894011843E+02 -0.11825483167E+03  0.14140084693E+03  0.00000000000E+00 0. -1.
         22    1    3    3    0    0 -0.20272882186E+02 -0.29817430296E+02  0.10813077311E+01  0.36072678415E+02  0.00000000000E+00 0. -1.
</event>
<event>
 7    1  0.5889087E-006  0.8428988E+02  0.7818608E-02  0.1389365E+00
          2   -1    0    0  502    0  0.00000000000E+00  0.00000000000E+00  0.13576565674E+04  0.13576565674E+04  0.00000000000E+00 0. -1.
          1   -1    0    0  501    0 -0.00000000000E+00 -0.00000000000E+00 -0.12723234061E+03  0.12723234061E+03  0.00000000000E+00 0. -1.
         25    2    1    2    0    0  0.10264474558E+02  0.10804629189E+03  0.17209915382E+03  0.23879374109E+03  0.12499988564E+03 0.  0.
          2    1    1    2  501    0 -0.39403550484E+02 -0.72841083348E+02 -0.75071618609E+02  0.11177750728E+03  0.00000000000E+00 0. -1.
          1    1    1    2  502    0  0.29139075927E+02 -0.35205208545E+02  0.11333966915E+04  0.11343176596E+04  0.00000000000E+00 0. -1.
         22    1    3    3    0    0 -0.39448999201E+02  0.86489682355E+02  0.15526206356E+03  0.18205218228E+03  0.00000000000E+00 0. -1.
         22    1    3    3    0    0  0.49713473758E+02  0.21556609538E+02  0.16837090256E+02  0.56741558810E+02  0.00000000000E+00 0. -1.
</event>
<event>
 7    1  0.5889087E-006  0.4504276E+02  0.7818608E-02  0.1507341E+00
          2   -1    0    0  502    0  0.00000000000E+00  0.00000000000E+00  0.21579517738E+03  0.21579517738E+03  0.00000000000E+00 0. -1.
          1   -1    0    0  501    0 -0.00000000000E+00 -0.00000000000E+00 -0.61310631425E+03  0.61310631425E+03  0.00000000000E+00 0. -1.
         25    2    1    2    0    0  0.10642527285E+02 -0.55306307365E+02 -0.29670379842E+02  0.14027365698E+03  0.12499726550E+03 0.  0.
          2    1    1    2  501    0 -0.34637075593E+02  0.28828332883E+02 -0.52516840235E+03  0.52709833107E+03  0.00000000000E+00 0. -1.
          1    1    1    2  502    0  0.23994548308E+02  0.26477974481E+02  0.15752764533E+03  0.16152950357E+03  0.00000000000E+00 0. -1.
         22    1    3    3    0    0  0.44097295909E+02 -0.60030777259E+02  0.22771952104E+02  0.77889842261E+02  0.00000000000E+00 0.  1.
         22    1    3    3    0    0 -0.33454768623E+02  0.47244698945E+01 -0.52442331946E+02  0.62383814723E+02  0.00000000000E+00 0.  1.
</event>
<event>
 7    1  0.5889087E-006  0.1334122E+03  0.7818608E-02  0.1419157E+00
          2   -1    0    0  502    0  0.00000000000E+00  0.00000000000E+00  0.10807325287E+04  0.10807325287E+04  0.00000000000E+00 0. -1.
          1   -1    0    0  501    0 -0.00000000000E+00 -0.00000000000E+00 -0.18327872246E+03  0.18327872246E+03  0.00000000000E+00 0. -1.
         25    2    1    2    0    0 -0.30191070437E+02 -0.14255615245E+03  0.44047821642E+03  0.48049966054E+03  0.12500042919E+03 0.  0.
          2    1    1    2  501    0  0.44779639931E+02  0.12498370266E+03 -0.13602220226E+03  0.19007414762E+03  0.00000000000E+00 0. -1.
          1    1    1    2  502    0 -0.14588569494E+02  0.17572449791E+02  0.59299779212E+03  0.59343744304E+03  0.00000000000E+00 0. -1.
         22    1    3    3    0    0 -0.39389562493E+02 -0.16335373450E+03  0.36826124827E+03  0.40478676755E+03  0.00000000000E+00 0.  1.
         22    1    3    3    0    0  0.91984920563E+01  0.20797582046E+02  0.72216968159E+02  0.75712892991E+02  0.00000000000E+00 0.  1.
</event>
<event>
 7    1  0.5889087E-006  0.9499201E+02  0.7818608E-02  0.1482996E+00
          2   -1    0    0  502    0  0.00000000000E+00  0.00000000000E+00  0.23684702022E+04  0.23684702022E+04  0.00000000000E+00 0. -1.
          1   -1    0    0  501    0 -0.00000000000E+00 -0.00000000000E+00 -0.28244467342E+03  0.28244467342E+03  0.00000000000E+00 0. -1.
         25    2    1    2    0    0  0.96531623277E+02  0.10681362855E+02  0.10023326704E+04  0.10147554014E+04  0.12500118712E+03 0.  0.
          2    1    1    2  501    0 -0.94538130059E+02  0.92705093367E+01 -0.26799028527E+03  0.28432761628E+03  0.00000000000E+00 0. -1.
          1    1    1    2  502    0 -0.19934932181E+01 -0.19951872191E+02  0.13516831437E+04  0.13518318580E+04  0.00000000000E+00 0. -1.
         22    1    3    3    0    0 -0.29370488583E+02 -0.61640861375E+01  0.24699366408E+03  0.24881015183E+03  0.00000000000E+00 0. -1.
         22    1    3    3    0    0  0.12590211186E+03  0.16845448992E+02  0.75533900628E+03  0.76594524956E+03  0.00000000000E+00 0. -1.
</event>
<event>
 7    1  0.5889087E-006  0.3115512E+03  0.7818608E-02  0.1232522E+00
          2   -1    0    0  502    0  0.00000000000E+00  0.00000000000E+00  0.34974125870E+04  0.34974125870E+04  0.00000000000E+00 0. -1.
          1   -1    0    0  501    0 -0.00000000000E+00 -0.00000000000E+00 -0.72113543609E+03  0.72113543609E+03  0.00000000000E+00 0. -1.
         25    2    1    2    0    0  0.24865333917E+03 -0.87320935803E+02  0.97083129933E+03  0.10137023358E+04  0.12500233961E+03 0.  0.
          2    1    1    2  501    0 -0.29042065737E+03  0.11741570644E+03 -0.66435656445E+03  0.73450680805E+03  0.00000000000E+00 0. -1.
          1    1    1    2  502    0  0.41767318199E+02 -0.30094770640E+02  0.24698024160E+04  0.24703388792E+04  0.00000000000E+00 0. -1.
         22    1    3    3    0    0  0.11981382308E+03 -0.40957123734E+02  0.68696452385E+03  0.69853639505E+03  0.00000000000E+00 0. -1.
         22    1    3    3    0    0  0.12883951609E+03 -0.46363812069E+02  0.28386677548E+03  0.31516594073E+03  0.00000000000E+00 0. -1.
</event>
<event>
 7    1  0.5889087E-006  0.8057704E+02  0.7818608E-02  0.1369286E+00
          2   -1    0    0  502    0  0.00000000000E+00  0.00000000000E+00  0.28823548544E+03  0.28823548544E+03  0.00000000000E+00 0. -1.
          1   -1    0    0  501    0 -0.00000000000E+00 -0.00000000000E+00 -0.94246454081E+02  0.94246454081E+02  0.00000000000E+00 0. -1.
         25    2    1    2    0    0  0.42364979749E+02 -0.27231707454E+02  0.60888295725E+02  0.14788209769E+03  0.12500149143E+03 0.  0.
          2    1    1    2  501    0 -0.52857997880E+02  0.82566772966E+02  0.91617632193E+01  0.98464094183E+02  0.00000000000E+00 0. -1.
          1    1    1    2  502    0  0.10493018131E+02 -0.55335065513E+02  0.12393897242E+03  0.13613574765E+03  0.00000000000E+00 0. -1.
         22    1    3    3    0    0  0.50694412088E+01 -0.11235898540E+02 -0.38554858867E+02  0.40477423243E+02  0.00000000000E+00 0.  1.
         22    1    3    3    0    0  0.37295538540E+02 -0.15995808914E+02  0.99443154592E+02  0.10740467445E+03  0.00000000000E+00 0.  1.
</event>
<event>
 7    1  0.5889087E-006  0.1643516E+03  0.7818608E-02  0.1302617E+00
          2   -1    0    0  502    0  0.00000000000E+00  0.00000000000E+00  0.26625577330E+03  0.26625577330E+03  0.00000000000E+00 0. -1.
          1   -1    0    0  501    0 -0.00000000000E+00 -0.00000000000E+00 -0.88986769267E+03  0.88986769267E+03  0.00000000000E+00 0. -1.
         25    2    1    2    0    0  0.55816151634E+02  0.15866710889E+03 -0.75778894770E+02  0.22284175721E+03  0.12500125454E+03 0.  0.
          2    1    1    2  501    0 -0.67769789668E+01 -0.16455008507E+03 -0.72803691853E+03  0.74643178702E+03  0.00000000000E+00 0. -1.
          1    1    1    2  502    0 -0.49039172667E+02  0.58829761765E+01  0.18020389393E+03  0.18684992174E+03  0.00000000000E+00 0. -1.
         22    1    3    3    0    0  0.11981477405E+01 -0.20917853238E+02 -0.16136496385E+01  0.21014185858E+02  0.00000000000E+00 0.  1.
         22    1    3    3    0    0  0.54618003893E+02  0.17958496213E+03 -0.74165245131E+02  0.20182757135E+03  0.00000000000E+00 0.  1.
</event>
<event>
 7    1  0.5889087E-006  0.9730455E+02  0.7818608E-02  0.1336558E+00
          2   -1    0    0  502    0  0.00000000000E+00  0.00000000000E+00  0.16732714522E+04  0.16732714522E+04  0.00000000000E+00 0. -1.
          1   -1    0    0  501    0 -0.00000000000E+00 -0.00000000000E+00 -0.43945848715E+02  0.43945848715E+02  0.00000000000E+00 0. -1.
         25    2    1    2    0    0 -0.13205232679E+03 -0.29902398653E+02  0.71627414251E+03  0.73959757159E+03  0.12499580079E+03 0.  0.
          2    1    1    2  501    0  0.76224708523E+02  0.55908489282E+02  0.40406128265E+02  0.10280379645E+03  0.00000000000E+00 0. -1.
          1    1    1    2  502    0  0.55827618267E+02 -0.26006090629E+02  0.87264533267E+03  0.87481593284E+03  0.00000000000E+00 0. -1.
         22    1    3    3    0    0 -0.12258046797E+03 -0.33658920813E+02  0.71808391652E+03  0.72924852091E+03  0.00000000000E+00 0.  1.
         22    1    3    3    0    0 -0.94718588163E+01  0.37565221604E+01 -0.18097740053E+01  0.10349050687E+02  0.00000000000E+00 0.  1.
</event>
<event>
 7    1  0.5889087E-006  0.4194277E+03  0.7818608E-02  0.1167114E+00
          2   -1    0    0  502    0  0.00000000000E+00  0.00000000000E+00  0.36886944739E+04  0.36886944739E+04  0.00000000000E+00 0. -1.
          1   -1    0    0  501    0 -0.00000000000E+00 -0.00000000000E+00 -0.70715462633E+03  0.70715462633E+03  0.00000000000E+00 0. -1.
         25    2    1    2    0    0 -0.21724928351E+03  0.42261301078E+03 -0.30870473424E+02  0.49231878144E+03  0.12500315341E+03 0.  0.
          2    1    1    2  501    0  0.70861278880E+02 -0.32267032854E+02 -0.42948171057E+03  0.43648255632E+03  0.00000000000E+00 0. -1.
          1    1    1    2  502    0  0.14638800463E+03 -0.39034597792E+03  0.34418920316E+04  0.34670477625E+04  0.00000000000E+00 0. -1.
         22    1    3    3    0    0 -0.84896731127E+02  0.19878333787E+03  0.46341192981E+02  0.22106509570E+03  0.00000000000E+00 0.  1.
         22    1    3    3    0    0 -0.13235255238E+03  0.22382967291E+03 -0.77211666405E+02  0.27125368573E+03  0.00000000000E+00 0.  1.
</event>
<event>
 7    1  0.5889087E-006  0.2053198E+03  0.7818608E-02  0.1277529E+00
          2   -1    0    0  502    0  0.00000000000E+00  0.00000000000E+00  0.33569816930E+03  0.33569816930E+03  0.00000000000E+00 0. -1.
          1   -1    0    0  501    0 -0.00000000000E+00 -0.00000000000E+00 -0.21141389953E+03  0.21141389953E+03  0.00000000000E+00 0. -1.
         25    2    1    2    0    0 -0.44466628926E+02  0.18068702773E+03 -0.84645771078E+01  0.22432496926E+03  0.12499983876E+03 0.  0.
          2    1    1    2  501    0 -0.47965709934E+02  0.14138147549E+02 -0.24710012348E+02  0.55777963891E+02  0.00000000000E+00 0. -1.
          1    1    1    2  502    0  0.92432338860E+02 -0.19482517528E+03  0.15745885922E+03  0.26700913568E+03  0.00000000000E+00 0. -1.
         22    1    3    3    0    0 -0.55103583897E+02  0.15646553049E+03  0.38616669313E+02  0.17032062217E+03  0.00000000000E+00 0.  1.
         22    1    3    3    0    0  0.10636954970E+02  0.24221497242E+02 -0.47081246421E+02  0.54004347086E+02  0.00000000000E+00 0.  1.
</event>
<event>
 7    1  0.5889087E-006  0.1162385E+03  0.7818608E-02  0.1308600E+00
          2   -1    0    0  502    0  0.00000000000E+00  0.00000000000E+00  0.13549871593E+04  0.13549871593E+04  0.00000000000E+00 0. -1.
          1   -1    0    0  501    0 -0.00000000000E+00 -0.00000000000E+00 -0.66677732762E+03  0.66677732762E+03  0.00000000000E+00 0. -1.
         25    2    1    2    0    0  0.10755942214E+03  0.13167602705E+03 -0.97259421361E+02  0.23235853920E+03  0.12499396107E+03 0.  0.
          2    1    1    2  501    0 -0.49483053960E+02 -0.10007084241E+03 -0.49489779834E+03  0.50733280687E+03  0.00000000000E+00 0. -1.
          1    1    1    2  502    0 -0.58076368183E+02 -0.31605184633E+02  0.12803670514E+04  0.12820731409E+04  0.00000000000E+00 0. -1.
         22    1    3    3    0    0  0.24948646510E+02  0.60886990282E+02  0.23453923630E+02  0.69855186507E+02  0.00000000000E+00 0. -1.
         22    1    3    3    0    0  0.82610775633E+02  0.70789036763E+02 -0.12071334499E+03  0.16250335269E+03  0.00000000000E+00 0. -1.
</event>
<event>
 7    1  0.5889087E-006  0.6048765E+02  0.7818608E-02  0.1505765E+00
          2   -1    0    0  502    0  0.00000000000E+00  0.00000000000E+00  0.17940389349E+04  0.17940389349E+04  0.00000000000E+00 0. -1.
          1   -1    0    0  501    0 -0.00000000000E+00 -0.00000000000E+00 -0.34085971821E+03  0.34085971821E+03  0.00000000000E+00 0. -1.
         25    2    1    2    0    0 -0.28141506746E+02  0.74840314042E+02  0.28028326170E+03  0.31714414809E+03  0.12501474661E+03 0.  0.
          2    1    1    2  501    0  0.56691631803E+01 -0.60062865808E+02 -0.31948496333E+03  0.32513124896E+03  0.00000000000E+00 0. -1.
          1    1    1    2  502    0  0.22472343566E+02 -0.14777448233E+02  0.14923809183E+04  0.14926232561E+04  0.00000000000E+00 0. -1.
         22    1    3    3    0    0  0.32590387479E+02  0.62096380845E+02  0.74968478323E+02  0.10265654685E+03  0.00000000000E+00 0.  1.
         22    1    3    3    0    0 -0.60731894225E+02  0.12743933197E+02  0.20531478338E+03  0.21448760123E+03  0.00000000000E+00 0.  1.
</event>
<event>
 7    1  0.5889087E-006  0.4336943E+02  0.7818608E-02  0.1545019E+00
          2   -1    0    0  502    0  0.00000000000E+00  0.00000000000E+00  0.31917528091E+04  0.31917528091E+04  0.00000000000E+00 0. -1.
          1   -1    0    0  501    0 -0.00000000000E+00 -0.00000000000E+00 -0.47398199621E+02  0.47398199621E+02  0.00000000000E+00 0. -1.
         25    2    1    2    0    0  0.19571639466E+02 -0.39495901900E+02  0.75872127102E+03  0.77021083922E+03  0.12499517755E+03 0.  0.
          2    1    1    2  501    0 -0.28728637503E+02 -0.31960417560E+01 -0.36417958004E+02  0.46495343432E+02  0.00000000000E+00 0. -1.
          1    1    1    2  502    0  0.91569980368E+01  0.42691943656E+02  0.24220512965E+04  0.24224448261E+04  0.00000000000E+00 0. -1.
         22    1    3    3    0    0  0.61001154600E+02 -0.46732792302E+02  0.63287007624E+03  0.63751833553E+03  0.00000000000E+00 0.  1.
         22    1    3    3    0    0 -0.41429515133E+02  0.72368904021E+01  0.12585119478E+03  0.13269250368E+03  0.00000000000E+00 0.  1.
</event>
<event>
 7    1  0.1149821E-005  0.9403364E+02  0.7818608E-02  0.1323971E+00
          2   -1    0    0  502    0  0.00000000000E+00  0.00000000000E+00  0.65103932362E+03  0.65103932362E+03  0.00000000000E+00 0. -1.
          1   -1    0    0  501    0 -0.00000000000E+00 -0.00000000000E+00 -0.19187936583E+04  0.19187936583E+04  0.00000000000E+00 0. -1.
         25    2    1    2    0    0  0.57997887530E+02  0.64790390911E+02 -0.10236825912E+04  0.10349460925E+04  0.12500326867E+03 0.  0.
          2    1    1    2  501    0  0.36085895943E+02 -0.61364907610E+02 -0.88460848386E+03  0.88746831689E+03  0.00000000000E+00 0. -1.
          1    1    1    2  502    0 -0.94083783473E+02 -0.34254833012E+01  0.64053674039E+03  0.64741857251E+03  0.00000000000E+00 0. -1.
         22    1    3    3    0    0  0.83758475556E+02  0.13653741957E+01 -0.57615902177E+03  0.58221693967E+03  0.00000000000E+00 0. -1.
         22    1    3    3    0    0 -0.25760588026E+02  0.63425016715E+02 -0.44752356945E+03  0.45272915287E+03  0.00000000000E+00 0. -1.
</event>
<event>
 7    1  0.5889087E-006  0.1353846E+03  0.7818608E-02  0.1276037E+00
          2   -1    0    0  502    0  0.00000000000E+00  0.00000000000E+00  0.11594564257E+04  0.11594564257E+04  0.00000000000E+00 0. -1.
          1   -1    0    0  501    0 -0.00000000000E+00 -0.00000000000E+00 -0.10124597176E+04  0.10124597176E+04  0.00000000000E+00 0. -1.
         25    2    1    2    0    0  0.11470591956E+03 -0.98126258973E+02  0.32979952010E+03  0.38364048084E+03  0.12500433754E+03 0.  0.
          2    1    1    2  501    0  0.18946969020E+02  0.74557765838E+02 -0.97828226983E+03  0.98130222029E+03  0.00000000000E+00 0. -1.
          1    1    1    2  502    0 -0.13365288858E+03  0.23568493136E+02  0.79547945782E+03  0.80697344213E+03  0.00000000000E+00 0. -1.
         22    1    3    3    0    0  0.31161158383E+02  0.18033797033E+02  0.17304847357E+02  0.39946130843E+02  0.00000000000E+00 0.  1.
         22    1    3    3    0    0  0.83544761173E+02 -0.11616005601E+03  0.31249467274E+03  0.34369435000E+03  0.00000000000E+00 0.  1.
</event>
<event>
 7    1  0.5889087E-006  0.1123018E+03  0.7818608E-02  0.1394252E+00
          2   -1    0    0  502    0  0.00000000000E+00  0.00000000000E+00  0.72035138917E+03  0.72035138917E+03  0.00000000000E+00 0. -1.
          1   -1    0    0  501    0 -0.00000000000E+00 -0.00000000000E+00 -0.22020121810E+04  0.22020121810E+04  0.00000000000E+00 0. -1.
         25    2    1    2    0    0  0.66866215479E+02 -0.10787758869E+03 -0.61576318883E+02  0.18848224337E+03  0.12500099242E+03 0.  0.
          2    1    1    2  501    0  0.13540627735E+02  0.30075996097E+02 -0.20720865107E+04  0.20723490106E+04  0.00000000000E+00 0. -1.
          1    1    1    2  502    0 -0.80406843214E+02  0.77801592597E+02  0.65200203769E+03  0.66153231621E+03  0.00000000000E+00 0. -1.
         22    1    3    3    0    0  0.80724069518E+01 -0.11717727517E+03 -0.50890519057E+02  0.12800594713E+03  0.00000000000E+00 0.  1.
         22    1    3    3    0    0  0.58793808527E+02  0.92996864756E+01 -0.10685799826E+02  0.60476296245E+02  0.00000000000E+00 0.  1.
</event>
<event>
 7    1  0.5889087E-006  0.1731033E+03  0.7818608E-02  0.1345125E+00
          2   -1    0    0  502    0  0.00000000000E+00  0.00000000000E+00  0.29592586887E+03  0.29592586887E+03  0.00000000000E+00 0. -1.
          1   -1    0    0  501    0 -0.00000000000E+00 -0.00000000000E+00 -0.17879872326E+04  0.17879872326E+04  0.00000000000E+00 0. -1.
         25    2    1    2    0    0  0.91486971388E+01  0.19357801334E+03 -0.22110997865E+02  0.23166643330E+03  0.12499717669E+03 0.  0.
          2    1    1    2  501    0  0.15644166708E+02 -0.28082767945E+02 -0.16242837760E+04  0.16246018487E+04  0.00000000000E+00 0. -1.
          1    1    1    2  502    0 -0.24792863847E+02 -0.16549524540E+03  0.15433341013E+03  0.22764481947E+03  0.00000000000E+00 0. -1.
         22    1    3    3    0    0 -0.40433190422E+02  0.17161113670E+03 -0.19304676661E+02  0.17736373832E+03  0.00000000000E+00 0. -1.
         22    1    3    3    0    0  0.49581887561E+02  0.21966876642E+02 -0.28063212040E+01  0.54302694981E+02  0.00000000000E+00 0. -1.
</event>
<event>
 7    1  0.5889087E-006  0.6373476E+02  0.7818608E-02  0.1413336E+00
          2   -1    0    0  502    0  0.00000000000E+00  0.00000000000E+00  0.63415767720E+02  0.63415767720E+02  0.00000000000E+00 0. -1.
          1   -1    0    0  501    0 -0.00000000000E+00 -0.00000000000E+00 -0.36436649457E+03  0.36436649457E+03  0.00000000000E+00 0. -1.
         25    2    1    2    0    0 -0.41980932860E+02  0.64718740122E+02 -0.17327690391E+03  0.22715612267E+03  0.12499641831E+03 0.  0.
          2    1    1    2  501    0  0.61169335837E+02 -0.18537946626E+02 -0.13567939887E+03  0.14998080674E+03  0.00000000000E+00 0. -1.
          1    1    1    2  502    0 -0.19188402977E+02 -0.46180793496E+02  0.80055759342E+01  0.50645332882E+02  0.00000000000E+00 0. -1.
         22    1    3    3    0    0 -0.90932707470E+01 -0.75713692933E+01 -0.14089133325E+03  0.14138734382E+03  0.00000000000E+00 0.  1.
         22    1    3    3    0    0 -0.32887662113E+02  0.72290109415E+02 -0.32385570657E+02  0.85768778849E+02  0.00000000000E+00 0.  1.
</event>
<event>
 7    1  0.5889087E-006  0.1265853E+03  0.7818608E-02  0.1418689E+00
          2   -1    0    0  502    0  0.00000000000E+00  0.00000000000E+00  0.65730102003E+03  0.65730102003E+03  0.00000000000E+00 0. -1.
          1   -1    0    0  501    0 -0.00000000000E+00 -0.00000000000E+00 -0.86196612352E+03  0.86196612352E+03  0.00000000000E+00 0. -1.
         25    2    1    2    0    0 -0.12583426877E+03  0.49939825428E+01  0.15466426896E+02  0.17811116908E+03  0.12500070052E+03 0.  0.
          2    1    1    2  501    0  0.46040414613E+00 -0.24153266868E+02 -0.77327816188E+03  0.77365541936E+03  0.00000000000E+00 0. -1.
          1    1    1    2  502    0  0.12537386463E+03  0.19159284325E+02  0.55314663150E+03  0.56750055511E+03  0.00000000000E+00 0. -1.
         22    1    3    3    0    0  0.82025614263E+01 -0.22365504018E+02  0.32455259000E+02  0.40259677355E+02  0.00000000000E+00 0.  1.
         22    1    3    3    0    0 -0.13403683020E+03  0.27359486561E+02 -0.16988832104E+02  0.13785149173E+03  0.00000000000E+00 0.  1.
</event>
<event>
 7    1  0.5889087E-006  0.2462726E+02  0.7818608E-02  0.1690792E+00
          2   -1    0    0  502    0  0.00000000000E+00  0.00000000000E+00  0.44931726539E+03  0.44931726539E+03  0.00000000000E+00 0. -1.
          1   -1    0    0  501    0 -0.00000000000E+00 -0.00000000000E+00 -0.45327050308E+02  0.45327050308E+02  0.00000000000E+00 0. -1.
         25    2    1    2    0    0  0.27213068079E+02 -0.27157987184E+02  0.22717053003E+03  0.26212603502E+03  0.12500200470E+03 0.  0.
          2    1    1    2  501    0 -0.21253881977E+02  0.36395583662E+01 -0.22827847125E+02  0.31401982240E+02  0.00000000000E+00 0. -1.
          1    1    1    2  502    0 -0.59591861017E+01  0.23518428818E+02  0.19964753218E+03  0.20111629844E+03  0.00000000000E+00 0. -1.
         22    1    3    3    0    0 -0.46321870797E+02 -0.30301141274E+02  0.11957008927E+03  0.13176069643E+03  0.00000000000E+00 0. -1.
         22    1    3    3    0    0  0.73534938876E+02  0.31431540895E+01  0.10760044077E+03  0.13036533859E+03  0.00000000000E+00 0. -1.
</event>
<event>
 7    1  0.5889087E-006  0.5540432E+02  0.7818608E-02  0.1440596E+00
          2   -1    0    0  502    0  0.00000000000E+00  0.00000000000E+00  0.45934126399E+03  0.45934126399E+03  0.00000000000E+00 0. -1.
          1   -1    0    0  501    0 -0.00000000000E+00 -0.00000000000E+00 -0.25961199317E+04  0.25961199317E+04  0.00000000000E+00 0. -1.
         25    2    1    2    0    0  0.85164625868E+01 -0.46207207451E+02  0.35034377718E+03  0.37493317550E+03  0.12500595075E+03 0.  0.
          2    1    1    2  501    0 -0.54574038625E+02  0.95557881934E+01 -0.25745426052E+04  0.25751386884E+04  0.00000000000E+00 0. -1.
          1    1    1    2  502    0  0.46057576038E+02  0.36651419258E+02  0.87420160236E+02  0.10538933181E+03  0.00000000000E+00 0. -1.
         22    1    3    3    0    0  0.23084445118E+02 -0.78253698190E+02  0.14312998566E+03  0.16475049524E+03  0.00000000000E+00 0.  1.
         22    1    3    3    0    0 -0.14567982532E+02  0.32046490740E+02  0.20721379152E+03  0.21018268026E+03  0.00000000000E+00 0.  1.
</event>
<event>
 7    1  0.5889087E-006  0.8745103E+02  0.7818608E-02  0.1431093E+00
          2   -1    0    0  502    0  0.00000000000E+00  0.00000000000E+00  0.36018950286E+04  0.36018950286E+04  0.00000000000E+00 0. -1.
          1   -1    0    0  501    0 -0.00000000000E+00 -0.00000000000E+00 -0.30279236087E+03  0.30279236087E+03  0.00000000000E+00 0. -1.
         25    2    1    2    0    0 -0.11252081010E+03  0.35876933303E+02  0.98273905550E+02  0.19804791867E+03  0.12496851815E+03 0.  0.
          2    1    1    2  501    0  0.27855540540E+02 -0.15356284343E+02 -0.25135353824E+03  0.25335814136E+03  0.00000000000E+00 0. -1.
          1    1    1    2  502    0  0.84665269561E+02 -0.20520648960E+02  0.34521823004E+04  0.34532813294E+04  0.00000000000E+00 0. -1.
         22    1    3    3    0    0  0.25304338371E+02 -0.56773333728E+01  0.47035219119E+01  0.26356493943E+02  0.00000000000E+00 0. -1.
         22    1    3    3    0    0 -0.13782514847E+03  0.41554266676E+02  0.93570383638E+02  0.17169142473E+03  0.00000000000E+00 0. -1.
</event>
<event>
 7    1  0.5889087E-006  0.1169612E+03  0.7818608E-02  0.1412081E+00
          2   -1    0    0  502    0  0.00000000000E+00  0.00000000000E+00  0.54922688958E+03  0.54922688958E+03  0.00000000000E+00 0. -1.
          1   -1    0    0  501    0 -0.00000000000E+00 -0.00000000000E+00 -0.86099810634E+03  0.86099810634E+03  0.00000000000E+00 0. -1.
         25    2    1    2    0    0  0.46779712540E+02  0.10737010233E+03 -0.21389766315E+02  0.17262964882E+03  0.12500717247E+03 0.  0.
          2    1    1    2  501    0  0.23790029890E+02 -0.13830057605E+02 -0.75648692321E+03  0.75698725286E+03  0.00000000000E+00 0. -1.
          1    1    1    2  502    0 -0.70569742430E+02 -0.93540044723E+02  0.46610547276E+03  0.48060809424E+03  0.00000000000E+00 0. -1.
         22    1    3    3    0    0  0.48645595162E+02 -0.12644939496E+02 -0.14902478959E+02  0.52424920626E+02  0.00000000000E+00 0. -1.
         22    1    3    3    0    0 -0.18658826215E+01  0.12001504182E+03 -0.64872873558E+01  0.12020472819E+03  0.00000000000E+00 0. -1.
</event>
<event>
 7    1  0.5889087E-006  0.8820973E+02  0.7818608E-02  0.1389032E+00
          2   -1    0    0  502    0  0.00000000000E+00  0.00000000000E+00  0.28727510724E+03  0.28727510724E+03  0.00000000000E+00 0. -1.
          1   -1    0    0  501    0 -0.00000000000E+00 -0.00000000000E+00 -0.42280428790E+03  0.42280428790E+03  0.00000000000E+00 0. -1.
         25    2    1    2    0    0 -0.38273535811E+02 -0.12096047480E+03  0.10597459143E+03  0.20724982938E+03  0.12500231095E+03 0.  0.
          2    1    1    2  501    0  0.11619603715E+02  0.86221073895E+02 -0.36321102905E+03  0.37348539516E+03  0.00000000000E+00 0. -1.
          1    1    1    2  502    0  0.26653932096E+02  0.34739400903E+02  0.12170725696E+03  0.12934417060E+03  0.00000000000E+00 0. -1.
         22    1    3    3    0    0 -0.33982083882E+02  0.13790127325E+02  0.48218855111E+02  0.60580587855E+02  0.00000000000E+00 0. -1.
         22    1    3    3    0    0 -0.42914519298E+01 -0.13475060212E+03  0.57755736319E+02  0.14666924153E+03  0.00000000000E+00 0. -1.
</event>
<event>
 7    1  0.5889087E-006  0.6275896E+02  0.7818608E-02  0.1473529E+00
          2   -1    0    0  502    0  0.00000000000E+00  0.00000000000E+00  0.95317669152E+03  0.95317669152E+03  0.00000000000E+00 0. -1.
          1   -1    0    0  501    0 -0.00000000000E+00 -0.00000000000E+00 -0.24385993228E+04  0.24385993228E+04  0.00000000000E+00 0. -1.
         25    2    1    2    0    0  0.61462507945E+02  0.72403034382E+02 -0.18695179533E+02  0.15809857267E+03  0.12500323864E+03 0.  0.
          2    1    1    2  501    0 -0.39395108086E+02 -0.48606672796E+02 -0.23494878061E+04  0.23503207300E+04  0.00000000000E+00 0. -1.
          1    1    1    2  502    0 -0.22067399859E+02 -0.23796361586E+02  0.88276035427E+03  0.88335671166E+03  0.00000000000E+00 0. -1.
         22    1    3    3    0    0  0.66328440777E+02  0.12124829839E+02  0.36107576814E+02  0.76486800547E+02  0.00000000000E+00 0. -1.
         22    1    3    3    0    0 -0.48659328320E+01  0.60278204543E+02 -0.54802756347E+02  0.81611772119E+02  0.00000000000E+00 0. -1.
</event>
<event>
 7    1  0.5889087E-006  0.4838933E+02  0.7818608E-02  0.1460153E+00
          2   -1    0    0  502    0  0.00000000000E+00  0.00000000000E+00  0.63314333794E+03  0.63314333794E+03  0.00000000000E+00 0. -1.
          1   -1    0    0  501    0 -0.00000000000E+00 -0.00000000000E+00 -0.17772895222E+03  0.17772895222E+03  0.00000000000E+00 0. -1.
         25    2    1    2    0    0  0.40431859315E+02  0.28279422717E+02  0.54119467149E+02  0.14487455796E+03  0.12500103928E+03 0.  0.
          2    1    1    2  501    0 -0.46027782044E+02  0.17724423346E+02 -0.12670578461E+03  0.13596715690E+03  0.00000000000E+00 0. -1.
          1    1    1    2  502    0  0.55959227293E+01 -0.46003846063E+02  0.52800070318E+03  0.53003057530E+03  0.00000000000E+00 0. -1.
         22    1    3    3    0    0 -0.16407461471E+02 -0.22672574003E+02  0.62109737817E+02  0.68123930712E+02  0.00000000000E+00 0. -1.
         22    1    3    3    0    0  0.56839320786E+02  0.50951996721E+02 -0.79902706682E+01  0.76750627245E+02  0.00000000000E+00 0. -1.
</event>
<event>
 7    1  0.5889087E-006  0.1349174E+03  0.7818608E-02  0.1265449E+00
          2   -1    0    0  502    0  0.00000000000E+00  0.00000000000E+00  0.38438597864E+03  0.38438597864E+03  0.00000000000E+00 0. -1.
          1   -1    0    0  501    0 -0.00000000000E+00 -0.00000000000E+00 -0.23042563179E+04  0.23042563179E+04  0.00000000000E+00 0. -1.
         25    2    1    2    0    0  0.10285410485E+03 -0.17967018849E+03  0.47896341452E+01  0.24188513047E+03  0.12500052892E+03 0.  0.
          2    1    1    2  501    0 -0.59498805454E+02  0.61409772056E+02 -0.21696235351E+04  0.21713077976E+04  0.00000000000E+00 0. -1.
          1    1    1    2  502    0 -0.43355299400E+02  0.11826041643E+03  0.24496356164E+03  0.27544936851E+03  0.00000000000E+00 0. -1.
         22    1    3    3    0    0  0.11161196656E+03 -0.74517411926E+02 -0.13186817161E+02  0.13484794365E+03  0.00000000000E+00 0. -1.
         22    1    3    3    0    0 -0.87578617105E+01 -0.10515277656E+03  0.17976451306E+02  0.10703718682E+03  0.00000000000E+00 0. -1.
</event>
<event>
 7    1  0.5889087E-006  0.7476619E+02  0.7818608E-02  0.1415763E+00
          2   -1    0    0  502    0  0.00000000000E+00  0.00000000000E+00  0.14245854305E+04  0.14245854305E+04  0.00000000000E+00 0. -1.
          1   -1    0    0  501    0 -0.00000000000E+00 -0.00000000000E+00 -0.12086422559E+03  0.12086422559E+03  0.00000000000E+00 0. -1.
         25    2    1    2    0    0  0.37061032940E+02  0.20532865170E+02  0.15720848890E+03  0.20526701158E+03  0.12499967339E+03 0.  0.
          2    1    1    2  501    0  0.39243367017E+02 -0.14496924109E+02 -0.91078212467E+02  0.10022695969E+03  0.00000000000E+00 0. -1.
          1    1    1    2  502    0 -0.76304399957E+02 -0.60359410608E+01  0.12375909285E+04  0.12399556848E+04  0.00000000000E+00 0. -1.
         22    1    3    3    0    0 -0.17389544134E+01 -0.30826957640E+02 -0.45151556894E+01  0.31204357239E+02  0.00000000000E+00 0. -1.
         22    1    3    3    0    0  0.38799987354E+02  0.51359822810E+02  0.16172364459E+03  0.17406265434E+03  0.00000000000E+00 0. -1.
</event>
<event>
 7    1  0.5889087E-006  0.8035678E+02  0.7818608E-02  0.1350701E+00
          2   -1    0    0  502    0  0.00000000000E+00  0.00000000000E+00  0.19006410722E+04  0.19006410722E+04  0.00000000000E+00 0. -1.
          1   -1    0    0  501    0 -0.00000000000E+00 -0.00000000000E+00 -0.89420129789E+03  0.89420129789E+03  0.00000000000E+00 0. -1.
         25    2    1    2    0    0  0.74512603585E+02  0.11934724319E+03  0.22680352428E+02  0.18957452755E+03  0.12501284158E+03 0.  0.
          2    1    1    2  501    0 -0.25505930181E+02 -0.75106275354E+02 -0.80820482465E+03  0.81208776844E+03  0.00000000000E+00 0. -1.
          1    1    1    2  502    0 -0.49006673404E+02 -0.44240967832E+02  0.17919642465E+04  0.17931800741E+04  0.00000000000E+00 0. -1.
         22    1    3    3    0    0  0.18722497954E+02  0.75135765811E+02  0.69765994006E+02  0.10422671996E+03  0.00000000000E+00 0. -1.
         22    1    3    3    0    0  0.55790105631E+02  0.44211477375E+02 -0.47085641578E+02  0.85347807592E+02  0.00000000000E+00 0. -1.
</event>
<event>
 7    1  0.5889087E-006  0.6473708E+02  0.7818608E-02  0.1414134E+00
          2   -1    0    0  502    0  0.00000000000E+00  0.00000000000E+00  0.66965620657E+03  0.66965620657E+03  0.00000000000E+00 0. -1.
          1   -1    0    0  501    0 -0.00000000000E+00 -0.00000000000E+00 -0.47073505222E+03  0.47073505222E+03  0.00000000000E+00 0. -1.
         25    2    1    2    0    0  0.18075105172E+02 -0.28849372252E+02  0.73722168434E+01  0.12976755196E+03  0.12500508891E+03 0.  0.
          2    1    1    2  501    0 -0.34051381684E+02 -0.35138126708E+02 -0.40625586204E+03  0.40919189873E+03  0.00000000000E+00 0. -1.
          1    1    1    2  502    0  0.15976276511E+02  0.63987498960E+02  0.59780479955E+03  0.60143180810E+03  0.00000000000E+00 0. -1.
         22    1    3    3    0    0 -0.42093364327E+02 -0.24991105160E+02  0.38160283432E+02  0.62069427974E+02  0.00000000000E+00 0.  1.
         22    1    3    3    0    0  0.60168469499E+02 -0.38582670927E+01 -0.30788066588E+02  0.67698123985E+02  0.00000000000E+00 0.  1.
</event>
<event>
 7    1  0.5889087E-006  0.1521778E+03  0.7818608E-02  0.1356451E+00
          2   -1    0    0  502    0  0.00000000000E+00  0.00000000000E+00  0.17006886265E+04  0.17006886265E+04  0.00000000000E+00 0. -1.
          1   -1    0    0  501    0 -0.00000000000E+00 -0.00000000000E+00 -0.21485578384E+03  0.21485578384E+03  0.00000000000E+00 0. -1.
         25    2    1    2    0    0 -0.49937449147E+02 -0.11913157393E+03  0.36130622189E+03  0.40355034635E+03  0.12499846130E+03 0.  0.
          2    1    1    2  501    0  0.80856913575E+02  0.13123109984E+03 -0.16282583906E+03  0.22421350518E+03  0.00000000000E+00 0. -1.
          1    1    1    2  502    0 -0.30919464428E+02 -0.12099525906E+02  0.12873524598E+04  0.12877805588E+04  0.00000000000E+00 0. -1.
         22    1    3    3    0    0  0.69809916298E+01  0.21258318969E+02  0.19507607572E+02  0.29684964589E+02  0.00000000000E+00 0.  1.
         22    1    3    3    0    0 -0.56918440777E+02 -0.14038989290E+03  0.34179861432E+03  0.37386538176E+03  0.00000000000E+00 0.  1.
</event>
<event>
 7    1  0.5889087E-006  0.9300391E+02  0.7818608E-02  0.1444722E+00
          2   -1    0    0  502    0  0.00000000000E+00  0.00000000000E+00  0.38877928667E+03  0.38877928667E+03  0.00000000000E+00 0. -1.
          1   -1    0    0  501    0 -0.00000000000E+00 -0.00000000000E+00 -0.91123343294E+03  0.91123343294E+03  0.00000000000E+00 0. -1.
         25    2    1    2    0    0 -0.81890200227E+02  0.11068745716E+02 -0.13522751139E+01  0.14985187490E+03  0.12500093495E+03 0.  0.
          2    1    1    2  501    0 -0.11396027541E+02 -0.24482076420E+02 -0.82834644417E+03  0.82878650633E+03  0.00000000000E+00 0. -1.
          1    1    1    2  502    0  0.93286227768E+02  0.13413330704E+02  0.30724457300E+03  0.32137433838E+03  0.00000000000E+00 0. -1.
         22    1    3    3    0    0 -0.67979071174E+02  0.92257086618E+01  0.57399107038E+02  0.89447891572E+02  0.00000000000E+00 0.  1.
         22    1    3    3    0    0 -0.13911129053E+02  0.18430370544E+01 -0.58751382152E+02  0.60403983328E+02  0.00000000000E+00 0.  1.
</event>
<event>
 7    1  0.5889087E-006  0.7444343E+02  0.7818608E-02  0.1404636E+00
          2   -1    0    0  502    0  0.00000000000E+00  0.00000000000E+00  0.23843407419E+03  0.23843407419E+03  0.00000000000E+00 0. -1.
          1   -1    0    0  501    0 -0.00000000000E+00 -0.00000000000E+00 -0.11493434332E+04  0.11493434332E+04  0.00000000000E+00 0. -1.
         25    2    1    2    0    0  0.97388162394E+01  0.32015014528E+02 -0.52381516921E+02  0.13960180485E+03  0.12500013962E+03 0.  0.
          2    1    1    2  501    0 -0.42576533366E+01  0.45628879826E+02 -0.10450550502E+04  0.10460593579E+04  0.00000000000E+00 0. -1.
          1    1    1    2  502    0 -0.54811629027E+01 -0.77643894354E+02  0.18652720802E+03  0.20211634473E+03  0.00000000000E+00 0. -1.
         22    1    3    3    0    0  0.19450037528E+02 -0.42927516536E+02 -0.42366611797E+02  0.63371960921E+02  0.00000000000E+00 0. -1.
         22    1    3    3    0    0 -0.97112212885E+01  0.74942531063E+02 -0.10014905124E+02  0.76229843931E+02  0.00000000000E+00 0. -1.
</event>
<event>
 7    1  0.5889087E-006  0.8456370E+02  0.7818608E-02  0.1464839E+00
          2   -1    0    0  502    0  0.00000000000E+00  0.00000000000E+00  0.41520628049E+02  0.41520628049E+02  0.00000000000E+00 0. -1.
          1   -1    0    0  501    0 -0.00000000000E+00 -0.00000000000E+00 -0.12423521399E+04  0.12423521399E+04  0.00000000000E+00 0. -1.
         25    2    1    2    0    0  0.87057179869E+02  0.33810792364E+02 -0.29952769969E+03  0.33773452160E+03  0.12500256778E+03 0.  0.
          2    1    1    2  501    0 -0.67335766025E+02 -0.50186893779E+02 -0.91377871432E+03  0.91762975564E+03  0.00000000000E+00 0. -1.
          1    1    1    2  502    0 -0.19721413845E+02  0.16376101415E+02  0.12474902121E+02  0.28508490744E+02  0.00000000000E+00 0. -1.
         22    1    3    3    0    0  0.71947695589E+02  0.35525484766E+02 -0.66510782190E+02  0.10422195122E+03  0.00000000000E+00 0. -1.
         22    1    3    3    0    0  0.15109484281E+02 -0.17146924015E+01 -0.23301691750E+03  0.23351257038E+03  0.00000000000E+00 0. -1.
</event>
<event>
 7    1  0.5889087E-006  0.1050962E+03  0.7818608E-02  0.1418629E+00
          2   -1    0    0  502    0  0.00000000000E+00  0.00000000000E+00  0.62960740042E+03  0.62960740042E+03  0.00000000000E+00 0. -1.
          1   -1    0    0  501    0 -0.00000000000E+00 -0.00000000000E+00 -0.58364255296E+03  0.58364255296E+03  0.00000000000E+00 0. -1.
         25    2    1    2    0    0 -0.65425228031E+02 -0.63420996432E+02  0.28752376319E+03  0.32649376136E+03  0.12500231421E+03 0.  0.
          2    1    1    2  501    0 -0.29052808021E+02  0.18336343515E+01 -0.55390689332E+03  0.55467132099E+03  0.00000000000E+00 0. -1.
          1    1    1    2  502    0  0.94478036052E+02  0.61587362080E+02  0.31234797758E+03  0.33208487103E+03  0.00000000000E+00 0. -1.
         22    1    3    3    0    0 -0.61740303866E+02  0.24598477297E+02  0.11702192126E+03  0.13457741364E+03  0.00000000000E+00 0. -1.
         22    1    3    3    0    0 -0.36849241646E+01 -0.88019473728E+02  0.17050184193E+03  0.19191634772E+03  0.00000000000E+00 0. -1.
</event>
<event>
 7    1  0.5889087E-006  0.5744699E+02  0.7818608E-02  0.1557066E+00
          2   -1    0    0  502    0  0.00000000000E+00  0.00000000000E+00  0.16968602059E+04  0.16968602059E+04  0.00000000000E+00 0. -1.
          1   -1    0    0  501    0 -0.00000000000E+00 -0.00000000000E+00 -0.17250000429E+03  0.17250000429E+03  0.00000000000E+00 0. -1.
         25    2    1    2    0    0 -0.28161443929E+02 -0.43704348442E+02  0.22269045486E+03  0.26061189606E+03  0.12499753872E+03 0.  0.
          2    1    1    2  501    0 -0.18027956223E+02  0.91113753142E+01 -0.15230006486E+03  0.15363376622E+03  0.00000000000E+00 0. -1.
          1    1    1    2  502    0  0.46189400152E+02  0.34592973127E+02  0.14539698116E+04  0.14551145479E+04  0.00000000000E+00 0. -1.
         22    1    3    3    0    0  0.34049229284E+02 -0.58446726290E+02  0.14497065703E+03  0.15997456431E+03  0.00000000000E+00 0. -1.
         22    1    3    3    0    0 -0.62210673212E+02  0.14742377848E+02  0.77719797830E+02  0.10063733175E+03  0.00000000000E+00 0. -1.
</event>
<event>
 7    1  0.5889087E-006  0.5024056E+02  0.7818608E-02  0.1533168E+00
          2   -1    0    0  502    0  0.00000000000E+00  0.00000000000E+00  0.89592066987E+02  0.89592066987E+02  0.00000000000E+00 0. -1.
          1   -1    0    0  501    0 -0.00000000000E+00 -0.00000000000E+00 -0.55338016803E+03  0.55338016803E+03  0.00000000000E+00 0. -1.
         25    2    1    2    0    0  0.46336499483E+02 -0.47560762356E+02 -0.14975402961E+03  0.20605925503E+03  0.12500019960E+03 0.  0.
          2    1    1    2  501    0 -0.12753722287E+01  0.26925941432E+02 -0.36490003449E+03  0.36589434003E+03  0.00000000000E+00 0. -1.
          1    1    1    2  502    0 -0.45061127254E+02  0.20634820923E+02  0.50865963054E+02  0.71018639957E+02  0.00000000000E+00 0. -1.
         22    1    3    3    0    0  0.79840038759E+02 -0.10205389861E+02 -0.12836307953E+03  0.15151126017E+03  0.00000000000E+00 0. -1.
         22    1    3    3    0    0 -0.33503539276E+02 -0.37355372495E+02 -0.21390950081E+02  0.54547994864E+02  0.00000000000E+00 0. -1.
</event>
<event>
 7    1  0.5889087E-006  0.1021671E+03  0.7818608E-02  0.1281102E+00
          2   -1    0    0  502    0  0.00000000000E+00  0.00000000000E+00  0.20604530337E+03  0.20604530337E+03  0.00000000000E+00 0. -1.
          1   -1    0    0  501    0 -0.00000000000E+00 -0.00000000000E+00 -0.57346928567E+03  0.57346928567E+03  0.00000000000E+00 0. -1.
         25    2    1    2    0    0 -0.63693848975E+02  0.14191318755E+02 -0.86833592421E+02  0.16559754067E+03  0.12499669107E+03 0.  0.
          2    1    1    2  501    0  0.21047069571E+02 -0.10703188239E+03 -0.42401653310E+03  0.43782282185E+03  0.00000000000E+00 0. -1.
          1    1    1    2  502    0  0.42646779404E+02  0.92840563635E+02  0.14342614323E+03  0.17609422651E+03  0.00000000000E+00 0. -1.
         22    1    3    3    0    0  0.12585654651E+02 -0.87683163937E+01 -0.84523565482E+02  0.85904104659E+02  0.00000000000E+00 0. -1.
         22    1    3    3    0    0 -0.76279503626E+02  0.22959635148E+02 -0.23100269387E+01  0.79693436016E+02  0.00000000000E+00 0. -1.
</event>
<event>
 7    1  0.5889087E-006  0.1497334E+03  0.7818608E-02  0.1390093E+00
          2   -1    0    0  502    0  0.00000000000E+00  0.00000000000E+00  0.93033453717E+03  0.93033453717E+03  0.00000000000E+00 0. -1.
          1   -1    0    0  501    0 -0.00000000000E+00 -0.00000000000E+00 -0.73751268068E+03  0.73751268068E+03  0.00000000000E+00 0. -1.
         25    2    1    2    0    0  0.70381688782E+02 -0.10748987944E+03  0.12326036642E+02  0.17967816370E+03  0.12499862012E+03 0.  0.
          2    1    1    2  501    0  0.22450062133E+02 -0.12252532746E+02 -0.64670321349E+03  0.64720875781E+03  0.00000000000E+00 0. -1.
          1    1    1    2  502    0 -0.92831750915E+02  0.11974241219E+03  0.82719903334E+03  0.84096029634E+03  0.00000000000E+00 0. -1.
         22    1    3    3    0    0 -0.14241967792E+02 -0.10251227447E+02 -0.37559946366E+02  0.41456855667E+02  0.00000000000E+00 0.  1.
         22    1    3    3    0    0  0.84623656575E+02 -0.97238651992E+02  0.49885983008E+02  0.13822130803E+03  0.00000000000E+00 0.  1.
</event>
<event>
 7    1  0.5889087E-006  0.7103042E+02  0.7818608E-02  0.1447529E+00
          2   -1    0    0  502    0  0.00000000000E+00  0.00000000000E+00  0.24258300565E+04  0.24258300565E+04  0.00000000000E+00 0. -1.
          1   -1    0    0  501    0 -0.00000000000E+00 -0.00000000000E+00 -0.25914634836E+02  0.25914634836E+02  0.00000000000E+00 0. -1.
         25    2    1    2    0    0  0.44147909609E+02  0.48201234410E+02  0.61188593690E+03  0.62793450121E+03  0.12499976444E+03 0.  0.
          2    1    1    2  501    0 -0.68598531833E+02 -0.23676760409E+02  0.56593992003E+02  0.92028405853E+02  0.00000000000E+00 0. -1.
          1    1    1    2  502    0  0.24450622223E+02 -0.24524474000E+02  0.17314354927E+04  0.17317817842E+04  0.00000000000E+00 0. -1.
         22    1    3    3    0    0 -0.32548174664E+02 -0.19095616240E+02  0.20541346486E+03  0.20885094632E+03  0.00000000000E+00 0. -1.
         22    1    3    3    0    0  0.76696084273E+02  0.67296850650E+02  0.40647247204E+03  0.41908355489E+03  0.00000000000E+00 0. -1.
</event>
<event>
 7    1  0.5889087E-006  0.3103382E+02  0.7818608E-02  0.1644840E+00
          2   -1    0    0  502    0  0.00000000000E+00  0.00000000000E+00  0.15766946961E+04  0.15766946961E+04  0.00000000000E+00 0. -1.
          1   -1    0    0  501    0 -0.00000000000E+00 -0.00000000000E+00 -0.35732751782E+03  0.35732751782E+03  0.00000000000E+00 0. -1.
         25    2    1    2    0    0  0.20041996977E+02 -0.39701254418E+02  0.37972544412E+02  0.13800526133E+03  0.12500266710E+03 0.  0.
          2    1    1    2  501    0 -0.20269910486E+02  0.86958429270E+01 -0.30675370057E+03  0.30754563852E+03  0.00000000000E+00 0. -1.
          1    1    1    2  502    0  0.22791350882E+00  0.31005411491E+02  0.14881483344E+04  0.14884713140E+04  0.00000000000E+00 0. -1.
         22    1    3    3    0    0  0.54886524468E+02 -0.61937410669E+02  0.47728899541E+02  0.95534398307E+02  0.00000000000E+00 0.  1.
         22    1    3    3    0    0 -0.34844527491E+02  0.22236156251E+02 -0.97563551289E+01  0.42470863028E+02  0.00000000000E+00 0.  1.
</event>
<event>
 7    1  0.5889087E-006  0.7200334E+02  0.7818608E-02  0.1427859E+00
          2   -1    0    0  502    0  0.00000000000E+00  0.00000000000E+00  0.19297369176E+04  0.19297369176E+04  0.00000000000E+00 0. -1.
          1   -1    0    0  501    0 -0.00000000000E+00 -0.00000000000E+00 -0.45757440828E+02  0.45757440828E+02  0.00000000000E+00 0. -1.
         25    2    1    2    0    0  0.34176904532E+02  0.49923281740E+02  0.76509500877E+03  0.77759610969E+03  0.12499976999E+03 0.  0.
          2    1    1    2  501    0 -0.19323048977E+01 -0.72896565147E+02 -0.52088084239E+01  0.73107966035E+02  0.00000000000E+00 0. -1.
          1    1    1    2  502    0 -0.32244599634E+02  0.22973283407E+02  0.11240932764E+04  0.11247902827E+04  0.00000000000E+00 0. -1.
         22    1    3    3    0    0  0.68737028165E+02  0.25106571794E+02  0.66248839456E+03  0.66651781065E+03  0.00000000000E+00 0.  1.
         22    1    3    3    0    0 -0.34560123632E+02  0.24816709947E+02  0.10260661422E+03  0.11107829905E+03  0.00000000000E+00 0.  1.
</event>
<event>
 7    1  0.5889087E-006  0.2103885E+03  0.7818608E-02  0.1301079E+00
          2   -1    0    0  502    0  0.00000000000E+00  0.00000000000E+00  0.90829118780E+03  0.90829118780E+03  0.00000000000E+00 0. -1.
          1   -1    0    0  501    0 -0.00000000000E+00 -0.00000000000E+00 -0.10477143554E+04  0.10477143554E+04  0.00000000000E+00 0. -1.
         25    2    1    2    0    0  0.47062204265E+02  0.17805175014E+03 -0.19046803849E+03  0.29295138119E+03  0.12500064503E+03 0.  0.
          2    1    1    2  501    0  0.35116679427E+02  0.17267680864E+02 -0.79241627949E+03  0.79338194710E+03  0.00000000000E+00 0. -1.
          1    1    1    2  502    0 -0.82178883693E+02 -0.19531943100E+03  0.84346115042E+03  0.86967221487E+03  0.00000000000E+00 0. -1.
         22    1    3    3    0    0 -0.19083578831E+01  0.17337662227E+03 -0.14872920617E+03  0.22843701922E+03  0.00000000000E+00 0.  1.
         22    1    3    3    0    0  0.48970562149E+02  0.46751278662E+01 -0.41738832315E+02  0.64514361972E+02  0.00000000000E+00 0.  1.
</event>
<event>
 7    1  0.5889087E-006  0.5681374E+02  0.7818608E-02  0.1423180E+00
          2   -1    0    0  502    0  0.00000000000E+00  0.00000000000E+00  0.85769123322E+03  0.85769123322E+03  0.00000000000E+00 0. -1.
          1   -1    0    0  501    0 -0.00000000000E+00 -0.00000000000E+00 -0.25164454903E+02  0.25164454903E+02  0.00000000000E+00 0. -1.
         25    2    1    2    0    0 -0.21987297810E+02  0.36719970164E+02  0.45015868940E+03  0.46914756172E+03  0.12499916621E+03 0.  0.
          2    1    1    2  501    0  0.61537750745E+02 -0.29590007256E+01  0.56105409102E+02  0.83327470756E+02  0.00000000000E+00 0. -1.
          1    1    1    2  502    0 -0.39550452935E+02 -0.33760969438E+02  0.32626267981E+03  0.33038065564E+03  0.00000000000E+00 0. -1.
         22    1    3    3    0    0  0.33097808502E+02  0.36750218420E+02  0.74183610501E+02  0.89158575294E+02  0.00000000000E+00 0. -1.
         22    1    3    3    0    0 -0.55085106312E+02 -0.30248255882E-01  0.37597507890E+03  0.37998898643E+03  0.00000000000E+00 0. -1.
</event>
<event>
 7    1  0.5889087E-006  0.5798507E+02  0.7818608E-02  0.1459440E+00
          2   -1    0    0  502    0  0.00000000000E+00  0.00000000000E+00  0.76543402825E+03  0.76543402825E+03  0.00000000000E+00 0. -1.
          1   -1    0    0  501    0 -0.00000000000E+00 -0.00000000000E+00 -0.21729979576E+04  0.21729979576E+04  0.00000000000E+00 0. -1.
         25    2    1    2    0    0  0.21347292885E+02  0.15507277108E+02  0.23446833272E+03  0.26701524429E+03  0.12500223629E+03 0.  0.
          2    1    1    2  501    0 -0.57986615053E+02 -0.25148828927E+01 -0.21555992635E+04  0.21563805223E+04  0.00000000000E+00 0. -1.
          1    1    1    2  502    0  0.36639322168E+02 -0.12992394215E+02  0.51356700141E+03  0.51503621928E+03  0.00000000000E+00 0. -1.
         22    1    3    3    0    0  0.47518484807E+02  0.49590513597E+02  0.74296019148E+02  0.10117867314E+03  0.00000000000E+00 0.  1.
         22    1    3    3    0    0 -0.26171191922E+02 -0.34083236489E+02  0.16017231357E+03  0.16583657115E+03  0.00000000000E+00 0.  1.
</event>
<event>
 7    1  0.5889087E-006  0.5921901E+02  0.7818608E-02  0.1419009E+00
          2   -1    0    0  502    0  0.00000000000E+00  0.00000000000E+00  0.83834995655E+02  0.83834995655E+02  0.00000000000E+00 0. -1.
          1   -1    0    0  501    0 -0.00000000000E+00 -0.00000000000E+00 -0.87455467227E+03  0.87455467227E+03  0.00000000000E+00 0. -1.
         25    2    1    2    0    0  0.67662808734E+02  0.82720179786E+02 -0.16970907657E+03  0.23631968412E+03  0.12499975441E+03 0.  0.
          2    1    1    2  501    0 -0.29914204627E+02 -0.41935617482E+02 -0.65493711374E+03  0.65695972374E+03  0.00000000000E+00 0. -1.
          1    1    1    2  502    0 -0.37748604107E+02 -0.40784562304E+02  0.33926513702E+02  0.65110260070E+02  0.00000000000E+00 0. -1.
         22    1    3    3    0    0 -0.32606182997E+02  0.34275965146E+02 -0.81593274574E+02  0.94315785593E+02  0.00000000000E+00 0. -1.
         22    1    3    3    0    0  0.10026899173E+03  0.48444214641E+02 -0.88115802000E+02  0.14200389853E+03  0.00000000000E+00 0. -1.
</event>
<event>
 7    1  0.5889087E-006  0.6671325E+02  0.7818608E-02  0.1390481E+00
          2   -1    0    0  502    0  0.00000000000E+00  0.00000000000E+00  0.17088676708E+03  0.17088676708E+03  0.00000000000E+00 0. -1.
          1   -1    0    0  501    0 -0.00000000000E+00 -0.00000000000E+00 -0.15685482998E+04  0.15685482998E+04  0.00000000000E+00 0. -1.
         25    2    1    2    0    0  0.40913742096E+00  0.43129578705E+02 -0.20024429214E+03  0.23996422805E+03  0.12499890501E+03 0.  0.
          2    1    1    2  501    0  0.56895659584E+02 -0.61298808589E+01 -0.13401001738E+04  0.13413214258E+04  0.00000000000E+00 0. -1.
          1    1    1    2  502    0 -0.57304797005E+02 -0.36999697846E+02  0.14268293323E+03  0.15814941301E+03  0.00000000000E+00 0. -1.
         22    1    3    3    0    0  0.28568131324E+02  0.45198511283E+02 -0.20453190548E+03  0.21140563831E+03  0.00000000000E+00 0. -1.
         22    1    3    3    0    0 -0.28158993903E+02 -0.20689325772E+01  0.42876133402E+01  0.28558589738E+02  0.00000000000E+00 0. -1.
</event>
<event>
 7    1  0.5889087E-006  0.3187617E+02  0.7818608E-02  0.1605986E+00
          2   -1    0    0  502    0  0.00000000000E+00  0.00000000000E+00  0.25661409490E+02  0.25661409490E+02  0.00000000000E+00 0. -1.
          1   -1    0    0  501    0 -0.00000000000E+00 -0.00000000000E+00 -0.42576947631E+03  0.42576947631E+03  0.00000000000E+00 0. -1.
         25    2    1    2    0    0 -0.35800673906E+02  0.42708340526E+02 -0.28054723839E+03  0.31215810897E+03  0.12502096393E+03 0.  0.
          2    1    1    2  501    0  0.19950929425E+02 -0.20939776515E+02 -0.10448122026E+03  0.10841051247E+03  0.00000000000E+00 0. -1.
          1    1    1    2  502    0  0.15849744481E+02 -0.21768564011E+02 -0.15079608162E+02  0.30862264362E+02  0.00000000000E+00 0. -1.
         22    1    3    3    0    0 -0.13938720823E+02 -0.30846157600E+02 -0.17417009898E+02  0.38067382503E+02  0.00000000000E+00 0. -1.
         22    1    3    3    0    0 -0.21861953083E+02  0.73554498126E+02 -0.26313022849E+03  0.27409072646E+03  0.00000000000E+00 0. -1.
</event>
<event>
 7    1  0.5889087E-006  0.5567716E+02  0.7818608E-02  0.1485560E+00
          2   -1    0    0  502    0  0.00000000000E+00  0.00000000000E+00  0.30225498294E+02  0.30225498294E+02  0.00000000000E+00 0. -1.
          1   -1    0    0  501    0 -0.00000000000E+00 -0.00000000000E+00 -0.19149854738E+04  0.19149854738E+04  0.00000000000E+00 0. -1.
         25    2    1    2    0    0  0.11330029654E+02 -0.31243785900E+02 -0.31144472381E+03  0.33723481744E+03  0.12499984951E+03 0.  0.
          2    1    1    2  501    0 -0.44723567656E+02  0.34957831741E+02 -0.15733530177E+04  0.15743766912E+04  0.00000000000E+00 0. -1.
          1    1    1    2  502    0  0.33393538001E+02 -0.37140458407E+01  0.37766018035E-01  0.33599463434E+02  0.00000000000E+00 0. -1.
         22    1    3    3    0    0 -0.17727540352E+02  0.10303653155E+02  0.11677685984E+01  0.20537639562E+02  0.00000000000E+00 0.  1.
         22    1    3    3    0    0  0.29057570007E+02 -0.41547439055E+02 -0.31261249241E+03  0.31669717788E+03  0.00000000000E+00 0.  1.
</event>
<event>
 7    1  0.5889087E-006  0.8857342E+02  0.7818608E-02  0.1373315E+00
          2   -1    0    0  502    0  0.00000000000E+00  0.00000000000E+00  0.61721174524E+03  0.61721174524E+03  0.00000000000E+00 0. -1.
          1   -1    0    0  501    0 -0.00000000000E+00 -0.00000000000E+00 -0.69261062949E+03  0.69261062949E+03  0.00000000000E+00 0. -1.
         25    2    1    2    0    0  0.73775714495E+02 -0.18969180215E+01  0.78418344510E+02  0.16498601948E+03  0.12499798207E+03 0.  0.
          2    1    1    2  501    0  0.13828356462E+01 -0.49539676596E+02 -0.64418211321E+03  0.64608566520E+03  0.00000000000E+00 0. -1.
          1    1    1    2  502    0 -0.75158550141E+02  0.51436594618E+02  0.49036488445E+03  0.49875069005E+03  0.00000000000E+00 0. -1.
         22    1    3    3    0    0  0.74043246204E+02  0.31114610358E+02  0.97919180287E+02  0.12664393848E+03  0.00000000000E+00 0.  1.
         22    1    3    3    0    0 -0.26753170914E+00 -0.33011528380E+02 -0.19500835777E+02  0.38342080997E+02  0.00000000000E+00 0.  1.
</event>
<event>
 7    1  0.5889087E-006  0.2093667E+03  0.7818608E-02  0.1179612E+00
          2   -1    0    0  502    0  0.00000000000E+00  0.00000000000E+00  0.32830867768E+04  0.32830867768E+04  0.00000000000E+00 0. -1.
          1   -1    0    0  501    0 -0.00000000000E+00 -0.00000000000E+00 -0.87458879386E+03  0.87458879386E+03  0.00000000000E+00 0. -1.
         25    2    1    2    0    0  0.16449666993E+03  0.20438852604E+03  0.88620593859E+03  0.93264100170E+03  0.12499779384E+03 0.  0.
          2    1    1    2  501    0 -0.13531110432E+03 -0.15462775029E+01 -0.84153276154E+03  0.85234316720E+03  0.00000000000E+00 0. -1.
          1    1    1    2  502    0 -0.29185565613E+02 -0.20284224854E+03  0.23638248059E+04  0.23726914018E+04  0.00000000000E+00 0. -1.
         22    1    3    3    0    0  0.99939602811E+02  0.78989011927E+02  0.24535407799E+03  0.27645218719E+03  0.00000000000E+00 0.  1.
         22    1    3    3    0    0  0.64557067122E+02  0.12539951411E+03  0.64085186060E+03  0.65618881451E+03  0.00000000000E+00 0.  1.
</event>
<event>
 7    1  0.5889087E-006  0.1813940E+03  0.7818608E-02  0.1368721E+00
          2   -1    0    0  502    0  0.00000000000E+00  0.00000000000E+00  0.19107949198E+04  0.19107949198E+04  0.00000000000E+00 0. -1.
          1   -1    0    0  501    0 -0.00000000000E+00 -0.00000000000E+00 -0.74840145299E+02  0.74840145299E+02  0.00000000000E+00 0. -1.
         25    2    1    2    0    0  0.87423088281E+02 -0.15856265894E+03  0.16222593989E+04  0.16371121463E+04  0.12500283657E+03 0.  0.
          2    1    1    2  501    0 -0.21333251286E+02 -0.13293199043E+02 -0.32503002257E+02  0.41088464403E+02  0.00000000000E+00 0. -1.
          1    1    1    2  502    0 -0.66089836995E+02  0.17185585798E+03  0.24619837787E+03  0.30743445438E+03  0.00000000000E+00 0. -1.
         22    1    3    3    0    0  0.71027015014E+02 -0.88482844382E+02  0.50737954009E+03  0.51991157740E+03  0.00000000000E+00 0. -1.
         22    1    3    3    0    0  0.16396073266E+02 -0.70079814556E+02  0.11148798588E+04  0.11172005689E+04  0.00000000000E+00 0. -1.
</event>
<event>
 7    1  0.5889087E-006  0.1151779E+03  0.7818608E-02  0.1321272E+00
          2   -1    0    0  502    0  0.00000000000E+00  0.00000000000E+00  0.26106113485E+03  0.26106113485E+03  0.00000000000E+00 0. -1.
          1   -1    0    0  501    0 -0.00000000000E+00 -0.00000000000E+00 -0.19611340693E+04  0.19611340693E+04  0.00000000000E+00 0. -1.
         25    2    1    2    0    0 -0.61645037902E+02 -0.13007148446E+03 -0.15670221941E+03  0.24677795924E+03  0.12500029532E+03 0.  0.
          2    1    1    2  501    0  0.57248850594E+02  0.16330015653E+02 -0.17438564309E+04  0.17448723025E+04  0.00000000000E+00 0. -1.
          1    1    1    2  502    0  0.43961873078E+01  0.11374146880E+03  0.20048571591E+03  0.23054494241E+03  0.00000000000E+00 0. -1.
         22    1    3    3    0    0 -0.35687976575E+02 -0.13846303275E+03 -0.76717160563E+02  0.16226880734E+03  0.00000000000E+00 0.  1.
         22    1    3    3    0    0 -0.25957061327E+02  0.83915482938E+01 -0.79985058850E+02  0.84509151900E+02  0.00000000000E+00 0.  1.
</event>
<event>
 7    1  0.5889087E-006  0.5306257E+02  0.7818608E-02  0.1457945E+00
          2   -1    0    0  502    0  0.00000000000E+00  0.00000000000E+00  0.12900725564E+04  0.12900725564E+04  0.00000000000E+00 0. -1.
          1   -1    0    0  501    0 -0.00000000000E+00 -0.00000000000E+00 -0.54247878024E+02  0.54247878024E+02  0.00000000000E+00 0. -1.
         25    2    1    2    0    0  0.12259597098E+02  0.32120993146E+01  0.45475800134E+03  0.47179410684E+03  0.12499689664E+03 0.  0.
          2    1    1    2  501    0 -0.44240757617E+02 -0.31874698581E+02 -0.28701638023E+02  0.61620005431E+02  0.00000000000E+00 0. -1.
          1    1    1    2  502    0  0.31981160519E+02  0.28662599267E+02  0.80976831509E+03  0.81090632218E+03  0.00000000000E+00 0. -1.
         22    1    3    3    0    0 -0.13340012612E+02  0.47520238680E+01  0.44360011671E+03  0.44382609343E+03  0.00000000000E+00 0.  1.
         22    1    3    3    0    0  0.25599609710E+02 -0.15399245534E+01  0.11157884633E+02  0.27968013416E+02  0.00000000000E+00 0.  1.
</event>
<event>
 7    1  0.5889087E-006  0.1588693E+03  0.7818608E-02  0.1281950E+00
          2   -1    0    0  502    0  0.00000000000E+00  0.00000000000E+00  0.19376320484E+04  0.19376320484E+04  0.00000000000E+00 0. -1.
          1   -1    0    0  501    0 -0.00000000000E+00 -0.00000000000E+00 -0.50210365915E+03  0.50210365915E+03  0.00000000000E+00 0. -1.
         25    2    1    2    0    0 -0.12113405844E+03 -0.16232286499E+03  0.46487287422E+02  0.24248968442E+03  0.12497202304E+03 0.  0.
          2    1    1    2  501    0  0.11783651356E+03  0.10044693114E+03 -0.38871057606E+03  0.41841479640E+03  0.00000000000E+00 0. -1.
          1    1    1    2  502    0  0.32975448751E+01  0.61875933858E+02  0.17777516779E+04  0.17788312267E+04  0.00000000000E+00 0. -1.
         22    1    3    3    0    0 -0.26347605037E+02 -0.11509636767E+02 -0.36098462597E+02  0.46149399038E+02  0.00000000000E+00 0. -1.
         22    1    3    3    0    0 -0.94786453399E+02 -0.15081322823E+03  0.82585750019E+02  0.19634028538E+03  0.00000000000E+00 0. -1.
</event>
<event>
 7    1  0.5889087E-006  0.4055306E+02  0.7818608E-02  0.1560618E+00
          2   -1    0    0  502    0  0.00000000000E+00  0.00000000000E+00  0.19696858327E+04  0.19696858327E+04  0.00000000000E+00 0. -1.
          1   -1    0    0  501    0 -0.00000000000E+00 -0.00000000000E+00 -0.10032610048E+04  0.10032610048E+04  0.00000000000E+00 0. -1.
         25    2    1    2    0    0 -0.50126791495E+01  0.20731855445E+02 -0.58585165162E+03  0.59941673339E+03  0.12499330293E+03 0.  0.
          2    1    1    2  501    0  0.30480332147E+02 -0.32311540104E+02 -0.40932550918E+03  0.41172862268E+03  0.00000000000E+00 0. -1.
          1    1    1    2  502    0 -0.25467652997E+02  0.11579684658E+02  0.19616019887E+04  0.19618014814E+04  0.00000000000E+00 0. -1.
         22    1    3    3    0    0  0.27852384179E+02  0.65433237584E+02 -0.31215731923E+03  0.32015536203E+03  0.00000000000E+00 0. -1.
         22    1    3    3    0    0 -0.32865063328E+02 -0.44701382138E+02 -0.27369433239E+03  0.27926137136E+03  0.00000000000E+00 0. -1.
</event>
<event>
 7    1  0.5889087E-006  0.1781776E+03  0.7818608E-02  0.1235099E+00
          2   -1    0    0  502    0  0.00000000000E+00  0.00000000000E+00  0.57830944247E+03  0.57830944247E+03  0.00000000000E+00 0. -1.
          1   -1    0    0  501    0 -0.00000000000E+00 -0.00000000000E+00 -0.54174018124E+03  0.54174018124E+03  0.00000000000E+00 0. -1.
         25    2    1    2    0    0 -0.12554347461E+03  0.97902647099E+02  0.21629026885E+03  0.29623128677E+03  0.12500161014E+03 0.  0.
          2    1    1    2  501    0  0.70625434660E+02 -0.16623572412E+03 -0.47902244624E+03  0.51194215688E+03  0.00000000000E+00 0. -1.
          1    1    1    2  502    0  0.54918039947E+02  0.68333077017E+02  0.29930143862E+03  0.31187618006E+03  0.00000000000E+00 0. -1.
         22    1    3    3    0    0 -0.34981820991E+02  0.99600991466E+02  0.15238699283E+03  0.18538036812E+03  0.00000000000E+00 0. -1.
         22    1    3    3    0    0 -0.90561653616E+02 -0.16983443676E+01  0.63903276022E+02  0.11085091865E+03  0.00000000000E+00 0. -1.
</event>
<event>
 7    1  0.5889087E-006  0.6193024E+02  0.7818608E-02  0.1527763E+00
          2   -1    0    0  502    0  0.00000000000E+00  0.00000000000E+00  0.97356118527E+03  0.97356118527E+03  0.00000000000E+00 0. -1.
          1   -1    0    0  501    0 -0.00000000000E+00 -0.00000000000E+00 -0.24151536172E+03  0.24151536172E+03  0.00000000000E+00 0. -1.
         25    2    1    2    0    0  0.54146327238E+02  0.78081865180E+01  0.43265169849E+01  0.13651595663E+03  0.12500038054E+03 0.  0.
          2    1    1    2  501    0 -0.61258876054E+02  0.13707947097E+02 -0.16965714726E+03  0.18089805230E+03  0.00000000000E+00 0. -1.
          1    1    1    2  502    0  0.71125488155E+01 -0.21516133615E+02  0.89737645383E+03  0.89766253806E+03  0.00000000000E+00 0. -1.
         22    1    3    3    0    0  0.31321477398E+02  0.79547685321E+01 -0.60060697552E+02  0.68202644225E+02  0.00000000000E+00 0. -1.
         22    1    3    3    0    0  0.22824849840E+02 -0.14658201405E+00  0.64387214537E+02  0.68313312409E+02  0.00000000000E+00 0. -1.
</event>
<event>
 7    1  0.5889087E-006  0.6077597E+02  0.7818608E-02  0.1490978E+00
          2   -1    0    0  502    0  0.00000000000E+00  0.00000000000E+00  0.20433009286E+04  0.20433009286E+04  0.00000000000E+00 0. -1.
          1   -1    0    0  501    0 -0.00000000000E+00 -0.00000000000E+00 -0.15629506607E+03  0.15629506607E+03  0.00000000000E+00 0. -1.
         25    2    1    2    0    0 -0.42778006957E+02 -0.48983263127E+02 -0.89814241654E+02  0.16709763228E+03  0.12500281103E+03 0.  0.
          2    1    1    2  501    0  0.27914869257E+02 -0.99576306172E+01 -0.19355052295E+02  0.35397914945E+02  0.00000000000E+00 0. -1.
          1    1    1    2  502    0  0.14863137700E+02  0.58940893744E+02  0.19961751565E+04  0.19971004475E+04  0.00000000000E+00 0. -1.
         22    1    3    3    0    0  0.19172224315E+02 -0.20761743491E+02 -0.94719670300E+02  0.98845536671E+02  0.00000000000E+00 0.  1.
         22    1    3    3    0    0 -0.61950231271E+02 -0.28221519636E+02  0.49054286466E+01  0.68252095611E+02  0.00000000000E+00 0.  1.
</event>
<event>
 7    1  0.5889087E-006  0.2112319E+03  0.7818608E-02  0.1328372E+00
          2   -1    0    0  502    0  0.00000000000E+00  0.00000000000E+00  0.31922124839E+03  0.31922124839E+03  0.00000000000E+00 0. -1.
          1   -1    0    0  501    0 -0.00000000000E+00 -0.00000000000E+00 -0.13666367339E+04  0.13666367339E+04  0.00000000000E+00 0. -1.
         25    2    1    2    0    0  0.14705581995E+03  0.12717855278E+03  0.16566241939E+02  0.23173038903E+03  0.12499893743E+03 0.  0.
          2    1    1    2  501    0  0.29984357646E+02  0.54775322559E+01 -0.11960767769E+04  0.11964650941E+04  0.00000000000E+00 0. -1.
          1    1    1    2  502    0 -0.17704017760E+03 -0.13265608503E+03  0.13209504949E+03  0.25766249917E+03  0.00000000000E+00 0. -1.
         22    1    3    3    0    0  0.11641389317E+03  0.14782759235E+03 -0.63163186677E+01  0.18826865768E+03  0.00000000000E+00 0. -1.
         22    1    3    3    0    0  0.30641926780E+02 -0.20649039569E+02  0.22882560607E+02  0.43461731349E+02  0.00000000000E+00 0. -1.
</event>
<event>
 7    1  0.5889087E-006  0.4368524E+02  0.7818608E-02  0.1515041E+00
          2   -1    0    0  502    0  0.00000000000E+00  0.00000000000E+00  0.13960596465E+03  0.13960596465E+03  0.00000000000E+00 0. -1.
          1   -1    0    0  501    0 -0.00000000000E+00 -0.00000000000E+00 -0.15954558838E+03  0.15954558838E+03  0.00000000000E+00 0. -1.
         25    2    1    2    0    0 -0.29405048467E+02  0.29640667208E+02 -0.42002379640E+02  0.13831865768E+03  0.12499850055E+03 0.  0.
          2    1    1    2  501    0  0.45927310860E+02  0.11827034848E+01 -0.57690374985E+02  0.73748871423E+02  0.00000000000E+00 0. -1.
          1    1    1    2  502    0 -0.16522262393E+02 -0.30823370693E+02  0.79753130897E+02  0.87084023927E+02  0.00000000000E+00 0. -1.
         22    1    3    3    0    0  0.20736939577E+02  0.66162980036E+02 -0.16669008410E+02  0.71312105786E+02  0.00000000000E+00 0. -1.
         22    1    3    3    0    0 -0.50141988044E+02 -0.36522312828E+02 -0.25333371230E+02  0.67006551898E+02  0.00000000000E+00 0. -1.
</event>
<event>
 7    1  0.5889087E-006  0.1546954E+03  0.7818608E-02  0.1320452E+00
          2   -1    0    0  502    0  0.00000000000E+00  0.00000000000E+00  0.18950892021E+04  0.18950892021E+04  0.00000000000E+00 0. -1.
          1   -1    0    0  501    0 -0.00000000000E+00 -0.00000000000E+00 -0.12557614533E+04  0.12557614533E+04  0.00000000000E+00 0. -1.
         25    2    1    2    0    0  0.77173945150E+02  0.16894612040E+03 -0.83141379379E+02  0.23882219952E+03  0.12499977844E+03 0.  0.
          2    1    1    2  501    0  0.11770658167E+02 -0.43070767213E+02 -0.10910541263E+04  0.10919673741E+04  0.00000000000E+00 0. -1.
          1    1    1    2  502    0 -0.88944603317E+02 -0.12587535319E+03  0.18135232545E+04  0.18200610819E+04  0.00000000000E+00 0. -1.
         22    1    3    3    0    0  0.59629519615E+02  0.13772597407E+03 -0.19605205552E+01  0.15009319499E+03  0.00000000000E+00 0. -1.
         22    1    3    3    0    0  0.17544425535E+02  0.31220146329E+02 -0.81180858824E+02  0.88729004522E+02  0.00000000000E+00 0. -1.
</event>
<event>
 7    1  0.5889087E-006  0.8448865E+02  0.7818608E-02  0.1373146E+00
          2   -1    0    0  502    0  0.00000000000E+00  0.00000000000E+00  0.13040940324E+04  0.13040940324E+04  0.00000000000E+00 0. -1.
          1   -1    0    0  501    0 -0.00000000000E+00 -0.00000000000E+00 -0.30591253375E+03  0.30591253375E+03  0.00000000000E+00 0. -1.
         25    2    1    2    0    0 -0.11217321101E+03 -0.61130538828E+02 -0.42287970958E+02  0.18366498493E+03  0.12499912862E+03 0.  0.
          2    1    1    2  501    0  0.61115771277E+02  0.51131381921E+02 -0.18413254710E+03  0.20063486890E+03  0.00000000000E+00 0. -1.
          1    1    1    2  502    0  0.51057439738E+02  0.99991569069E+01  0.12246020167E+04  0.12257067123E+04  0.00000000000E+00 0. -1.
         22    1    3    3    0    0 -0.10673648917E+03 -0.93302770829E+02 -0.49660573824E+02  0.15021403981E+03  0.00000000000E+00 0. -1.
         22    1    3    3    0    0 -0.54367218493E+01  0.32172232001E+02  0.73726028658E+01  0.33450945120E+02  0.00000000000E+00 0. -1.
</event>
<event>
 7    1  0.5889087E-006  0.6134717E+02  0.7818608E-02  0.1410866E+00
          2   -1    0    0  502    0  0.00000000000E+00  0.00000000000E+00  0.26173145494E+04  0.26173145494E+04  0.00000000000E+00 0. -1.
          1   -1    0    0  501    0 -0.00000000000E+00 -0.00000000000E+00 -0.43096923763E+02  0.43096923763E+02  0.00000000000E+00 0. -1.
         25    2    1    2    0    0 -0.67197743958E+02 -0.73774609930E+02  0.23310744909E+03  0.28270567585E+03  0.12500074590E+03 0.  0.
          2    1    1    2  501    0  0.18602005881E+02  0.52714630248E+02  0.25417928586E+02  0.61407963316E+02  0.00000000000E+00 0. -1.
          1    1    1    2  502    0  0.48595738077E+02  0.21059979681E+02  0.23156922479E+04  0.23162978340E+04  0.00000000000E+00 0. -1.
         22    1    3    3    0    0  0.30937494520E+02 -0.17253556352E+01  0.18831183093E+02  0.36259052331E+02  0.00000000000E+00 0.  1.
         22    1    3    3    0    0 -0.98135238478E+02 -0.72049254294E+02  0.21427626600E+03  0.24644662352E+03  0.00000000000E+00 0.  1.
</event>
<event>
 7    1  0.5889087E-006  0.1131598E+03  0.7818608E-02  0.1286936E+00
          2   -1    0    0  502    0  0.00000000000E+00  0.00000000000E+00  0.39014765257E+03  0.39014765257E+03  0.00000000000E+00 0. -1.
          1   -1    0    0  501    0 -0.00000000000E+00 -0.00000000000E+00 -0.29388871939E+04  0.29388871939E+04  0.00000000000E+00 0. -1.
         25    2    1    2    0    0 -0.17050552399E+03 -0.69804753391E+02 -0.17749932366E+03  0.28473902650E+03  0.12500186399E+03 0.  0.
          2    1    1    2  501    0  0.87515956094E+02  0.69539530514E+02 -0.27014781176E+04  0.27037897124E+04  0.00000000000E+00 0. -1.
          1    1    1    2  502    0  0.82989567895E+02  0.26522287688E+00  0.33023789996E+03  0.34050610757E+03  0.00000000000E+00 0. -1.
         22    1    3    3    0    0 -0.21838045945E+02  0.58945412791E+01 -0.96814667173E+02  0.99421957572E+02  0.00000000000E+00 0.  1.
         22    1    3    3    0    0 -0.14866747804E+03 -0.75699294670E+02 -0.80684656491E+02  0.18531706892E+03  0.00000000000E+00 0.  1.
</event>
<event>
 7    1  0.5889087E-006  0.5573241E+02  0.7818608E-02  0.1488902E+00
          2   -1    0    0  502    0  0.00000000000E+00  0.00000000000E+00  0.13744323008E+04  0.13744323008E+04  0.00000000000E+00 0. -1.
          1   -1    0    0  501    0 -0.00000000000E+00 -0.00000000000E+00 -0.25159898298E+03  0.25159898298E+03  0.00000000000E+00 0. -1.
         25    2    1    2    0    0  0.40588306117E+02 -0.17467592212E+02  0.27424718151E+02  0.13539045889E+03  0.12500373523E+03 0.  0.
          2    1    1    2  501    0 -0.29599291326E+02  0.48362107259E+02 -0.19333602523E+03  0.20147910591E+03  0.00000000000E+00 0. -1.
          1    1    1    2  502    0 -0.10989014791E+02 -0.30894515046E+02  0.12887446249E+04  0.12891617190E+04  0.00000000000E+00 0. -1.
         22    1    3    3    0    0  0.24299726302E+02 -0.71314987053E+02  0.23823951603E+02  0.79018255781E+02  0.00000000000E+00 0. -1.
         22    1    3    3    0    0  0.16288579815E+02  0.53847394841E+02  0.36007665480E+01  0.56372203108E+02  0.00000000000E+00 0. -1.
</event>
<event>
 7    1  0.5889087E-006  0.4631644E+02  0.7818608E-02  0.1579173E+00
          2   -1    0    0  502    0  0.00000000000E+00  0.00000000000E+00  0.12526629416E+04  0.12526629416E+04  0.00000000000E+00 0. -1.
          1   -1    0    0  501    0 -0.00000000000E+00 -0.00000000000E+00 -0.30942707529E+03  0.30942707529E+03  0.00000000000E+00 0. -1.
         25    2    1    2    0    0  0.18279379762E+02 -0.20974009204E+02  0.12015457135E+03  0.17559749713E+03  0.12499326060E+03 0.  0.
          2    1    1    2  501    0 -0.18404025139E+02  0.42784069616E+02 -0.27967199765E+03  0.28352356343E+03  0.00000000000E+00 0. -1.
          1    1    1    2  502    0  0.12464537711E+00 -0.21810060412E+02  0.11027532926E+04  0.11029689563E+04  0.00000000000E+00 0. -1.
         22    1    3    3    0    0  0.31166862588E+01 -0.73064392812E+02  0.60022942411E+02  0.94609052663E+02  0.00000000000E+00 0. -1.
         22    1    3    3    0    0  0.15162693503E+02  0.52090383608E+02  0.60131628941E+02  0.80988444470E+02  0.00000000000E+00 0. -1.
</event>
<event>
 7    1  0.5889087E-006  0.1312488E+03  0.7818608E-02  0.1317019E+00
          2   -1    0    0  502    0  0.00000000000E+00  0.00000000000E+00  0.99219893585E+03  0.99219893585E+03  0.00000000000E+00 0. -1.
          1   -1    0    0  501    0 -0.00000000000E+00 -0.00000000000E+00 -0.25796424069E+04  0.25796424069E+04  0.00000000000E+00 0. -1.
         25    2    1    2    0    0  0.24406309656E+02 -0.79015744603E+02  0.10517979949E+03  0.18310603378E+03  0.12500349411E+03 0.  0.
          2    1    1    2  501    0 -0.10377198529E+02  0.13143984611E+03 -0.25380981784E+04  0.25415205061E+04  0.00000000000E+00 0. -1.
          1    1    1    2  502    0 -0.14029111127E+02 -0.52424101511E+02  0.84547490789E+03  0.84721480290E+03  0.00000000000E+00 0. -1.
         22    1    3    3    0    0  0.27722990460E+02 -0.98649183245E+02  0.12035696850E+03  0.15806968533E+03  0.00000000000E+00 0.  1.
         22    1    3    3    0    0 -0.33166808041E+01  0.19633438641E+02 -0.15177169007E+02  0.25036348446E+02  0.00000000000E+00 0.  1.
</event>
<event>
 7    1  0.5889087E-006  0.6870540E+03  0.7818608E-02  0.1172829E+00
          2   -1    0    0  502    0  0.00000000000E+00  0.00000000000E+00  0.68554167668E+03  0.68554167668E+03  0.00000000000E+00 0. -1.
          1   -1    0    0  501    0 -0.00000000000E+00 -0.00000000000E+00 -0.11621206798E+04  0.11621206798E+04  0.00000000000E+00 0. -1.
         25    2    1    2    0    0 -0.61290026041E+03 -0.32160360799E+03 -0.53851793255E+03  0.88583414382E+03  0.12499982717E+03 0.  0.
          2    1    1    2  501    0 -0.13454339740E+02  0.42443557731E+02 -0.21699884810E+03  0.22151969422E+03  0.00000000000E+00 0. -1.
          1    1    1    2  502    0  0.62635460015E+03  0.27916005026E+03  0.27893777751E+03  0.74030851847E+03  0.00000000000E+00 0. -1.
         22    1    3    3    0    0 -0.36090734251E+03 -0.21879570906E+03 -0.39544096186E+03  0.57835908094E+03  0.00000000000E+00 0.  1.
         22    1    3    3    0    0 -0.25199291790E+03 -0.10280789893E+03 -0.14307697069E+03  0.30747506288E+03  0.00000000000E+00 0.  1.
</event>
<event>
 7    1  0.5889087E-006  0.1002576E+03  0.7818608E-02  0.1466657E+00
          2   -1    0    0  502    0  0.00000000000E+00  0.00000000000E+00  0.13937745630E+04  0.13937745630E+04  0.00000000000E+00 0. -1.
          1   -1    0    0  501    0 -0.00000000000E+00 -0.00000000000E+00 -0.34552521695E+02  0.34552521695E+02  0.00000000000E+00 0. -1.
         25    2    1    2    0    0 -0.69466608871E+02 -0.67313288593E+02  0.11933093056E+04  0.12037315321E+04  0.12500325558E+03 0.  0.
          2    1    1    2  501    0 -0.21326109075E+02  0.77035776376E+00 -0.30626902029E+01  0.21558674603E+02  0.00000000000E+00 0. -1.
          1    1    1    2  502    0  0.90792717946E+02  0.66542930829E+02  0.16897542591E+03  0.20303687802E+03  0.00000000000E+00 0. -1.
         22    1    3    3    0    0  0.28582025861E+02 -0.32717709963E+02  0.18299179136E+03  0.18807811264E+03  0.00000000000E+00 0. -1.
         22    1    3    3    0    0 -0.98048634732E+02 -0.34595578630E+02  0.10103175142E+04  0.10156534194E+04  0.00000000000E+00 0. -1.
</event>
<event>
 7    1  0.5889087E-006  0.4057029E+03  0.7818608E-02  0.1189857E+00
          2   -1    0    0  502    0  0.00000000000E+00  0.00000000000E+00  0.19140829758E+03  0.19140829758E+03  0.00000000000E+00 0. -1.
          1   -1    0    0  501    0 -0.00000000000E+00 -0.00000000000E+00 -0.21845376710E+04  0.21845376710E+04  0.00000000000E+00 0. -1.
         25    2    1    2    0    0 -0.34166241395E+03 -0.18732203707E+03 -0.77788797627E+03  0.87895248439E+03  0.12500006207E+03 0.  0.
          2    1    1    2  501    0  0.39023761330E+03  0.14831891148E+03 -0.13148358958E+04  0.13795206875E+04  0.00000000000E+00 0. -1.
          1    1    1    2  502    0 -0.48575199348E+02  0.39003125594E+02  0.99594498658E+02  0.11747279668E+03  0.00000000000E+00 0. -1.
         22    1    3    3    0    0 -0.72956063695E+00 -0.35707923752E+02 -0.79006618649E+02  0.86704289788E+02  0.00000000000E+00 0. -1.
         22    1    3    3    0    0 -0.34093285331E+03 -0.15161411332E+03 -0.69888135762E+03  0.79224819460E+03  0.00000000000E+00 0. -1.
</event>
<event>
 7    1  0.5889087E-006  0.3072288E+03  0.7818608E-02  0.1223763E+00
          2   -1    0    0  502    0  0.00000000000E+00  0.00000000000E+00  0.61069448689E+03  0.61069448689E+03  0.00000000000E+00 0. -1.
          1   -1    0    0  501    0 -0.00000000000E+00 -0.00000000000E+00 -0.60035416217E+03  0.60035416217E+03  0.00000000000E+00 0. -1.
         25    2    1    2    0    0  0.17630487681E+03 -0.30363014815E+03  0.24607501778E+02  0.37350464349E+03  0.12500205242E+03 0.  0.
          2    1    1    2  501    0 -0.27626976429E+02  0.50041998808E+02 -0.37095530337E+03  0.37533356973E+03  0.00000000000E+00 0. -1.
          1    1    1    2  502    0 -0.14867790038E+03  0.25358814934E+03  0.35668812631E+03  0.46221043584E+03  0.00000000000E+00 0. -1.
         22    1    3    3    0    0  0.67662706879E+02 -0.26697159423E+02  0.22066955492E+02  0.76012701229E+02  0.00000000000E+00 0. -1.
         22    1    3    3    0    0  0.10864216993E+03 -0.27693298873E+03  0.25405462861E+01  0.29749194226E+03  0.00000000000E+00 0. -1.
</event>
<event>
 7    1  0.5889087E-006  0.1211929E+03  0.7818608E-02  0.1365575E+00
          2   -1    0    0  502    0  0.00000000000E+00  0.00000000000E+00  0.10949294092E+04  0.10949294092E+04  0.00000000000E+00 0. -1.
          1   -1    0    0  501    0 -0.00000000000E+00 -0.00000000000E+00 -0.57442993166E+02  0.57442993166E+02  0.00000000000E+00 0. -1.
         25    2    1    2    0    0  0.70612983505E+02  0.13742741623E+03  0.27516576745E+03  0.33943600046E+03  0.12501244203E+03 0.  0.
          2    1    1    2  501    0 -0.11529674181E+02 -0.36857608290E+02 -0.30403674670E+01  0.38738359670E+02  0.00000000000E+00 0. -1.
          1    1    1    2  502    0 -0.59083309323E+02 -0.10056980794E+03  0.76536101609E+03  0.77419804227E+03  0.00000000000E+00 0. -1.
         22    1    3    3    0    0  0.10253558919E+03  0.92868094393E+02  0.23005475364E+03  0.26844593437E+03  0.00000000000E+00 0. -1.
         22    1    3    3    0    0 -0.31922605690E+02  0.44559321839E+02  0.45111013809E+02  0.70990066091E+02  0.00000000000E+00 0. -1.
</event>
<event>
 7    1  0.5889087E-006  0.1347753E+03  0.7818608E-02  0.1418315E+00
          2   -1    0    0  502    0  0.00000000000E+00  0.00000000000E+00  0.21499590184E+03  0.21499590184E+03  0.00000000000E+00 0. -1.
          1   -1    0    0  501    0 -0.00000000000E+00 -0.00000000000E+00 -0.12641455143E+04  0.12641455143E+04  0.00000000000E+00 0. -1.
         25    2    1    2    0    0  0.11537860850E+03  0.58279096711E+02 -0.10027288176E+03  0.20588511278E+03  0.12500140972E+03 0.  0.
          2    1    1    2  501    0 -0.12922091526E+03 -0.40218476754E+02 -0.11061233516E+04  0.11143717691E+04  0.00000000000E+00 0. -1.
          1    1    1    2  502    0  0.13842306758E+02 -0.18060619957E+02  0.15724662089E+03  0.15888453427E+03  0.00000000000E+00 0. -1.
         22    1    3    3    0    0  0.12202244212E+03  0.56626272631E+02 -0.33324579532E+02  0.13858765722E+03  0.00000000000E+00 0.  1.
         22    1    3    3    0    0 -0.66438336184E+01  0.16528240801E+01 -0.66948302233E+02  0.67297455557E+02  0.00000000000E+00 0.  1.
</event>
<event>
 7    1  0.5889087E-006  0.4845788E+02  0.7818608E-02  0.1455700E+00
          2   -1    0    0  502    0  0.00000000000E+00  0.00000000000E+00  0.15712447019E+03  0.15712447019E+03  0.00000000000E+00 0. -1.
          1   -1    0    0  501    0 -0.00000000000E+00 -0.00000000000E+00 -0.24817793500E+03  0.24817793500E+03  0.00000000000E+00 0. -1.
         25    2    1    2    0    0  0.26477346154E+02  0.12107696343E+02 -0.28170636720E+01  0.12837662438E+03  0.12499990267E+03 0.  0.
          2    1    1    2  501    0  0.19249788583E+01 -0.50558356193E+02 -0.17265314509E+03  0.17991376110E+03  0.00000000000E+00 0. -1.
          1    1    1    2  502    0 -0.28402325013E+02  0.38450659849E+02  0.84416743947E+02  0.97012019706E+02  0.00000000000E+00 0. -1.
         22    1    3    3    0    0 -0.44025476108E+02 -0.22740429105E+02  0.19219651956E+01  0.49588946477E+02  0.00000000000E+00 0.  1.
         22    1    3    3    0    0  0.70502822263E+02  0.34848125448E+02 -0.47390288677E+01  0.78787677900E+02  0.00000000000E+00 0.  1.
</event>
<event>
 7    1  0.5889087E-006  0.1578041E+03  0.7818608E-02  0.1291028E+00
          2   -1    0    0  502    0  0.00000000000E+00  0.00000000000E+00  0.30948986505E+03  0.30948986505E+03  0.00000000000E+00 0. -1.
          1   -1    0    0  501    0 -0.00000000000E+00 -0.00000000000E+00 -0.37917938041E+03  0.37917938041E+03  0.00000000000E+00 0. -1.
         25    2    1    2    0    0  0.27154456649E+02  0.14551402606E+03 -0.18446826565E+03  0.26751761278E+03  0.12500174327E+03 0.  0.
          2    1    1    2  501    0  0.56505222116E+02 -0.93303584030E+01 -0.12240647323E+03  0.13514155691E+03  0.00000000000E+00 0. -1.
          1    1    1    2  502    0 -0.83659678765E+02 -0.13618366765E+03  0.23718522352E+03  0.28601007577E+03  0.00000000000E+00 0. -1.
         22    1    3    3    0    0 -0.97846880199E+01 -0.19662495031E+02 -0.37013162671E+02  0.43038680758E+02  0.00000000000E+00 0. -1.
         22    1    3    3    0    0  0.36939144669E+02  0.16517652109E+03 -0.14745510298E+03  0.22447893202E+03  0.00000000000E+00 0. -1.
</event>
<event>
 7    1  0.5889087E-006  0.1317920E+03  0.7818608E-02  0.1378985E+00
          2   -1    0    0  502    0  0.00000000000E+00  0.00000000000E+00  0.13704958484E+03  0.13704958484E+03  0.00000000000E+00 0. -1.
          1   -1    0    0  501    0 -0.00000000000E+00 -0.00000000000E+00 -0.81106365291E+03  0.81106365291E+03  0.00000000000E+00 0. -1.
         25    2    1    2    0    0 -0.61046077782E+02  0.14771773036E+03 -0.52271833304E+02  0.20953365359E+03  0.12499942381E+03 0.  0.
          2    1    1    2  501    0  0.57564983202E+02 -0.11611539231E+03 -0.66910187006E+03  0.68153783765E+03  0.00000000000E+00 0. -1.
          1    1    1    2  502    0  0.34810945791E+01 -0.31602338045E+02  0.47359635304E+02  0.57041746515E+02  0.00000000000E+00 0. -1.
         22    1    3    3    0    0 -0.27972949077E+02  0.13609395410E+03 -0.83910346343E+02  0.16231141810E+03  0.00000000000E+00 0.  1.
         22    1    3    3    0    0 -0.33073128705E+02  0.11623776255E+02  0.31638513039E+02  0.47222235484E+02  0.00000000000E+00 0.  1.
</event>
<event>
 7    1  0.5889087E-006  0.1379999E+03  0.7818608E-02  0.1293085E+00
          2   -1    0    0  502    0  0.00000000000E+00  0.00000000000E+00  0.12392318091E+04  0.12392318091E+04  0.00000000000E+00 0. -1.
          1   -1    0    0  501    0 -0.00000000000E+00 -0.00000000000E+00 -0.44222413126E+03  0.44222413126E+03  0.00000000000E+00 0. -1.
         25    2    1    2    0    0  0.56004170726E+02 -0.17704279766E+03  0.24579435863E+03  0.33244700774E+03  0.12500210750E+03 0.  0.
          2    1    1    2  501    0 -0.64492012624E+01  0.13615844380E+03 -0.38612108820E+03  0.40947552890E+03  0.00000000000E+00 0. -1.
          1    1    1    2  502    0 -0.49554969464E+02  0.40884353852E+02  0.93733440745E+03  0.93953340376E+03  0.00000000000E+00 0. -1.
         22    1    3    3    0    0  0.90614731097E+02 -0.87636889193E+02  0.16081292614E+03  0.20433318638E+03  0.00000000000E+00 0. -1.
         22    1    3    3    0    0 -0.34610560371E+02 -0.89405908463E+02  0.84981432490E+02  0.12811382137E+03  0.00000000000E+00 0. -1.
</event>
<event>
 7    1  0.5889087E-006  0.8319151E+02  0.7818608E-02  0.1445767E+00
          2   -1    0    0  502    0  0.00000000000E+00  0.00000000000E+00  0.91883289500E+03  0.91883289500E+03  0.00000000000E+00 0. -1.
          1   -1    0    0  501    0 -0.00000000000E+00 -0.00000000000E+00 -0.82786831825E+02  0.82786831825E+02  0.00000000000E+00 0. -1.
         25    2    1    2    0    0 -0.81575490452E+02 -0.21190546082E+02  0.44152715012E+03  0.46655597305E+03  0.12499860723E+03 0.  0.
          2    1    1    2  501    0  0.68214787969E+02  0.48002565653E+02 -0.44829508362E+02  0.94695239727E+02  0.00000000000E+00 0. -1.
          1    1    1    2  502    0  0.13360702483E+02 -0.26812019571E+02  0.43934842141E+03  0.44036851405E+03  0.00000000000E+00 0. -1.
         22    1    3    3    0    0 -0.44995246572E+02 -0.67250934629E+02  0.33737585267E+03  0.34694340516E+03  0.00000000000E+00 0.  1.
         22    1    3    3    0    0 -0.36580243879E+02  0.46060388547E+02  0.10415129746E+03  0.11961256789E+03  0.00000000000E+00 0.  1.
</event>
<event>
 7    1  0.5889087E-006  0.5867158E+02  0.7818608E-02  0.1460126E+00
          2   -1    0    0  502    0  0.00000000000E+00  0.00000000000E+00  0.12424786435E+04  0.12424786435E+04  0.00000000000E+00 0. -1.
          1   -1    0    0  501    0 -0.00000000000E+00 -0.00000000000E+00 -0.18888884708E+02  0.18888884708E+02  0.00000000000E+00 0. -1.
         25    2    1    2    0    0 -0.25800212006E+01 -0.76143370059E+02  0.72995344448E+03  0.74448752045E+03  0.12500067073E+03 0.  0.
          2    1    1    2  501    0 -0.26479123502E+02  0.51303899107E+02  0.66619925294E+02  0.88155819384E+02  0.00000000000E+00 0. -1.
          1    1    1    2  502    0  0.29059144702E+02  0.24839470952E+02  0.42701638904E+03  0.42872418840E+03  0.00000000000E+00 0. -1.
         22    1    3    3    0    0  0.78566284377E+00  0.34466353942E+02  0.13516572713E+03  0.13949308445E+03  0.00000000000E+00 0. -1.
         22    1    3    3    0    0 -0.33656840443E+01 -0.11060972400E+03  0.59478771735E+03  0.60499443599E+03  0.00000000000E+00 0. -1.
</event>
<event>
 7    1  0.5889087E-006  0.2381099E+03  0.7818608E-02  0.1268679E+00
          2   -1    0    0  502    0  0.00000000000E+00  0.00000000000E+00  0.13227985692E+04  0.13227985692E+04  0.00000000000E+00 0. -1.
          1   -1    0    0  501    0 -0.00000000000E+00 -0.00000000000E+00 -0.16768757220E+03  0.16768757220E+03  0.00000000000E+00 0. -1.
         25    2    1    2    0    0 -0.19383524856E+03  0.50749944693E+02  0.56627136111E+03  0.61354408112E+03  0.12500169838E+03 0.  0.
          2    1    1    2  501    0  0.24053758181E+03 -0.45909761730E+02 -0.38465449712E+02  0.24788228115E+03  0.00000000000E+00 0. -1.
          1    1    1    2  502    0 -0.46702333250E+02 -0.48401829631E+01  0.62730508560E+03  0.62905977913E+03  0.00000000000E+00 0. -1.
         22    1    3    3    0    0  0.57143473430E+01  0.33343533575E+02  0.11370036807E+03  0.11862638280E+03  0.00000000000E+00 0. -1.
         22    1    3    3    0    0 -0.19954959590E+03  0.17406411118E+02  0.45257099304E+03  0.49491769833E+03  0.00000000000E+00 0. -1.
</event>
<event>
 7    1  0.5889087E-006  0.2325544E+03  0.7818608E-02  0.1224008E+00
          2   -1    0    0  502    0  0.00000000000E+00  0.00000000000E+00  0.43420600172E+03  0.43420600172E+03  0.00000000000E+00 0. -1.
          1   -1    0    0  501    0 -0.00000000000E+00 -0.00000000000E+00 -0.78661160918E+03  0.78661160918E+03  0.00000000000E+00 0. -1.
         25    2    1    2    0    0 -0.22892351602E+03  0.17108377897E+03  0.67621532525E+02  0.31917493999E+03  0.12499734015E+03 0.  0.
          2    1    1    2  501    0  0.49668775332E+02 -0.56627283722E+02 -0.61110813385E+03  0.61573272429E+03  0.00000000000E+00 0. -1.
          1    1    1    2  502    0  0.17925474069E+03 -0.11445649525E+03  0.19108099386E+03  0.28590994662E+03  0.00000000000E+00 0. -1.
         22    1    3    3    0    0 -0.62222597838E+02  0.57906713005E+02 -0.36344658033E+02  0.92443351629E+02  0.00000000000E+00 0. -1.
         22    1    3    3    0    0 -0.16670091818E+03  0.11317706597E+03  0.10396619056E+03  0.22673158836E+03  0.00000000000E+00 0. -1.
</event>
<event>
 7    1  0.5889087E-006  0.1098560E+03  0.7818608E-02  0.1398896E+00
          2   -1    0    0  502    0  0.00000000000E+00  0.00000000000E+00  0.14921495241E+04  0.14921495241E+04  0.00000000000E+00 0. -1.
          1   -1    0    0  501    0 -0.00000000000E+00 -0.00000000000E+00 -0.69584604303E+03  0.69584604303E+03  0.00000000000E+00 0. -1.
         25    2    1    2    0    0 -0.10439049208E+02  0.83198911157E+02 -0.86824149884E+01  0.15077090933E+03  0.12500180080E+03 0.  0.
          2    1    1    2  501    0  0.32642169044E+02 -0.10692471610E+03 -0.61086000631E+03  0.62100592060E+03  0.00000000000E+00 0. -1.
          1    1    1    2  502    0 -0.22203119836E+02  0.23725804942E+02  0.14158459024E+04  0.14162187372E+04  0.00000000000E+00 0. -1.
         22    1    3    3    0    0 -0.60256316439E+02  0.22551424958E+02 -0.27647831458E+02  0.70027087779E+02  0.00000000000E+00 0.  1.
         22    1    3    3    0    0  0.49817267231E+02  0.60647486199E+02  0.18965416469E+02  0.80743821550E+02  0.00000000000E+00 0.  1.
</event>
<event>
 7    1  0.5889087E-006  0.1128785E+03  0.7818608E-02  0.1275768E+00
          2   -1    0    0  502    0  0.00000000000E+00  0.00000000000E+00  0.10576314331E+04  0.10576314331E+04  0.00000000000E+00 0. -1.
          1   -1    0    0  501    0 -0.00000000000E+00 -0.00000000000E+00 -0.65325328949E+03  0.65325328949E+03  0.00000000000E+00 0. -1.
         25    2    1    2    0    0  0.16968311203E+03 -0.76511445666E+02 -0.19497040624E+03  0.29713073392E+03  0.12500741539E+03 0.  0.
          2    1    1    2  501    0 -0.92384364613E+02 -0.46970874728E+01 -0.39876989295E+03  0.40935847491E+03  0.00000000000E+00 0. -1.
          1    1    1    2  502    0 -0.77298747416E+02  0.81208533138E+02  0.99811844276E+03  0.10043955137E+04  0.00000000000E+00 0. -1.
         22    1    3    3    0    0  0.72811768314E+02 -0.83955681240E+02 -0.48239350393E+02  0.12114926720E+03  0.00000000000E+00 0.  1.
         22    1    3    3    0    0  0.96871343715E+02  0.74442355742E+01 -0.14673105585E+03  0.17598146672E+03  0.00000000000E+00 0.  1.
</event>
<event>
 7    1  0.7231403E-006  0.1256488E+03  0.7818608E-02  0.1235320E+00
          2   -1    0    0  502    0  0.00000000000E+00  0.00000000000E+00  0.17216636993E+04  0.17216636993E+04  0.00000000000E+00 0. -1.
          1   -1    0    0  501    0 -0.00000000000E+00 -0.00000000000E+00 -0.50653981474E+03  0.50653981474E+03  0.00000000000E+00 0. -1.
         25    2    1    2    0    0 -0.14828539666E+02  0.14562835411E+01 -0.84606626686E+02  0.15167476758E+03  0.12499978996E+03 0.  0.
          2    1    1    2  501    0 -0.12068658430E+02 -0.12506781267E+03 -0.37578995845E+03  0.39623945179E+03  0.00000000000E+00 0. -1.
          1    1    1    2  502    0  0.26897198095E+02  0.12361152913E+03  0.16755204697E+04  0.16802892947E+04  0.00000000000E+00 0. -1.
         22    1    3    3    0    0 -0.29387721988E+02 -0.50451530740E+02 -0.77894518918E+02  0.97347579503E+02  0.00000000000E+00 0. -1.
         22    1    3    3    0    0  0.14559182323E+02  0.51907814281E+02 -0.67121077682E+01  0.54327188074E+02  0.00000000000E+00 0. -1.
</event>
<event>
 7    1  0.5889087E-006  0.4985732E+02  0.7818608E-02  0.1485588E+00
          2   -1    0    0  502    0  0.00000000000E+00  0.00000000000E+00  0.21740447802E+04  0.21740447802E+04  0.00000000000E+00 0. -1.
          1   -1    0    0  501    0 -0.00000000000E+00 -0.00000000000E+00 -0.11888012745E+03  0.11888012745E+03  0.00000000000E+00 0. -1.
         25    2    1    2    0    0  0.24737755836E+02 -0.79272352224E+02  0.24600570165E+02  0.15207201720E+03  0.12499859188E+03 0.  0.
          2    1    1    2  501    0 -0.84537687593E+01  0.45476780522E+02 -0.45245021550E+02  0.64704835584E+02  0.00000000000E+00 0. -1.
          1    1    1    2  502    0 -0.16283987076E+02  0.33795571702E+02  0.20758091041E+04  0.20761480549E+04  0.00000000000E+00 0. -1.
         22    1    3    3    0    0 -0.12282986937E+02 -0.10239718804E+03  0.31601860605E+02  0.10786442176E+03  0.00000000000E+00 0.  1.
         22    1    3    3    0    0  0.37020742772E+02  0.23124835819E+02 -0.70012904404E+01  0.44207595444E+02  0.00000000000E+00 0.  1.
</event>
<event>
 7    1  0.5889087E-006  0.5050835E+02  0.7818608E-02  0.1559409E+00
          2   -1    0    0  502    0  0.00000000000E+00  0.00000000000E+00  0.90360294980E+03  0.90360294980E+03  0.00000000000E+00 0. -1.
          1   -1    0    0  501    0 -0.00000000000E+00 -0.00000000000E+00 -0.11126040207E+03  0.11126040207E+03  0.00000000000E+00 0. -1.
         25    2    1    2    0    0 -0.59376102091E+02 -0.37979473273E+02 -0.41664666418E+02  0.14942440512E+03  0.12499498601E+03 0.  0.
          2    1    1    2  501    0  0.12893633747E+02  0.18603770517E+02 -0.64014255863E+01  0.23522846728E+02  0.00000000000E+00 0. -1.
          1    1    1    2  502    0  0.46482468345E+02  0.19375702756E+02  0.84040863974E+03  0.84191610002E+03  0.00000000000E+00 0. -1.
         22    1    3    3    0    0 -0.81445446251E+02 -0.47888140564E+00 -0.61051401785E+02  0.10178832793E+03  0.00000000000E+00 0.  1.
         22    1    3    3    0    0  0.22069344160E+02 -0.37500591868E+02  0.19386735367E+02  0.47636077192E+02  0.00000000000E+00 0.  1.
</event>
<event>
 7    1  0.5889087E-006  0.3930823E+02  0.7818608E-02  0.1525892E+00
          2   -1    0    0  502    0  0.00000000000E+00  0.00000000000E+00  0.24426276518E+04  0.24426276518E+04  0.00000000000E+00 0. -1.
          1   -1    0    0  501    0 -0.00000000000E+00 -0.00000000000E+00 -0.58461415764E+03  0.58461415764E+03  0.00000000000E+00 0. -1.
         25    2    1    2    0    0 -0.54520871624E+02 -0.32277057555E+02 -0.37521105554E+03  0.40052877496E+03  0.12500251792E+03 0.  0.
          2    1    1    2  501    0  0.15222008601E+02  0.32786786632E+02 -0.19492349008E+03  0.19824694174E+03  0.00000000000E+00 0. -1.
          1    1    1    2  502    0  0.39298863022E+02 -0.50972907708E+00  0.24281480398E+04  0.24284660927E+04  0.00000000000E+00 0. -1.
         22    1    3    3    0    0 -0.83824548844E+02 -0.50312166004E+02 -0.20821532295E+03  0.23002497636E+03  0.00000000000E+00 0.  1.
         22    1    3    3    0    0  0.29303677220E+02  0.18035108449E+02 -0.16699573259E+03  0.17050379860E+03  0.00000000000E+00 0.  1.
</event>
<event>
 7    1  0.5889087E-006  0.6869290E+02  0.7818608E-02  0.1394607E+00
          2   -1    0    0  502    0  0.00000000000E+00  0.00000000000E+00  0.13795419979E+03  0.13795419979E+03  0.00000000000E+00 0. -1.
          1   -1    0    0  501    0 -0.00000000000E+00 -0.00000000000E+00 -0.16727894062E+04  0.16727894062E+04  0.00000000000E+00 0. -1.
         25    2    1    2    0    0 -0.27110886750E+02  0.46962758568E+02 -0.15412340499E+03  0.20571710048E+03  0.12500000236E+03 0.  0.
          2    1    1    2  501    0  0.49930385802E+02  0.19954227405E+02 -0.14811906887E+04  0.14821663439E+04  0.00000000000E+00 0. -1.
          1    1    1    2  502    0 -0.22819499052E+02 -0.66916985973E+02  0.10047888724E+03  0.12286016169E+03  0.00000000000E+00 0. -1.
         22    1    3    3    0    0 -0.48906362471E+02 -0.23194831556E+02 -0.31096455404E+02  0.62424530753E+02  0.00000000000E+00 0.  1.
         22    1    3    3    0    0  0.21795475721E+02  0.70157590124E+02 -0.12302694959E+03  0.14329256973E+03  0.00000000000E+00 0.  1.
</event>
<event>
 7    1  0.5889087E-006  0.3524308E+02  0.7818608E-02  0.1586263E+00
          2   -1    0    0  502    0  0.00000000000E+00  0.00000000000E+00  0.13982702927E+03  0.13982702927E+03  0.00000000000E+00 0. -1.
          1   -1    0    0  501    0 -0.00000000000E+00 -0.00000000000E+00 -0.40945829331E+03  0.40945829331E+03  0.00000000000E+00 0. -1.
         25    2    1    2    0    0 -0.30835892808E+02  0.47959379280E+02 -0.14092759856E+03  0.19681663890E+03  0.12500098786E+03 0.  0.
          2    1    1    2  501    0  0.26373886737E+01 -0.27312836502E+02 -0.23704599781E+03  0.23862890004E+03  0.00000000000E+00 0. -1.
          1    1    1    2  502    0  0.28198504134E+02 -0.20646542778E+02  0.10834233234E+03  0.11383978364E+03  0.00000000000E+00 0. -1.
         22    1    3    3    0    0  0.44189614377E+01  0.42676040858E+02  0.80330484812E+01  0.43649760038E+02  0.00000000000E+00 0. -1.
         22    1    3    3    0    0 -0.35254854246E+02  0.52833384218E+01 -0.14896064704E+03  0.15316687886E+03  0.00000000000E+00 0. -1.
</event>
<event>
 7    1  0.5889087E-006  0.2379684E+03  0.7818608E-02  0.1209939E+00
          2   -1    0    0  502    0  0.00000000000E+00  0.00000000000E+00  0.23800115677E+03  0.23800115677E+03  0.00000000000E+00 0. -1.
          1   -1    0    0  501    0 -0.00000000000E+00 -0.00000000000E+00 -0.13592136769E+04  0.13592136769E+04  0.00000000000E+00 0. -1.
         25    2    1    2    0    0 -0.16172977992E+03 -0.36695331627E+02 -0.52172957808E+03  0.56154262951E+03  0.12500121213E+03 0.  0.
          2    1    1    2  501    0 -0.71251811846E+02 -0.47061993595E+02 -0.74407734191E+03  0.74896110892E+03  0.00000000000E+00 0. -1.
          1    1    1    2  502    0  0.23298159176E+03  0.83757325222E+02  0.14459439989E+03  0.28671109520E+03  0.00000000000E+00 0. -1.
         22    1    3    3    0    0 -0.11540662782E+03 -0.27507627717E+02 -0.49116227194E+03  0.50528777613E+03  0.00000000000E+00 0.  1.
         22    1    3    3    0    0 -0.46323152102E+02 -0.91877039105E+01 -0.30567306137E+02  0.56254853375E+02  0.00000000000E+00 0.  1.
</event>
<event>
 7    1  0.5889087E-006  0.4603487E+03  0.7818608E-02  0.1154065E+00
          2   -1    0    0  502    0  0.00000000000E+00  0.00000000000E+00  0.11868105170E+04  0.11868105170E+04  0.00000000000E+00 0. -1.
          1   -1    0    0  501    0 -0.00000000000E+00 -0.00000000000E+00 -0.69335652750E+03  0.69335652750E+03  0.00000000000E+00 0. -1.
         25    2    1    2    0    0 -0.27418475814E+03 -0.44048866236E+03  0.28005678911E+03  0.60271533836E+03  0.12500572267E+03 0.  0.
          2    1    1    2  501    0  0.34618129186E+02  0.74955879511E+02 -0.46400878628E+03  0.47129709577E+03  0.00000000000E+00 0. -1.
          1    1    1    2  502    0  0.23956662896E+03  0.36553278285E+03  0.67740598662E+03  0.80615461033E+03  0.00000000000E+00 0. -1.
         22    1    3    3    0    0 -0.25979669846E+03 -0.42029080334E+03  0.22619258919E+03  0.54341675656E+03  0.00000000000E+00 0.  1.
         22    1    3    3    0    0 -0.14388059681E+02 -0.20197859013E+02  0.53864199916E+02  0.59298581793E+02  0.00000000000E+00 0.  1.
</event>
<event>
 7    1  0.5889087E-006  0.9683492E+02  0.7818608E-02  0.1379676E+00
          2   -1    0    0  502    0  0.00000000000E+00  0.00000000000E+00  0.39136880834E+03  0.39136880834E+03  0.00000000000E+00 0. -1.
          1   -1    0    0  501    0 -0.00000000000E+00 -0.00000000000E+00 -0.52106048410E+03  0.52106048410E+03  0.00000000000E+00 0. -1.
         25    2    1    2    0    0 -0.18549791317E+02 -0.57750225777E+02  0.47938507740E+02  0.14697830011E+03  0.12500134737E+03 0.  0.
          2    1    1    2  501    0  0.54017038173E+01  0.98719909745E+02 -0.46473738176E+03  0.47513748851E+03  0.00000000000E+00 0. -1.
          1    1    1    2  502    0  0.13148087499E+02 -0.40969683968E+02  0.28710719826E+03  0.29031350383E+03  0.00000000000E+00 0. -1.
         22    1    3    3    0    0  0.30051726597E+02  0.13897481695E+01  0.62218050950E+02  0.69109503944E+02  0.00000000000E+00 0.  1.
         22    1    3    3    0    0 -0.48601517914E+02 -0.59139973947E+02 -0.14279543210E+02  0.77868796165E+02  0.00000000000E+00 0.  1.
</event>
<event>
 7    1  0.5889087E-006  0.1761905E+03  0.7818608E-02  0.1329116E+00
          2   -1    0    0  502    0  0.00000000000E+00  0.00000000000E+00  0.43974063086E+04  0.43974063086E+04  0.00000000000E+00 0. -1.
          1   -1    0    0  501    0 -0.00000000000E+00 -0.00000000000E+00 -0.15430789261E+04  0.15430789261E+04  0.00000000000E+00 0. -1.
         25    2    1    2    0    0  0.16117356781E+02 -0.19463241320E+03  0.21303976725E+04  0.21429794762E+04  0.12500098896E+03 0.  0.
          2    1    1    2  501    0  0.14755769989E+02  0.17553259465E+03 -0.15315937008E+04  0.15416902053E+04  0.00000000000E+00 0. -1.
          1    1    1    2  502    0 -0.30873126770E+02  0.19099818546E+02  0.22555234109E+04  0.22558155532E+04  0.00000000000E+00 0. -1.
         22    1    3    3    0    0  0.56448926401E+02 -0.16925437080E+03  0.14541219775E+04  0.14650270471E+04  0.00000000000E+00 0. -1.
         22    1    3    3    0    0 -0.40331569621E+02 -0.25378042397E+02  0.67627569494E+03  0.67795242910E+03  0.00000000000E+00 0. -1.
</event>
<event>
 7    1  0.5889087E-006  0.6518820E+02  0.7818608E-02  0.1444404E+00
          2   -1    0    0  502    0  0.00000000000E+00  0.00000000000E+00  0.16065795765E+03  0.16065795765E+03  0.00000000000E+00 0. -1.
          1   -1    0    0  501    0 -0.00000000000E+00 -0.00000000000E+00 -0.24381135977E+04  0.24381135977E+04  0.00000000000E+00 0. -1.
         25    2    1    2    0    0  0.10326330285E+03  0.33063797628E+01 -0.11096661933E+04  0.11214533094E+04  0.12499689034E+03 0.  0.
          2    1    1    2  501    0 -0.38323802353E+02 -0.47595279980E+01 -0.13154423684E+04  0.13160091153E+04  0.00000000000E+00 0. -1.
          1    1    1    2  502    0 -0.64939500493E+02  0.14531482352E+01  0.14765292169E+03  0.16130913070E+03  0.00000000000E+00 0. -1.
         22    1    3    3    0    0  0.10455607369E+03  0.18184617438E+02 -0.10962586961E+04  0.11013835760E+04  0.00000000000E+00 0. -1.
         22    1    3    3    0    0 -0.12927708452E+01 -0.14878237676E+02 -0.13407497255E+02  0.20069733317E+02  0.00000000000E+00 0. -1.
</event>
<event>
 7    1  0.6003297E-006  0.4752698E+02  0.7818608E-02  0.1470320E+00
          2   -1    0    0  502    0  0.00000000000E+00  0.00000000000E+00  0.14297647037E+04  0.14297647037E+04  0.00000000000E+00 0. -1.
          1   -1    0    0  501    0 -0.00000000000E+00 -0.00000000000E+00 -0.34896060028E+03  0.34896060028E+03  0.00000000000E+00 0. -1.
         25    2    1    2    0    0 -0.14597944339E+01  0.21223888682E+02 -0.77850144214E+02  0.14878930375E+03  0.12500011003E+03 0.  0.
          2    1    1    2  501    0 -0.43512132835E+02 -0.54207020986E+01 -0.23318947574E+03  0.23727625526E+03  0.00000000000E+00 0. -1.
          1    1    1    2  502    0  0.44971927269E+02 -0.15803186583E+02  0.13918437234E+04  0.13926597450E+04  0.00000000000E+00 0. -1.
         22    1    3    3    0    0  0.38141973088E+02 -0.16234235205E+02  0.12475633311E+02  0.43289743938E+02  0.00000000000E+00 0.  1.
         22    1    3    3    0    0 -0.39601767522E+02  0.37458123887E+02 -0.90325777525E+02  0.10549955982E+03  0.00000000000E+00 0.  1.
</event>
<event>
 7    1  0.5889087E-006  0.4746105E+02  0.7818608E-02  0.1578057E+00
          2   -1    0    0  502    0  0.00000000000E+00  0.00000000000E+00  0.12061596964E+04  0.12061596964E+04  0.00000000000E+00 0. -1.
          1   -1    0    0  501    0 -0.00000000000E+00 -0.00000000000E+00 -0.23407370992E+03  0.23407370992E+03  0.00000000000E+00 0. -1.
         25    2    1    2    0    0  0.38897802443E+02 -0.32142044950E+02  0.12157471101E+03  0.18151535834E+03  0.12498505858E+03 0.  0.
          2    1    1    2  501    0 -0.45973179076E+02  0.11911808788E+02 -0.20123013711E+03  0.20675829479E+03  0.00000000000E+00 0. -1.
          1    1    1    2  502    0  0.70753766328E+01  0.20230236161E+02  0.10517414126E+04  0.10519597532E+04  0.00000000000E+00 0. -1.
         22    1    3    3    0    0 -0.12939687928E+02  0.26926719042E+02  0.93346399807E+02  0.98010377404E+02  0.00000000000E+00 0. -1.
         22    1    3    3    0    0  0.51837490371E+02 -0.59068763991E+02  0.28228311203E+02  0.83504980934E+02  0.00000000000E+00 0. -1.
</event>
<event>
 7    1  0.5889087E-006  0.5940350E+02  0.7818608E-02  0.1495834E+00
          2   -1    0    0  502    0  0.00000000000E+00  0.00000000000E+00  0.78069925843E+03  0.78069925843E+03  0.00000000000E+00 0. -1.
          1   -1    0    0  501    0 -0.00000000000E+00 -0.00000000000E+00 -0.11272362932E+04  0.11272362932E+04  0.00000000000E+00 0. -1.
         25    2    1    2    0    0 -0.40351905579E+02  0.23997696273E+00  0.47521622327E+02  0.13968303816E+03  0.12499885075E+03 0.  0.
          2    1    1    2  501    0  0.53392476882E+02 -0.26498791656E+02 -0.10800206528E+04  0.10816642516E+04  0.00000000000E+00 0. -1.
          1    1    1    2  502    0 -0.13040571303E+02  0.26258814693E+02  0.68596199571E+03  0.68658826192E+03  0.00000000000E+00 0. -1.
         22    1    3    3    0    0 -0.60315522260E+02  0.40491192099E+00 -0.24382590580E+02  0.65058718882E+02  0.00000000000E+00 0. -1.
         22    1    3    3    0    0  0.19963616680E+02 -0.16493495826E+00  0.71904212907E+02  0.74624319282E+02  0.00000000000E+00 0. -1.
</event>
<event>
 7    1  0.5889087E-006  0.7957841E+02  0.7818608E-02  0.1440090E+00
          2   -1    0    0  502    0  0.00000000000E+00  0.00000000000E+00  0.17395634941E+03  0.17395634941E+03  0.00000000000E+00 0. -1.
          1   -1    0    0  501    0 -0.00000000000E+00 -0.00000000000E+00 -0.10489456577E+04  0.10489456577E+04  0.00000000000E+00 0. -1.
         25    2    1    2    0    0 -0.24201742478E+02 -0.60764988983E+02 -0.50496249470E+03  0.52430000760E+03  0.12500107476E+03 0.  0.
          2    1    1    2  501    0  0.30423141180E+01  0.85654185247E+02 -0.52920785402E+03  0.53610339291E+03  0.00000000000E+00 0. -1.
          1    1    1    2  502    0  0.21159428360E+02 -0.24889196264E+02  0.15918104046E+03  0.16249860658E+03  0.00000000000E+00 0. -1.
         22    1    3    3    0    0  0.51122506177E+02 -0.24067071874E+02 -0.23104964929E+03  0.23785851892E+03  0.00000000000E+00 0.  1.
         22    1    3    3    0    0 -0.75324248655E+02 -0.36697917109E+02 -0.27391284541E+03  0.28644148868E+03  0.00000000000E+00 0.  1.
</event>
<event>
 7    1  0.5889087E-006  0.8446081E+02  0.7818608E-02  0.1416283E+00
          2   -1    0    0  502    0  0.00000000000E+00  0.00000000000E+00  0.18485459844E+04  0.18485459844E+04  0.00000000000E+00 0. -1.
          1   -1    0    0  501    0 -0.00000000000E+00 -0.00000000000E+00 -0.13463164352E+04  0.13463164352E+04  0.00000000000E+00 0. -1.
         25    2    1    2    0    0  0.96437437293E+02  0.50563149648E+02 -0.11116983281E+03  0.19960235352E+03  0.12500222553E+03 0.  0.
          2    1    1    2  501    0 -0.82132028621E+02 -0.16565201731E+02 -0.11892677950E+04  0.11922155696E+04  0.00000000000E+00 0. -1.
          1    1    1    2  502    0 -0.14305408673E+02 -0.33997947917E+02  0.18026671770E+04  0.18030444965E+04  0.00000000000E+00 0. -1.
         22    1    3    3    0    0 -0.10527796945E+02  0.27449891767E+02  0.14651974611E+02  0.32848309341E+02  0.00000000000E+00 0.  1.
         22    1    3    3    0    0  0.10696523424E+03  0.23113257881E+02 -0.12582180742E+03  0.16675404417E+03  0.00000000000E+00 0.  1.
</event>
<event>
 7    1  0.5889087E-006  0.7423745E+02  0.7818608E-02  0.1424532E+00
          2   -1    0    0  502    0  0.00000000000E+00  0.00000000000E+00  0.16742277262E+03  0.16742277262E+03  0.00000000000E+00 0. -1.
          1   -1    0    0  501    0 -0.00000000000E+00 -0.00000000000E+00 -0.31901883151E+03  0.31901883151E+03  0.00000000000E+00 0. -1.
         25    2    1    2    0    0  0.69322152193E+02  0.19513030036E+02 -0.11255115340E+03  0.18295954097E+03  0.12498044797E+03 0.  0.
          2    1    1    2  501    0 -0.53180542812E+02 -0.55439763689E+02 -0.15934579140E+03  0.17689776360E+03  0.00000000000E+00 0. -1.
          1    1    1    2  502    0 -0.16141609381E+02  0.35926733653E+02  0.12030088590E+03  0.12658429955E+03  0.00000000000E+00 0. -1.
         22    1    3    3    0    0  0.70383098100E+02  0.53326097430E+02 -0.11933834785E+03  0.14845569855E+03  0.00000000000E+00 0.  1.
         22    1    3    3    0    0 -0.10609459068E+01 -0.33813067394E+02  0.67871944519E+01  0.34503842414E+02  0.00000000000E+00 0.  1.
</event>
<event>
 7    1  0.5889087E-006  0.1159021E+03  0.7818608E-02  0.1347361E+00
          2   -1    0    0  502    0  0.00000000000E+00  0.00000000000E+00  0.26826236518E+04  0.26826236518E+04  0.00000000000E+00 0. -1.
          1   -1    0    0  501    0 -0.00000000000E+00 -0.00000000000E+00 -0.30851314968E+03  0.30851314968E+03  0.00000000000E+00 0. -1.
         25    2    1    2    0    0 -0.21640731365E+02 -0.15899544486E+03  0.12622303525E+04  0.12785138499E+04  0.12499731597E+03 0.  0.
          2    1    1    2  501    0  0.27326745496E+02  0.11224071699E+03 -0.28885407620E+03  0.31109710206E+03  0.00000000000E+00 0. -1.
          1    1    1    2  502    0 -0.56860141315E+01  0.46754727868E+02  0.14007342259E+04  0.14015258495E+04  0.00000000000E+00 0. -1.
         22    1    3    3    0    0 -0.23987087653E+02  0.14315013991E+02  0.12004188266E+03  0.12324915250E+03  0.00000000000E+00 0.  1.
         22    1    3    3    0    0  0.23463562881E+01 -0.17331045885E+03  0.11421884698E+04  0.11552646974E+04  0.00000000000E+00 0.  1.
</event>
<event>
 7    1  0.5889087E-006  0.3964654E+02  0.7818608E-02  0.1528912E+00
          2   -1    0    0  502    0  0.00000000000E+00  0.00000000000E+00  0.14655675999E+04  0.14655675999E+04  0.00000000000E+00 0. -1.
          1   -1    0    0  501    0 -0.00000000000E+00 -0.00000000000E+00 -0.20830883880E+04  0.20830883880E+04  0.00000000000E+00 0. -1.
         25    2    1    2    0    0  0.12037321536E+02 -0.59947784413E+01  0.51942163322E+03  0.53442056888E+03  0.12500270758E+03 0.  0.
          2    1    1    2  501    0  0.25212570599E+02  0.24463682458E+02 -0.20749797526E+04  0.20752771187E+04  0.00000000000E+00 0. -1.
          1    1    1    2  502    0 -0.37249892135E+02 -0.18468904017E+02  0.93803733125E+03  0.93895830030E+03  0.00000000000E+00 0. -1.
         22    1    3    3    0    0  0.23651147724E+02 -0.50980868309E+02  0.42992525450E+03  0.43358292191E+03  0.00000000000E+00 0.  1.
         22    1    3    3    0    0 -0.11613826188E+02  0.44986089868E+02  0.89496378728E+02  0.10083764697E+03  0.00000000000E+00 0.  1.
</event>
<event>
 7    1  0.5889087E-006  0.8057220E+02  0.7818608E-02  0.1376897E+00
          2   -1    0    0  502    0  0.00000000000E+00  0.00000000000E+00  0.19790869776E+04  0.19790869776E+04  0.00000000000E+00 0. -1.
          1   -1    0    0  501    0 -0.00000000000E+00 -0.00000000000E+00 -0.80757183981E+02  0.80757183981E+02  0.00000000000E+00 0. -1.
         25    2    1    2    0    0 -0.10617389942E+03  0.49237621952E+02  0.78791593752E+03  0.80630921489E+03  0.12500314029E+03 0.  0.
          2    1    1    2  501    0  0.52628064686E+02  0.53660883423E+01 -0.60362793354E+02  0.80263160405E+02  0.00000000000E+00 0. -1.
          1    1    1    2  502    0  0.53545834732E+02 -0.54603710294E+02  0.11707766494E+04  0.11732717862E+04  0.00000000000E+00 0. -1.
         22    1    3    3    0    0 -0.96388634203E+01  0.34367330417E+02  0.47175776278E+02  0.59157205440E+02  0.00000000000E+00 0.  1.
         22    1    3    3    0    0 -0.96535035998E+02  0.14870291535E+02  0.74074016124E+03  0.74715200945E+03  0.00000000000E+00 0.  1.
</event>
<event>
 7    1  0.5889087E-006  0.1244886E+03  0.7818608E-02  0.1382658E+00
          2   -1    0    0  502    0  0.00000000000E+00  0.00000000000E+00  0.32495771138E+04  0.32495771138E+04  0.00000000000E+00 0. -1.
          1   -1    0    0  501    0 -0.00000000000E+00 -0.00000000000E+00 -0.31156822927E+03  0.31156822927E+03  0.00000000000E+00 0. -1.
         25    2    1    2    0    0 -0.12276614455E+03  0.42124422864E+02  0.82738522392E+03  0.84678038939E+03  0.12499890338E+03 0.  0.
          2    1    1    2  501    0  0.19197998667E+02  0.26430085074E+02 -0.29938303977E+03  0.30115995260E+03  0.00000000000E+00 0. -1.
          1    1    1    2  502    0  0.10356814589E+03 -0.68554507938E+02  0.24100067004E+04  0.24132050011E+04  0.00000000000E+00 0. -1.
         22    1    3    3    0    0 -0.64744928907E+02  0.36293945203E+02  0.15482837873E+03  0.17170027122E+03  0.00000000000E+00 0.  1.
         22    1    3    3    0    0 -0.58021215645E+02  0.58304776607E+01  0.67255684519E+03  0.67508011817E+03  0.00000000000E+00 0.  1.
</event>
<event>
 7    1  0.5889087E-006  0.4119326E+02  0.7818608E-02  0.1585960E+00
          2   -1    0    0  502    0  0.00000000000E+00  0.00000000000E+00  0.33157073835E+03  0.33157073835E+03  0.00000000000E+00 0. -1.
          1   -1    0    0  501    0 -0.00000000000E+00 -0.00000000000E+00 -0.16471199300E+04  0.16471199300E+04  0.00000000000E+00 0. -1.
         25    2    1    2    0    0  0.29114029874E+01  0.60085785972E+02  0.60992544663E+02  0.15154562294E+03  0.12500882923E+03 0.  0.
          2    1    1    2  501    0 -0.11524058019E+02 -0.20503199606E+02 -0.15999354114E+04  0.16001082794E+04  0.00000000000E+00 0. -1.
          1    1    1    2  502    0  0.86126550313E+01 -0.39582586366E+02  0.22339367518E+03  0.22703676592E+03  0.00000000000E+00 0. -1.
         22    1    3    3    0    0  0.38716863265E+02  0.54726676300E+02  0.84888089110E+02  0.10816650254E+03  0.00000000000E+00 0. -1.
         22    1    3    3    0    0 -0.35805460278E+02  0.53591096719E+01 -0.23895544447E+02  0.43379120399E+02  0.00000000000E+00 0. -1.
</event>
<event>
 7    1  0.5889087E-006  0.1911642E+03  0.7818608E-02  0.1240504E+00
          2   -1    0    0  502    0  0.00000000000E+00  0.00000000000E+00  0.13104879097E+03  0.13104879097E+03  0.00000000000E+00 0. -1.
          1   -1    0    0  501    0 -0.00000000000E+00 -0.00000000000E+00 -0.37359010278E+04  0.37359010278E+04  0.00000000000E+00 0. -1.
         25    2    1    2    0    0  0.37062827956E+01  0.13310104539E+03 -0.48695270382E+03  0.52007624339E+03  0.12500695330E+03 0.  0.
          2    1    1    2  501    0 -0.41415629628E+02  0.65306836420E+02 -0.31424730877E+04  0.31434244613E+04  0.00000000000E+00 0. -1.
          1    1    1    2  502    0  0.37709346832E+02 -0.19840788181E+03  0.24573554707E+02  0.20344911401E+03  0.00000000000E+00 0. -1.
         22    1    3    3    0    0  0.13563802409E+02  0.11254722617E+03 -0.18297952722E+03  0.21524953481E+03  0.00000000000E+00 0.  1.
         22    1    3    3    0    0 -0.98575196136E+01  0.20553819223E+02 -0.30397317660E+03  0.30482670859E+03  0.00000000000E+00 0.  1.
</event>
<event>
 7    1  0.5889087E-006  0.1458305E+03  0.7818608E-02  0.1352940E+00
          2   -1    0    0  502    0  0.00000000000E+00  0.00000000000E+00  0.26290553194E+04  0.26290553194E+04  0.00000000000E+00 0. -1.
          1   -1    0    0  501    0 -0.00000000000E+00 -0.00000000000E+00 -0.86180750024E+02  0.86180750024E+02  0.00000000000E+00 0. -1.
         25    2    1    2    0    0 -0.11108687546E+03 -0.47454421649E+02  0.49927418432E+03  0.52867040682E+03  0.12500188753E+03 0.  0.
          2    1    1    2  501    0 -0.34536170416E+02  0.90156430975E+01 -0.64165821761E+02  0.73425346916E+02  0.00000000000E+00 0. -1.
          1    1    1    2  502    0  0.14562304587E+03  0.38438778551E+02  0.21077662068E+04  0.21131403157E+04  0.00000000000E+00 0. -1.
         22    1    3    3    0    0  0.11118021983E+02  0.11911676783E+02  0.65550041708E+01  0.17563215431E+02  0.00000000000E+00 0. -1.
         22    1    3    3    0    0 -0.12220489744E+03 -0.59366098432E+02  0.49271918015E+03  0.51110719138E+03  0.00000000000E+00 0. -1.
</event>
<event>
 7    1  0.5889204E-006  0.9528539E+02  0.7818608E-02  0.1351999E+00
          2   -1    0    0  502    0  0.00000000000E+00  0.00000000000E+00  0.72772056731E+03  0.72772056731E+03  0.00000000000E+00 0. -1.
          1   -1    0    0  501    0 -0.00000000000E+00 -0.00000000000E+00 -0.33057832219E+04  0.33057832219E+04  0.00000000000E+00 0. -1.
         25    2    1    2    0    0 -0.14620505374E+03 -0.25183455242E+02 -0.59092481158E+03  0.62195443696E+03  0.12500025824E+03 0.  0.
          2    1    1    2  501    0  0.51338041847E+02  0.19917582612E+02 -0.26958923334E+04  0.26964546683E+04  0.00000000000E+00 0. -1.
          1    1    1    2  502    0  0.94867011896E+02  0.52658726295E+01  0.70875449042E+03  0.71509468398E+03  0.00000000000E+00 0. -1.
         22    1    3    3    0    0 -0.16698267240E+03 -0.11988943638E+02 -0.48079817935E+03  0.50911082970E+03  0.00000000000E+00 0.  1.
         22    1    3    3    0    0  0.20777618660E+02 -0.13194511603E+02 -0.11012663223E+03  0.11284360726E+03  0.00000000000E+00 0.  1.
</event>
<event>
 7    1  0.5889087E-006  0.4924911E+02  0.7818608E-02  0.1480953E+00
          2   -1    0    0  502    0  0.00000000000E+00  0.00000000000E+00  0.16482235578E+04  0.16482235578E+04  0.00000000000E+00 0. -1.
          1   -1    0    0  501    0 -0.00000000000E+00 -0.00000000000E+00 -0.56028328556E+02  0.56028328556E+02  0.00000000000E+00 0. -1.
         25    2    1    2    0    0 -0.35902052026E+01 -0.17781646063E+02  0.59361788149E+03  0.60690709948E+03  0.12499984665E+03 0.  0.
          2    1    1    2  501    0  0.41486148409E+02  0.27946333557E+02 -0.36249255328E+02  0.61774643511E+02  0.00000000000E+00 0. -1.
          1    1    1    2  502    0 -0.37895943206E+02 -0.10164687494E+02  0.10348266030E+04  0.10355701433E+04  0.00000000000E+00 0. -1.
         22    1    3    3    0    0  0.34439898288E+01 -0.27225691393E+02  0.22011994012E+02  0.35179926353E+02  0.00000000000E+00 0. -1.
         22    1    3    3    0    0 -0.70341950314E+01  0.94440453301E+01  0.57160588748E+03  0.57172717313E+03  0.00000000000E+00 0. -1.
</event>
<event>
 7    1  0.5889087E-006  0.3676926E+02  0.7818608E-02  0.1575225E+00
          2   -1    0    0  502    0  0.00000000000E+00  0.00000000000E+00  0.63766354053E+03  0.63766354053E+03  0.00000000000E+00 0. -1.
          1   -1    0    0  501    0 -0.00000000000E+00 -0.00000000000E+00 -0.50785688194E+03  0.50785688194E+03  0.00000000000E+00 0. -1.
         25    2    1    2    0    0  0.13156570476E+02  0.53926652641E+02 -0.12343393806E+03  0.18423064812E+03  0.12499526163E+03 0.  0.
          2    1    1    2  501    0  0.80900132602E+01 -0.35454261028E+02 -0.35276303392E+03  0.35463250139E+03  0.00000000000E+00 0. -1.
          1    1    1    2  502    0 -0.21246583736E+02 -0.18472391613E+02  0.60600363057E+03  0.60665727296E+03  0.00000000000E+00 0. -1.
         22    1    3    3    0    0  0.61934851378E+02  0.61359704478E+02 -0.84021107519E+02  0.12108049247E+03  0.00000000000E+00 0.  1.
         22    1    3    3    0    0 -0.48778280902E+02 -0.74330518372E+01 -0.39412830542E+02  0.63150155650E+02  0.00000000000E+00 0.  1.
</event>
<event>
 7    1  0.5889087E-006  0.7281314E+02  0.7818608E-02  0.1456689E+00
          2   -1    0    0  502    0  0.00000000000E+00  0.00000000000E+00  0.75043334423E+02  0.75043334423E+02  0.00000000000E+00 0. -1.
          1   -1    0    0  501    0 -0.00000000000E+00 -0.00000000000E+00 -0.18042475589E+04  0.18042475589E+04  0.00000000000E+00 0. -1.
         25    2    1    2    0    0 -0.97242068118E+02 -0.21345441725E+02 -0.56655033660E+03  0.58865242466E+03  0.12498298070E+03 0.  0.
          2    1    1    2  501    0  0.70273207432E+02  0.49055258614E+01 -0.12216714325E+04  0.12237007301E+04  0.00000000000E+00 0. -1.
          1    1    1    2  502    0  0.26968860685E+02  0.16439915863E+02  0.59017544583E+02  0.66937738600E+02  0.00000000000E+00 0. -1.
         22    1    3    3    0    0 -0.32179600684E+02 -0.20784900062E+02 -0.47385558220E+03  0.47540156873E+03  0.00000000000E+00 0. -1.
         22    1    3    3    0    0 -0.65062467433E+02 -0.56054166261E+00 -0.92694754400E+02  0.11325085593E+03  0.00000000000E+00 0. -1.
</event>
<event>
 7    1  0.5889087E-006  0.1374183E+03  0.7818608E-02  0.1271874E+00
          2   -1    0    0  502    0  0.00000000000E+00  0.00000000000E+00  0.49340528509E+03  0.49340528509E+03  0.00000000000E+00 0. -1.
          1   -1    0    0  501    0 -0.00000000000E+00 -0.00000000000E+00 -0.13474112378E+03  0.13474112378E+03  0.00000000000E+00 0. -1.
         25    2    1    2    0    0 -0.95300478828E+02  0.96733430451E+02  0.61327560414E+02  0.19448626685E+03  0.12499720195E+03 0.  0.
          2    1    1    2  501    0  0.14329453886E+03 -0.34131568416E+02  0.24096200384E+02  0.14926123308E+03  0.00000000000E+00 0. -1.
          1    1    1    2  502    0 -0.47994060030E+02 -0.62601862035E+02  0.27324040051E+03  0.28439890893E+03  0.00000000000E+00 0. -1.
         22    1    3    3    0    0 -0.33653735222E+02 -0.28145859321E+02  0.25262896498E+02  0.50625855358E+02  0.00000000000E+00 0.  1.
         22    1    3    3    0    0 -0.61646743606E+02  0.12487928977E+03  0.36064663916E+02  0.14386041149E+03  0.00000000000E+00 0.  1.
</event>
<event>
 7    1  0.5889087E-006  0.1666761E+03  0.7818608E-02  0.1290494E+00
          2   -1    0    0  502    0  0.00000000000E+00  0.00000000000E+00  0.20990562543E+04  0.20990562543E+04  0.00000000000E+00 0. -1.
          1   -1    0    0  501    0 -0.00000000000E+00 -0.00000000000E+00 -0.17303603220E+04  0.17303603220E+04  0.00000000000E+00 0. -1.
         25    2    1    2    0    0  0.16776052089E+03  0.11806793700E+03  0.27901075104E+02  0.24184024862E+03  0.12499842297E+03 0.  0.
          2    1    1    2  501    0 -0.15908693895E+02 -0.52119408398E+02 -0.16194431417E+04  0.16203597158E+04  0.00000000000E+00 0. -1.
          1    1    1    2  502    0 -0.15185182700E+03 -0.65948528602E+02  0.19602379989E+04  0.19672166119E+04  0.00000000000E+00 0. -1.
         22    1    3    3    0    0  0.34600595959E+02  0.91614874051E+02 -0.15844115060E+02  0.99204447330E+02  0.00000000000E+00 0.  1.
         22    1    3    3    0    0  0.13315992494E+03  0.26453062949E+02  0.43745190165E+02  0.14263580129E+03  0.00000000000E+00 0.  1.
</event>
<event>
 7    1  0.5889087E-006  0.3269341E+02  0.7818608E-02  0.1612900E+00
          2   -1    0    0  502    0  0.00000000000E+00  0.00000000000E+00  0.10820847906E+04  0.10820847906E+04  0.00000000000E+00 0. -1.
          1   -1    0    0  501    0 -0.00000000000E+00 -0.00000000000E+00 -0.25447643486E+02  0.25447643486E+02  0.00000000000E+00 0. -1.
         25    2    1    2    0    0 -0.10239010539E+02 -0.26590121546E+02  0.23267416957E+03  0.26565521048E+03  0.12499419894E+03 0.  0.
          2    1    1    2  501    0 -0.20491707281E+02  0.14662592881E+02  0.97823411793E+01  0.27029537477E+02  0.00000000000E+00 0. -1.
          1    1    1    2  502    0  0.30730717820E+02  0.11927528665E+02  0.81418063640E+03  0.81484768617E+03  0.00000000000E+00 0. -1.
         22    1    3    3    0    0  0.63090085154E+01 -0.58101177427E+02  0.42710518994E+02  0.72386040364E+02  0.00000000000E+00 0. -1.
         22    1    3    3    0    0 -0.16548019054E+02  0.31511055880E+02  0.18996365058E+03  0.19326917012E+03  0.00000000000E+00 0. -1.
</event>
<event>
 7    1  0.5889087E-006  0.3294830E+02  0.7818608E-02  0.1598370E+00
          2   -1    0    0  502    0  0.00000000000E+00  0.00000000000E+00  0.11530943573E+04  0.11530943573E+04  0.00000000000E+00 0. -1.
          1   -1    0    0  501    0 -0.00000000000E+00 -0.00000000000E+00 -0.12744607530E+04  0.12744607530E+04  0.00000000000E+00 0. -1.
         25    2    1    2    0    0  0.65331926798E+00  0.15235181926E+02 -0.57027307487E+03  0.58401049159E+03  0.12499734707E+03 0.  0.
          2    1    1    2  501    0 -0.26849661577E+02  0.47647531345E+01 -0.69681531094E+03  0.69734868234E+03  0.00000000000E+00 0. -1.
          1    1    1    2  502    0  0.26196342309E+02 -0.19999935061E+02  0.11457219901E+04  0.11461959363E+04  0.00000000000E+00 0. -1.
         22    1    3    3    0    0  0.51932087523E+02 -0.82299239264E+01 -0.13140672611E+03  0.14153586482E+03  0.00000000000E+00 0.  1.
         22    1    3    3    0    0 -0.51278768256E+02  0.23465105852E+02 -0.43886634876E+03  0.44247462677E+03  0.00000000000E+00 0.  1.
</event>
<event>
 7    1  0.5889087E-006  0.4621164E+02  0.7818608E-02  0.1473916E+00
          2   -1    0    0  502    0  0.00000000000E+00  0.00000000000E+00  0.20004817350E+03  0.20004817350E+03  0.00000000000E+00 0. -1.
          1   -1    0    0  501    0 -0.00000000000E+00 -0.00000000000E+00 -0.26611331783E+04  0.26611331783E+04  0.00000000000E+00 0. -1.
         25    2    1    2    0    0  0.43189563315E+02  0.37285390506E+02 -0.84708699118E+03  0.85816004091E+03  0.12500698563E+03 0.  0.
          2    1    1    2  501    0 -0.46163914397E+02  0.65671613958E+01 -0.18057218400E+04  0.18063237800E+04  0.00000000000E+00 0. -1.
          1    1    1    2  502    0  0.29743510819E+01 -0.43852551902E+02  0.19172382638E+03  0.19669753094E+03  0.00000000000E+00 0. -1.
         22    1    3    3    0    0  0.23258032650E+02 -0.24481955391E+02 -0.63771557183E+02  0.72160333481E+02  0.00000000000E+00 0. -1.
         22    1    3    3    0    0  0.19931530665E+02  0.61767345897E+02 -0.78331543400E+03  0.78599970743E+03  0.00000000000E+00 0. -1.
</event>
<event>
 7    1  0.5889087E-006  0.5520085E+02  0.7818608E-02  0.1476429E+00
          2   -1    0    0  502    0  0.00000000000E+00  0.00000000000E+00  0.19650786419E+03  0.19650786419E+03  0.00000000000E+00 0. -1.
          1   -1    0    0  501    0 -0.00000000000E+00 -0.00000000000E+00 -0.69823417878E+03  0.69823417878E+03  0.00000000000E+00 0. -1.
         25    2    1    2    0    0  0.22566763466E+02 -0.14943289229E+02 -0.90331881429E+02  0.15657448516E+03  0.12499263936E+03 0.  0.
          2    1    1    2  501    0 -0.24330527060E+02  0.51044200127E+02 -0.57136921784E+03  0.57416048977E+03  0.00000000000E+00 0. -1.
          1    1    1    2  502    0  0.17637635934E+01 -0.36100910898E+02  0.15997478468E+03  0.16400706803E+03  0.00000000000E+00 0. -1.
         22    1    3    3    0    0  0.16947454445E+02  0.35278510933E+02 -0.97939316266E+02  0.10546989721E+03  0.00000000000E+00 0. -1.
         22    1    3    3    0    0  0.56193090213E+01 -0.50221800163E+02  0.76074348367E+01  0.51104587957E+02  0.00000000000E+00 0. -1.
</event>
<event>
 7    1  0.5889087E-006  0.1377887E+03  0.7818608E-02  0.1362057E+00
          2   -1    0    0  502    0  0.00000000000E+00  0.00000000000E+00  0.14611919368E+03  0.14611919368E+03  0.00000000000E+00 0. -1.
          1   -1    0    0  501    0 -0.00000000000E+00 -0.00000000000E+00 -0.21936094393E+04  0.21936094393E+04  0.00000000000E+00 0. -1.
         25    2    1    2    0    0  0.11235771506E+03  0.12098597240E+03 -0.28742854098E+03  0.35426182592E+03  0.12499765391E+03 0.  0.
          2    1    1    2  501    0 -0.10442270936E+03 -0.86917162911E+02 -0.18675214066E+04  0.18724569153E+04  0.00000000000E+00 0. -1.
          1    1    1    2  502    0 -0.79350056939E+01 -0.34068809493E+02  0.10745970196E+03  0.11300989178E+03  0.00000000000E+00 0. -1.
         22    1    3    3    0    0  0.16916383946E+02  0.10357299510E+03 -0.10993543665E+03  0.15198463604E+03  0.00000000000E+00 0. -1.
         22    1    3    3    0    0  0.95441331110E+02  0.17412977305E+02 -0.17749310433E+03  0.20227718988E+03  0.00000000000E+00 0. -1.
</event>
<event>
 7    1  0.5889087E-006  0.1004088E+03  0.7818608E-02  0.1430704E+00
          2   -1    0    0  502    0  0.00000000000E+00  0.00000000000E+00  0.64088957045E+03  0.64088957045E+03  0.00000000000E+00 0. -1.
          1   -1    0    0  501    0 -0.00000000000E+00 -0.00000000000E+00 -0.36329357161E+03  0.36329357161E+03  0.00000000000E+00 0. -1.
         25    2    1    2    0    0 -0.67578739016E+02  0.74244230776E+02 -0.22898512273E+03  0.27953361747E+03  0.12500306034E+03 0.  0.
          2    1    1    2  501    0  0.22894817308E+02  0.15742436096E+02 -0.10308322002E+03  0.10676210565E+03  0.00000000000E+00 0. -1.
          1    1    1    2  502    0  0.44683921709E+02 -0.89986666872E+02  0.60966434159E+03  0.61788741893E+03  0.00000000000E+00 0. -1.
         22    1    3    3    0    0 -0.57293628486E+02  0.46522669699E+02 -0.23754948830E+03  0.24875023226E+03  0.00000000000E+00 0. -1.
         22    1    3    3    0    0 -0.10285110530E+02  0.27721561077E+02  0.85643655669E+01  0.30783385206E+02  0.00000000000E+00 0. -1.
</event>
<event>
 7    1  0.5889087E-006  0.1608851E+03  0.7818608E-02  0.1329720E+00
          2   -1    0    0  502    0  0.00000000000E+00  0.00000000000E+00  0.58518341438E+03  0.58518341438E+03  0.00000000000E+00 0. -1.
          1   -1    0    0  501    0 -0.00000000000E+00 -0.00000000000E+00 -0.12452144052E+04  0.12452144052E+04  0.00000000000E+00 0. -1.
         25    2    1    2    0    0  0.13380878222E+03 -0.11156617980E+03  0.25077158400E+03  0.32994324020E+03  0.12499740691E+03 0.  0.
          2    1    1    2  501    0 -0.38078355230E+02 -0.10675091373E+02 -0.11848338588E+04  0.11854936490E+04  0.00000000000E+00 0. -1.
          1    1    1    2  502    0 -0.95730426985E+02  0.12224127117E+03  0.27403128404E+03  0.31496093038E+03  0.00000000000E+00 0. -1.
         22    1    3    3    0    0  0.10086761215E+03 -0.96566364843E+02  0.92293032614E+02  0.16738381603E+03  0.00000000000E+00 0. -1.
         22    1    3    3    0    0  0.32941170060E+02 -0.14999814955E+02  0.15847855139E+03  0.16255942416E+03  0.00000000000E+00 0. -1.
</event>
<event>
 7    1  0.5889087E-006  0.4283787E+02  0.7818608E-02  0.1529625E+00
          2   -1    0    0  502    0  0.00000000000E+00  0.00000000000E+00  0.29782168780E+03  0.29782168780E+03  0.00000000000E+00 0. -1.
          1   -1    0    0  501    0 -0.00000000000E+00 -0.00000000000E+00 -0.19306550488E+03  0.19306550488E+03  0.00000000000E+00 0. -1.
         25    2    1    2    0    0 -0.31997403863E+02 -0.60263845296E+02  0.88063475979E+02  0.16743890295E+03  0.12500018206E+03 0.  0.
          2    1    1    2  501    0  0.26003494857E+02  0.19261975356E+02 -0.14909192885E+03  0.15256345790E+03  0.00000000000E+00 0. -1.
          1    1    1    2  502    0  0.59939090063E+01  0.41001869940E+02  0.16578463580E+03  0.17088483183E+03  0.00000000000E+00 0. -1.
         22    1    3    3    0    0  0.57801545994E+01 -0.92162230095E+02  0.64698642915E+02  0.11275283251E+03  0.00000000000E+00 0. -1.
         22    1    3    3    0    0 -0.37777558462E+02  0.31898384799E+02  0.23364833065E+02  0.54686070441E+02  0.00000000000E+00 0. -1.
</event>
<event>
 7    1  0.5889087E-006  0.1910674E+03  0.7818608E-02  0.1360938E+00
          2   -1    0    0  502    0  0.00000000000E+00  0.00000000000E+00  0.26594860327E+04  0.26594860327E+04  0.00000000000E+00 0. -1.
          1   -1    0    0  501    0 -0.00000000000E+00 -0.00000000000E+00 -0.18481329133E+03  0.18481329133E+03  0.00000000000E+00 0. -1.
         25    2    1    2    0    0  0.52451507877E+01 -0.20643949715E+03  0.68484248901E+02  0.25091831058E+03  0.12500051458E+03 0.  0.
          2    1    1    2  501    0 -0.19415970716E+02  0.16475355897E+02 -0.88162744016E+02  0.91766479191E+02  0.00000000000E+00 0. -1.
          1    1    1    2  502    0  0.14170819928E+02  0.18996414125E+03  0.24943512365E+04  0.25016145343E+04  0.00000000000E+00 0. -1.
         22    1    3    3    0    0  0.36260269408E+02 -0.66745999064E+02  0.76229164031E+02  0.10761375831E+03  0.00000000000E+00 0. -1.
         22    1    3    3    0    0 -0.31015118620E+02 -0.13969349809E+03 -0.77449151305E+01  0.14330455227E+03  0.00000000000E+00 0. -1.
</event>
<event>
 7    1  0.5889087E-006  0.5423643E+02  0.7818608E-02  0.1432245E+00
          2   -1    0    0  502    0  0.00000000000E+00  0.00000000000E+00  0.55915820567E+03  0.55915820567E+03  0.00000000000E+00 0. -1.
          1   -1    0    0  501    0 -0.00000000000E+00 -0.00000000000E+00 -0.33018829627E+03  0.33018829627E+03  0.00000000000E+00 0. -1.
         25    2    1    2    0    0 -0.75130057251E+01 -0.80589930851E+01  0.29296797471E+03  0.31870968139E+03  0.12499693669E+03 0.  0.
          2    1    1    2  501    0 -0.52660303561E+02 -0.12980109974E+02 -0.31092221704E+03  0.31561719832E+03  0.00000000000E+00 0. -1.
          1    1    1    2  502    0  0.60173309286E+02  0.21039103059E+02  0.24692415173E+03  0.25501962222E+03  0.00000000000E+00 0. -1.
         22    1    3    3    0    0 -0.14982541824E+02 -0.65034122493E+02  0.17985280770E+03  0.19183572682E+03  0.00000000000E+00 0. -1.
         22    1    3    3    0    0  0.74695360986E+01  0.56975129408E+02  0.11311516701E+03  0.12687395457E+03  0.00000000000E+00 0. -1.
</event>
<event>
 7    1  0.5889087E-006  0.1786988E+03  0.7818608E-02  0.1250371E+00
          2   -1    0    0  502    0  0.00000000000E+00  0.00000000000E+00  0.14351048876E+04  0.14351048876E+04  0.00000000000E+00 0. -1.
          1   -1    0    0  501    0 -0.00000000000E+00 -0.00000000000E+00 -0.55357772039E+03  0.55357772039E+03  0.00000000000E+00 0. -1.
         25    2    1    2    0    0 -0.19494629907E+03 -0.68654762480E+02  0.24467379160E+03  0.34381364917E+03  0.12500010050E+03 0.  0.
          2    1    1    2  501    0  0.13591024825E+03  0.11475970521E+03 -0.48702725267E+03  0.51849487014E+03  0.00000000000E+00 0. -1.
          1    1    1    2  502    0  0.59036050818E+02 -0.46104942732E+02  0.11238806283E+04  0.11263740887E+04  0.00000000000E+00 0. -1.
         22    1    3    3    0    0 -0.14306344805E+03  0.89645591319E+01  0.18062885755E+03  0.23059552829E+03  0.00000000000E+00 0. -1.
         22    1    3    3    0    0 -0.51882851016E+02 -0.77619321612E+02  0.64044934058E+02  0.11321812088E+03  0.00000000000E+00 0. -1.
</event>
<event>
 7    1  0.5889087E-006  0.1449037E+03  0.7818608E-02  0.1389618E+00
          2   -1    0    0  502    0  0.00000000000E+00  0.00000000000E+00  0.18846060173E+03  0.18846060173E+03  0.00000000000E+00 0. -1.
          1   -1    0    0  501    0 -0.00000000000E+00 -0.00000000000E+00 -0.13284175779E+04  0.13284175779E+04  0.00000000000E+00 0. -1.
         25    2    1    2    0    0  0.78546667448E+02  0.13535912321E+03 -0.51803606505E+03  0.55540757357E+03  0.12499814752E+03 0.  0.
          2    1    1    2  501    0 -0.26519772296E+02 -0.71750104588E+00 -0.76074211392E+03  0.76120455662E+03  0.00000000000E+00 0. -1.
          1    1    1    2  502    0 -0.52026895152E+02 -0.13464162216E+03  0.13882120276E+03  0.20026604948E+03  0.00000000000E+00 0. -1.
         22    1    3    3    0    0  0.78973327856E+02  0.11608678692E+03 -0.51740899436E+03  0.53612031864E+03  0.00000000000E+00 0.  1.
         22    1    3    3    0    0 -0.42666040799E+00  0.19272336294E+02 -0.62707069083E+00  0.19287254937E+02  0.00000000000E+00 0.  1.
</event>
<event>
 7    1  0.5889087E-006  0.6850093E+02  0.7818608E-02  0.1407017E+00
          2   -1    0    0  502    0  0.00000000000E+00  0.00000000000E+00  0.63631640432E+02  0.63631640432E+02  0.00000000000E+00 0. -1.
          1   -1    0    0  501    0 -0.00000000000E+00 -0.00000000000E+00 -0.66162655404E+03  0.66162655404E+03  0.00000000000E+00 0. -1.
         25    2    1    2    0    0  0.24865461121E+02 -0.34047543425E+02 -0.11717740356E+03  0.17644704608E+03  0.12500195917E+03 0.  0.
          2    1    1    2  501    0  0.66906896090E+01  0.71376767407E+02 -0.49320326786E+03  0.49838626754E+03  0.00000000000E+00 0. -1.
          1    1    1    2  502    0 -0.31556150730E+02 -0.37329223982E+02  0.12385757806E+02  0.50424880847E+02  0.00000000000E+00 0. -1.
         22    1    3    3    0    0 -0.36115825058E+02 -0.14387271930E+02  0.42948860497E+01  0.39112561402E+02  0.00000000000E+00 0.  1.
         22    1    3    3    0    0  0.60981286179E+02 -0.19660271495E+02 -0.12147228961E+03  0.13733448468E+03  0.00000000000E+00 0.  1.
</event>
<event>
 7    1  0.5889087E-006  0.8791934E+02  0.7818608E-02  0.1361685E+00
          2   -1    0    0  502    0  0.00000000000E+00  0.00000000000E+00  0.10965287013E+04  0.10965287013E+04  0.00000000000E+00 0. -1.
          1   -1    0    0  501    0 -0.00000000000E+00 -0.00000000000E+00 -0.52850626700E+02  0.52850626700E+02  0.00000000000E+00 0. -1.
         25    2    1    2    0    0  0.23992508941E+02 -0.79841628850E+02  0.18302655247E+03  0.23679925510E+03  0.12499936848E+03 0.  0.
          2    1    1    2  501    0  0.48146046793E+02  0.26574816012E+02  0.84086411641E+01  0.55632435809E+02  0.00000000000E+00 0. -1.
          1    1    1    2  502    0 -0.72138555734E+02  0.53266812839E+02  0.85224288097E+03  0.85694763711E+03  0.00000000000E+00 0. -1.
         22    1    3    3    0    0  0.68352147791E+02 -0.59583819208E+02  0.72861108423E+02  0.11632277825E+03  0.00000000000E+00 0. -1.
         22    1    3    3    0    0 -0.44359638849E+02 -0.20257809642E+02  0.11016544405E+03  0.12047647685E+03  0.00000000000E+00 0. -1.
</event>
<event>
 7    1  0.5889087E-006  0.1210399E+03  0.7818608E-02  0.1438712E+00
          2   -1    0    0  502    0  0.00000000000E+00  0.00000000000E+00  0.97628404967E+02  0.97628404967E+02  0.00000000000E+00 0. -1.
          1   -1    0    0  501    0 -0.00000000000E+00 -0.00000000000E+00 -0.12746033108E+04  0.12746033108E+04  0.00000000000E+00 0. -1.
         25    2    1    2    0    0 -0.25361305812E+02  0.12165706272E+03 -0.34126626358E+03  0.38409721073E+03  0.12499747152E+03 0.  0.
          2    1    1    2  501    0 -0.19524979071E+02 -0.94697432995E+01 -0.86380485010E+03  0.86407738074E+03  0.00000000000E+00 0. -1.
          1    1    1    2  502    0  0.44886284884E+02 -0.11218731942E+03  0.28096207805E+02  0.12405712435E+03  0.00000000000E+00 0. -1.
         22    1    3    3    0    0  0.43848272297E+02  0.36493235206E+02 -0.63091043833E+02  0.85058256573E+02  0.00000000000E+00 0.  1.
         22    1    3    3    0    0 -0.69209578109E+02  0.85163827511E+02 -0.27817521975E+03  0.29903895415E+03  0.00000000000E+00 0.  1.
</event>
<event>
 7    1  0.5889087E-006  0.7622621E+02  0.7818608E-02  0.1395141E+00
          2   -1    0    0  502    0  0.00000000000E+00  0.00000000000E+00  0.74156379293E+02  0.74156379293E+02  0.00000000000E+00 0. -1.
          1   -1    0    0  501    0 -0.00000000000E+00 -0.00000000000E+00 -0.10348174976E+04  0.10348174976E+04  0.00000000000E+00 0. -1.
         25    2    1    2    0    0 -0.20524429728E+02  0.61813716945E+02 -0.32031165205E+02  0.14454377009E+03  0.12499887243E+03 0.  0.
          2    1    1    2  501    0 -0.47146997161E+02  0.10258966153E+02 -0.80354889301E+03  0.80499621687E+03  0.00000000000E+00 0. -1.
          1    1    1    2  502    0  0.67671426889E+02 -0.72072683098E+02 -0.12508106011E+03  0.15943388995E+03  0.00000000000E+00 0. -1.
         22    1    3    3    0    0 -0.51719104399E+02  0.81501720178E+02 -0.13054430078E+01  0.96535487429E+02  0.00000000000E+00 0.  1.
         22    1    3    3    0    0  0.31194674670E+02 -0.19688003232E+02 -0.30725722197E+02  0.48008282656E+02  0.00000000000E+00 0.  1.
</event>
<event>
 7    1  0.5889087E-006  0.7682854E+02  0.7818608E-02  0.1458549E+00
          2   -1    0    0  502    0  0.00000000000E+00  0.00000000000E+00  0.10554424025E+04  0.10554424025E+04  0.00000000000E+00 0. -1.
          1   -1    0    0  501    0 -0.00000000000E+00 -0.00000000000E+00 -0.66056191136E+03  0.66056191136E+03  0.00000000000E+00 0. -1.
         25    2    1    2    0    0 -0.76645320639E+02 -0.47930694255E+02 -0.12652906544E+03  0.19950705270E+03  0.12498641146E+03 0.  0.
          2    1    1    2  501    0  0.73772552204E+02  0.18540016356E+02 -0.49442068196E+03  0.50023787583E+03  0.00000000000E+00 0. -1.
          1    1    1    2  502    0  0.28727684345E+01  0.29390677899E+02  0.10158302386E+04  0.10162593854E+04  0.00000000000E+00 0. -1.
         22    1    3    3    0    0  0.32405825758E+02 -0.20272051766E+02 -0.14917072406E+02  0.41031849520E+02  0.00000000000E+00 0. -1.
         22    1    3    3    0    0 -0.10905114640E+03 -0.27658642488E+02 -0.11161199303E+03  0.15847520318E+03  0.00000000000E+00 0. -1.
</event>
<event>
 7    1  0.5889087E-006  0.5277324E+02  0.7818608E-02  0.1446825E+00
          2   -1    0    0  502    0  0.00000000000E+00  0.00000000000E+00  0.28157036922E+04  0.28157036922E+04  0.00000000000E+00 0. -1.
          1   -1    0    0  501    0 -0.00000000000E+00 -0.00000000000E+00 -0.46837479653E+02  0.46837479653E+02  0.00000000000E+00 0. -1.
         25    2    1    2    0    0 -0.76554478380E+00  0.60160062023E+02  0.38685599584E+03  0.41097719004E+03  0.12499948036E+03 0.  0.
          2    1    1    2  501    0  0.39993486300E+02 -0.24410864469E+02 -0.18567515302E+02  0.50399621775E+02  0.00000000000E+00 0. -1.
          1    1    1    2  502    0 -0.39227941516E+02 -0.35749197554E+02  0.24005777320E+04  0.24011643600E+04  0.00000000000E+00 0. -1.
         22    1    3    3    0    0 -0.21724534357E+02 -0.33799492187E+02  0.15041940813E+03  0.15569315787E+03  0.00000000000E+00 0.  1.
         22    1    3    3    0    0  0.20958989573E+02  0.93959554209E+02  0.23643658772E+03  0.25528403217E+03  0.00000000000E+00 0.  1.
</event>
<event>
 7    1  0.5889087E-006  0.7623718E+02  0.7818608E-02  0.1494993E+00
          2   -1    0    0  502    0  0.00000000000E+00  0.00000000000E+00  0.20327862526E+03  0.20327862526E+03  0.00000000000E+00 0. -1.
          1   -1    0    0  501    0 -0.00000000000E+00 -0.00000000000E+00 -0.29023744028E+04  0.29023744028E+04  0.00000000000E+00 0. -1.
         25    2    1    2    0    0  0.81448690508E+02  0.81505946179E+01 -0.27178873243E+02  0.15187024092E+03  0.12500223018E+03 0.  0.
          2    1    1    2  501    0 -0.74941599755E+02  0.13886830122E+02 -0.28113933306E+04  0.28124262740E+04  0.00000000000E+00 0. -1.
          1    1    1    2  502    0 -0.65070907530E+01 -0.22037424740E+02  0.13947642628E+03  0.14135651314E+03  0.00000000000E+00 0. -1.
         22    1    3    3    0    0 -0.27899448283E+01 -0.32110711458E+02 -0.46449194874E+02  0.56536795868E+02  0.00000000000E+00 0.  1.
         22    1    3    3    0    0  0.84238635336E+02  0.40261306076E+02  0.19270321632E+02  0.95333445055E+02  0.00000000000E+00 0.  1.
</event>
<event>
 7    1  0.5889087E-006  0.5925238E+02  0.7818608E-02  0.1458732E+00
          2   -1    0    0  502    0  0.00000000000E+00  0.00000000000E+00  0.35352988295E+04  0.35352988295E+04  0.00000000000E+00 0. -1.
          1   -1    0    0  501    0 -0.00000000000E+00 -0.00000000000E+00 -0.65569821592E+02  0.65569821592E+02  0.00000000000E+00 0. -1.
         25    2    1    2    0    0  0.19347055537E+02 -0.10896523632E+02  0.12571543491E+03  0.17866812716E+03  0.12499954521E+03 0.  0.
          2    1    1    2  501    0  0.25101521973E+02 -0.28847714941E+02 -0.29415415009E+02  0.48244623564E+02  0.00000000000E+00 0. -1.
          1    1    1    2  502    0 -0.44448577509E+02  0.39744238573E+02  0.33734289880E+04  0.33739559004E+04  0.00000000000E+00 0. -1.
         22    1    3    3    0    0 -0.13793881404E+02 -0.62035461551E+02  0.81648514337E+02  0.10346569261E+03  0.00000000000E+00 0.  1.
         22    1    3    3    0    0  0.33140936941E+02  0.51138937919E+02  0.44066920576E+02  0.75202434547E+02  0.00000000000E+00 0.  1.
</event>
<event>
 7    1  0.5889087E-006  0.1095104E+03  0.7818608E-02  0.1416925E+00
          2   -1    0    0  502    0  0.00000000000E+00  0.00000000000E+00  0.94592327612E+03  0.94592327612E+03  0.00000000000E+00 0. -1.
          1   -1    0    0  501    0 -0.00000000000E+00 -0.00000000000E+00 -0.35010233874E+02  0.35010233874E+02  0.00000000000E+00 0. -1.
         25    2    1    2    0    0 -0.84894451627E+02 -0.35289989929E+02  0.58025448453E+03  0.60064356815E+03  0.12499991135E+03 0.  0.
          2    1    1    2  501    0  0.95837462813E+02  0.61396209358E+02  0.11157114216E+03  0.15938140910E+03  0.00000000000E+00 0. -1.
          1    1    1    2  502    0 -0.10943011186E+02 -0.26106219429E+02  0.21908741555E+03  0.22090853274E+03  0.00000000000E+00 0. -1.
         22    1    3    3    0    0 -0.52946651271E+02  0.21860011225E+02  0.46145413019E+03  0.46499583035E+03  0.00000000000E+00 0. -1.
         22    1    3    3    0    0 -0.31947800356E+02 -0.57150001155E+02  0.11880035434E+03  0.13564773780E+03  0.00000000000E+00 0. -1.
</event>
<event>
 7    1  0.5889087E-006  0.9908527E+02  0.7818608E-02  0.1283682E+00
          2   -1    0    0  502    0  0.00000000000E+00  0.00000000000E+00  0.12298137385E+04  0.12298137385E+04  0.00000000000E+00 0. -1.
          1   -1    0    0  501    0 -0.00000000000E+00 -0.00000000000E+00 -0.13615357065E+04  0.13615357065E+04  0.00000000000E+00 0. -1.
         25    2    1    2    0    0  0.11311348800E+02 -0.65294550699E+01  0.19711845301E+03  0.23377607406E+03  0.12499995157E+03 0.  0.
          2    1    1    2  501    0  0.79584406346E+02 -0.59027216833E+02 -0.13382742874E+04  0.13419373899E+04  0.00000000000E+00 0. -1.
          1    1    1    2  502    0 -0.90895755146E+02  0.65556671903E+02  0.10094338663E+04  0.10156359811E+04  0.00000000000E+00 0. -1.
         22    1    3    3    0    0 -0.39120735531E+01 -0.56229041696E+02  0.42320489175E+02  0.70484276641E+02  0.00000000000E+00 0.  1.
         22    1    3    3    0    0  0.15223422353E+02  0.49699586626E+02  0.15479796383E+03  0.16329179742E+03  0.00000000000E+00 0.  1.
</event>
<event>
 7    1  0.5889087E-006  0.8604072E+02  0.7818608E-02  0.1410341E+00
          2   -1    0    0  502    0  0.00000000000E+00  0.00000000000E+00  0.48992639748E+03  0.48992639748E+03  0.00000000000E+00 0. -1.
          1   -1    0    0  501    0 -0.00000000000E+00 -0.00000000000E+00 -0.16149658684E+03  0.16149658684E+03  0.00000000000E+00 0. -1.
         25    2    1    2    0    0  0.27007324524E+02 -0.43202385194E+02  0.28265189256E+03  0.31322980900E+03  0.12499991685E+03 0.  0.
          2    1    1    2  501    0 -0.35324949173E+02  0.80196445995E+02 -0.13088187309E+03  0.15750995743E+03  0.00000000000E+00 0. -1.
          1    1    1    2  502    0  0.83176246488E+01 -0.36994060802E+02  0.17665979117E+03  0.18068321790E+03  0.00000000000E+00 0. -1.
         22    1    3    3    0    0  0.50663815710E+02 -0.67805192171E+02  0.25686820908E+03  0.27045451215E+03  0.00000000000E+00 0.  1.
         22    1    3    3    0    0 -0.23656491185E+02  0.24602806977E+02  0.25783683483E+02  0.42775296847E+02  0.00000000000E+00 0.  1.
</event>
<event>
 7    1  0.5889087E-006  0.1336974E+03  0.7818608E-02  0.1288502E+00
          2   -1    0    0  502    0  0.00000000000E+00  0.00000000000E+00  0.26579201219E+04  0.26579201219E+04  0.00000000000E+00 0. -1.
          1   -1    0    0  501    0 -0.00000000000E+00 -0.00000000000E+00 -0.28742281748E+03  0.28742281748E+03  0.00000000000E+00 0. -1.
         25    2    1    2    0    0 -0.76938478795E+02 -0.10032978242E+03  0.53074070827E+02  0.18554863554E+03  0.12500337754E+03 0.  0.
          2    1    1    2  501    0  0.12715492056E+03  0.52694913641E+02 -0.19925039564E+03  0.24216904821E+03  0.00000000000E+00 0. -1.
          1    1    1    2  502    0 -0.50216441767E+02  0.47634868775E+02  0.25166736292E+04  0.25176252556E+04  0.00000000000E+00 0. -1.
         22    1    3    3    0    0 -0.11053285639E+03 -0.63686423188E+02  0.44474615931E+02  0.13509798038E+03  0.00000000000E+00 0. -1.
         22    1    3    3    0    0  0.33594377595E+02 -0.36643359227E+02  0.85994548959E+01  0.50450655159E+02  0.00000000000E+00 0. -1.
</event>
<event>
 7    1  0.5889087E-006  0.7771785E+02  0.7818608E-02  0.1402489E+00
          2   -1    0    0  502    0  0.00000000000E+00  0.00000000000E+00  0.22535588377E+03  0.22535588377E+03  0.00000000000E+00 0. -1.
          1   -1    0    0  501    0 -0.00000000000E+00 -0.00000000000E+00 -0.29347893751E+04  0.29347893751E+04  0.00000000000E+00 0. -1.
         25    2    1    2    0    0  0.39218006717E+02 -0.95829274138E+02 -0.37413713831E+03  0.40782944061E+03  0.12499981016E+03 0.  0.
          2    1    1    2  501    0  0.16057321504E+02  0.41657163170E+02 -0.25364209803E+04  0.25368138572E+04  0.00000000000E+00 0. -1.
          1    1    1    2  502    0 -0.55275328222E+02  0.54172110967E+02  0.20112462728E+03  0.21550196105E+03  0.00000000000E+00 0. -1.
         22    1    3    3    0    0  0.18468214448E+02 -0.58551354145E+02 -0.45456167098E+02  0.76391093358E+02  0.00000000000E+00 0.  1.
         22    1    3    3    0    0  0.20749792269E+02 -0.37277919993E+02 -0.32868097121E+03  0.33143834726E+03  0.00000000000E+00 0.  1.
</event>
<event>
 7    1  0.5889087E-006  0.5608224E+02  0.7818608E-02  0.1447628E+00
          2   -1    0    0  502    0  0.00000000000E+00  0.00000000000E+00  0.34171723926E+03  0.34171723926E+03  0.00000000000E+00 0. -1.
          1   -1    0    0  501    0 -0.00000000000E+00 -0.00000000000E+00 -0.28534531846E+03  0.28534531846E+03  0.00000000000E+00 0. -1.
         25    2    1    2    0    0 -0.60676246085E+02  0.60870558621E+02  0.74390476429E+02  0.16898735208E+03  0.12504379406E+03 0.  0.
          2    1    1    2  501    0  0.42810277916E+02 -0.93955175660E+01 -0.23259519160E+03  0.23668865372E+03  0.00000000000E+00 0. -1.
          1    1    1    2  502    0  0.17865968169E+02 -0.51475041055E+02  0.21457663597E+03  0.22138655193E+03  0.00000000000E+00 0. -1.
         22    1    3    3    0    0 -0.18417785253E+01  0.25598335353E+02 -0.32848280162E+02  0.41685446268E+02  0.00000000000E+00 0.  1.
         22    1    3    3    0    0 -0.58834467559E+02  0.35272223268E+02  0.10723875659E+03  0.12730190581E+03  0.00000000000E+00 0.  1.
</event>
<event>
 7    1  0.5889087E-006  0.1237003E+03  0.7818608E-02  0.1412495E+00
          2   -1    0    0  502    0  0.00000000000E+00  0.00000000000E+00  0.69466455057E+03  0.69466455057E+03  0.00000000000E+00 0. -1.
          1   -1    0    0  501    0 -0.00000000000E+00 -0.00000000000E+00 -0.91807138707E+03  0.91807138707E+03  0.00000000000E+00 0. -1.
         25    2    1    2    0    0 -0.31442551332E+02 -0.14390661226E+03  0.37010991340E+02  0.19670622662E+03  0.12500311606E+03 0.  0.
          2    1    1    2  501    0  0.96958206786E+01  0.24054570169E+02 -0.83159963171E+03  0.83200395357E+03  0.00000000000E+00 0. -1.
          1    1    1    2  502    0  0.21746730654E+02  0.11985204209E+03  0.57118180387E+03  0.58402575745E+03  0.00000000000E+00 0. -1.
         22    1    3    3    0    0 -0.50064356670E+02 -0.15402448661E+03  0.52725085991E+02  0.17032297841E+03  0.00000000000E+00 0. -1.
         22    1    3    3    0    0  0.18621805337E+02  0.10117874346E+02 -0.15714094651E+02  0.26383248208E+02  0.00000000000E+00 0. -1.
</event>
<event>
 7    1  0.5889087E-006  0.5252454E+02  0.7818608E-02  0.1522844E+00
          2   -1    0    0  502    0  0.00000000000E+00  0.00000000000E+00  0.32449775870E+04  0.32449775870E+04  0.00000000000E+00 0. -1.
          1   -1    0    0  501    0 -0.00000000000E+00 -0.00000000000E+00 -0.16118743155E+04  0.16118743155E+04  0.00000000000E+00 0. -1.
         25    2    1    2    0    0 -0.76509220656E+02  0.23519715010E+02  0.12077217069E+02  0.14892200821E+03  0.12500027007E+03 0.  0.
          2    1    1    2  501    0  0.26434328545E+02 -0.79581510490E+01 -0.15431112239E+04  0.15433581423E+04  0.00000000000E+00 0. -1.
          1    1    1    2  502    0  0.50074892110E+02 -0.15561563961E+02  0.31641372784E+04  0.31645717520E+04  0.00000000000E+00 0. -1.
         22    1    3    3    0    0  0.66731244552E+00  0.61385486679E+02 -0.37842796072E+01  0.61505642447E+02  0.00000000000E+00 0.  1.
         22    1    3    3    0    0 -0.77176533101E+02 -0.37865771669E+02  0.15861496676E+02  0.87416365758E+02  0.00000000000E+00 0.  1.
</event>
<event>
 7    1  0.5889087E-006  0.7668743E+02  0.7818608E-02  0.1390911E+00
          2   -1    0    0  502    0  0.00000000000E+00  0.00000000000E+00  0.18933298178E+04  0.18933298178E+04  0.00000000000E+00 0. -1.
          1   -1    0    0  501    0 -0.00000000000E+00 -0.00000000000E+00 -0.34928242533E+02  0.34928242533E+02  0.00000000000E+00 0. -1.
         25    2    1    2    0    0 -0.25703113348E+02 -0.42772098247E+02  0.31909764178E+03  0.34632134960E+03  0.12500027908E+03 0.  0.
          2    1    1    2  501    0  0.18449026765E+00  0.85316223784E+02  0.66174160509E+02  0.10797180927E+03  0.00000000000E+00 0. -1.
          1    1    1    2  502    0  0.25518623080E+02 -0.42544125537E+02  0.14731297729E+04  0.14739649014E+04  0.00000000000E+00 0. -1.
         22    1    3    3    0    0 -0.20396819690E+02 -0.75974128557E+02  0.29405939967E+03  0.30439945630E+03  0.00000000000E+00 0. -1.
         22    1    3    3    0    0 -0.53062936583E+01  0.33202030309E+02  0.25038242112E+02  0.41921893291E+02  0.00000000000E+00 0. -1.
</event>
<event>
 7    1  0.5889087E-006  0.1231944E+03  0.7818608E-02  0.1318115E+00
          2   -1    0    0  502    0  0.00000000000E+00  0.00000000000E+00  0.13902864798E+04  0.13902864798E+04  0.00000000000E+00 0. -1.
          1   -1    0    0  501    0 -0.00000000000E+00 -0.00000000000E+00 -0.91388562459E+02  0.91388562459E+02  0.00000000000E+00 0. -1.
         25    2    1    2    0    0 -0.80643064457E+02 -0.56531178885E+02  0.68317492831E+02  0.17318175325E+03  0.12500224718E+03 0.  0.
          2    1    1    2  501    0  0.12970446656E+03  0.86039346339E+02  0.12024988448E+03  0.19668770292E+03  0.00000000000E+00 0. -1.
          1    1    1    2  502    0 -0.49061402104E+02 -0.29508167454E+02  0.11103305400E+04  0.11118055860E+04  0.00000000000E+00 0. -1.
         22    1    3    3    0    0 -0.50204823690E+02 -0.94418391056E+02  0.63439361978E+02  0.12433788457E+03  0.00000000000E+00 0. -1.
         22    1    3    3    0    0 -0.30438240767E+02  0.37887212171E+02  0.48781308527E+01  0.48843868681E+02  0.00000000000E+00 0. -1.
</event>
<event>
 7    1  0.5889087E-006  0.2376718E+03  0.7818608E-02  0.1321102E+00
          2   -1    0    0  502    0  0.00000000000E+00  0.00000000000E+00  0.15515843456E+03  0.15515843456E+03  0.00000000000E+00 0. -1.
          1   -1    0    0  501    0 -0.00000000000E+00 -0.00000000000E+00 -0.18578477737E+04  0.18578477737E+04  0.00000000000E+00 0. -1.
         25    2    1    2    0    0  0.85937123939E+02  0.21655586108E+03 -0.99636098051E+03  0.10308453425E+04  0.12500114595E+03 0.  0.
          2    1    1    2  501    0  0.27972574369E+02 -0.72376764477E+01 -0.74081030456E+03  0.74137356051E+03  0.00000000000E+00 0. -1.
          1    1    1    2  502    0 -0.11390969831E+03 -0.20931818463E+03  0.34481945890E+02  0.24078730527E+03  0.00000000000E+00 0. -1.
         22    1    3    3    0    0  0.21151046107E+02  0.12325604292E+03 -0.73936471877E+03  0.74986639225E+03  0.00000000000E+00 0. -1.
         22    1    3    3    0    0  0.64786077832E+02  0.93299818159E+02 -0.25699626174E+03  0.28097895027E+03  0.00000000000E+00 0. -1.
</event>
<event>
 7    1  0.5889087E-006  0.9668947E+02  0.7818608E-02  0.1323659E+00
          2   -1    0    0  502    0  0.00000000000E+00  0.00000000000E+00  0.11742888703E+04  0.11742888703E+04  0.00000000000E+00 0. -1.
          1   -1    0    0  501    0 -0.00000000000E+00 -0.00000000000E+00 -0.15699360901E+03  0.15699360901E+03  0.00000000000E+00 0. -1.
         25    2    1    2    0    0  0.78357044799E+02 -0.87953667124E+02  0.11712450248E+03  0.20789240653E+03  0.12500171832E+03 0.  0.
          2    1    1    2  501    0 -0.94059934066E+01  0.96054858953E+02 -0.89298319796E+02  0.13148839705E+03  0.00000000000E+00 0. -1.
          1    1    1    2  502    0 -0.68951051393E+02 -0.81011918289E+01  0.98946907857E+03  0.99190167570E+03  0.00000000000E+00 0. -1.
         22    1    3    3    0    0  0.24380202223E+02 -0.10703587497E+03  0.52910716980E+02  0.12186310665E+03  0.00000000000E+00 0. -1.
         22    1    3    3    0    0  0.53976842577E+02  0.19082207844E+02  0.64213785497E+02  0.86029299885E+02  0.00000000000E+00 0. -1.
</event>
<event>
 7    1  0.5889087E-006  0.5718619E+02  0.7818608E-02  0.1431680E+00
          2   -1    0    0  502    0  0.00000000000E+00  0.00000000000E+00  0.35445255514E+03  0.35445255514E+03  0.00000000000E+00 0. -1.
          1   -1    0    0  501    0 -0.00000000000E+00 -0.00000000000E+00 -0.57696944991E+03  0.57696944991E+03  0.00000000000E+00 0. -1.
         25    2    1    2    0    0  0.12419412646E+02  0.37842611252E+01  0.22999264314E+02  0.12776243177E+03  0.12500284145E+03 0.  0.
          2    1    1    2  501    0  0.47099850446E+02 -0.11256431224E+02 -0.52022677037E+03  0.52247583271E+03  0.00000000000E+00 0. -1.
          1    1    1    2  502    0 -0.59519263092E+02  0.74721700988E+01  0.27471061128E+03  0.28118374056E+03  0.00000000000E+00 0. -1.
         22    1    3    3    0    0 -0.72091262716E+01  0.62421747616E+02  0.19645128654E+02  0.65835986792E+02  0.00000000000E+00 0.  1.
         22    1    3    3    0    0  0.19628538918E+02 -0.58637486491E+02  0.33541356601E+01  0.61926444981E+02  0.00000000000E+00 0.  1.
</event>
<event>
 7    1  0.5889087E-006  0.5752641E+02  0.7818608E-02  0.1427387E+00
          2   -1    0    0  502    0  0.00000000000E+00  0.00000000000E+00  0.84033097498E+02  0.84033097498E+02  0.00000000000E+00 0. -1.
          1   -1    0    0  501    0 -0.00000000000E+00 -0.00000000000E+00 -0.35369452411E+03  0.35369452411E+03  0.00000000000E+00 0. -1.
         25    2    1    2    0    0  0.40103118189E+00  0.16415277149E+02 -0.79234381341E+02  0.14890383556E+03  0.12499857162E+03 0.  0.
          2    1    1    2  501    0  0.84753957671E+01  0.49005674651E+02 -0.21324793357E+03  0.21897047667E+03  0.00000000000E+00 0. -1.
          1    1    1    2  502    0 -0.88764269490E+01 -0.65420951799E+02  0.22820888293E+02  0.69853309386E+02  0.00000000000E+00 0. -1.
         22    1    3    3    0    0  0.14346845092E+02  0.69076786321E+02 -0.54113388668E+02  0.88913965189E+02  0.00000000000E+00 0. -1.
         22    1    3    3    0    0 -0.13945813911E+02 -0.52661509172E+02 -0.25120992673E+02  0.59989870368E+02  0.00000000000E+00 0. -1.
</event>
<event>
 7    1  0.5889087E-006  0.8189714E+02  0.7818608E-02  0.1360615E+00
          2   -1    0    0  502    0  0.00000000000E+00  0.00000000000E+00  0.21604754389E+04  0.21604754389E+04  0.00000000000E+00 0. -1.
          1   -1    0    0  501    0 -0.00000000000E+00 -0.00000000000E+00 -0.16596924730E+03  0.16596924730E+03  0.00000000000E+00 0. -1.
         25    2    1    2    0    0  0.96486863307E+02  0.79358943411E+02  0.63177147984E+03  0.65602426323E+03  0.12500029807E+03 0.  0.
          2    1    1    2  501    0 -0.37341319357E+02 -0.72263931892E+02 -0.14246040974E+03  0.16404700036E+03  0.00000000000E+00 0. -1.
          1    1    1    2  502    0 -0.59145543950E+02 -0.70950115194E+01  0.15051951215E+04  0.15063734226E+04  0.00000000000E+00 0. -1.
         22    1    3    3    0    0 -0.60802890872E+01 -0.50299633863E+01  0.27845707383E+03  0.27856886476E+03  0.00000000000E+00 0.  1.
         22    1    3    3    0    0  0.10256715239E+03  0.84388906797E+02  0.35331440601E+03  0.37745539847E+03  0.00000000000E+00 0.  1.
</event>
<event>
 7    1  0.5889087E-006  0.3760898E+03  0.7818608E-02  0.1268049E+00
          2   -1    0    0  502    0  0.00000000000E+00  0.00000000000E+00  0.67458991628E+03  0.67458991628E+03  0.00000000000E+00 0. -1.
          1   -1    0    0  501    0 -0.00000000000E+00 -0.00000000000E+00 -0.10450011318E+04  0.10450011318E+04  0.00000000000E+00 0. -1.
         25    2    1    2    0    0  0.34543929579E+03 -0.17214340740E+03 -0.37069441755E+03  0.54954613787E+03  0.12499978663E+03 0.  0.
          2    1    1    2  501    0 -0.22984942540E+02 -0.19136660036E+02 -0.52435733392E+03  0.52520960861E+03  0.00000000000E+00 0. -1.
          1    1    1    2  502    0 -0.32245435325E+03  0.19128006743E+03  0.52464053600E+03  0.64483530156E+03  0.00000000000E+00 0. -1.
         22    1    3    3    0    0  0.22963258600E+03 -0.88871332540E+02 -0.15499761184E+03  0.29095274183E+03  0.00000000000E+00 0.  1.
         22    1    3    3    0    0  0.11580670979E+03 -0.83272074855E+02 -0.21569680570E+03  0.25859339604E+03  0.00000000000E+00 0.  1.
</event>
<event>
 7    1  0.5889087E-006  0.1373312E+03  0.7818608E-02  0.1349455E+00
          2   -1    0    0  502    0  0.00000000000E+00  0.00000000000E+00  0.33043627111E+03  0.33043627111E+03  0.00000000000E+00 0. -1.
          1   -1    0    0  501    0 -0.00000000000E+00 -0.00000000000E+00 -0.27300084457E+03  0.27300084457E+03  0.00000000000E+00 0. -1.
         25    2    1    2    0    0  0.76467064786E+02  0.14551922048E+03 -0.12285861767E+02  0.20687871555E+03  0.12499922009E+03 0.  0.
          2    1    1    2  501    0 -0.45116488759E+02 -0.12224662315E+03 -0.13530421129E+03  0.18784824732E+03  0.00000000000E+00 0. -1.
          1    1    1    2  502    0 -0.31350576028E+02 -0.23272597325E+02  0.20502549960E+03  0.20871015281E+03  0.00000000000E+00 0. -1.
         22    1    3    3    0    0  0.72958734311E+02  0.15038710560E+03  0.25091131002E+02  0.16902314427E+03  0.00000000000E+00 0.  1.
         22    1    3    3    0    0  0.35083304757E+01 -0.48678851254E+01 -0.37376992770E+02  0.37855571279E+02  0.00000000000E+00 0.  1.
</event>
<event>
 7    1  0.5889087E-006  0.1176677E+03  0.7818608E-02  0.1282273E+00
          2   -1    0    0  502    0  0.00000000000E+00  0.00000000000E+00  0.26432013781E+04  0.26432013781E+04  0.00000000000E+00 0. -1.
          1   -1    0    0  501    0 -0.00000000000E+00 -0.00000000000E+00 -0.76489942090E+03  0.76489942090E+03  0.00000000000E+00 0. -1.
         25    2    1    2    0    0  0.10656235385E+03  0.16606700458E+02  0.13762568919E+03  0.21493526585E+03  0.12500008169E+03 0.  0.
          2    1    1    2  501    0 -0.77507316969E+01 -0.83043613110E+02 -0.72240709294E+03  0.72720583294E+03  0.00000000000E+00 0. -1.
          1    1    1    2  502    0 -0.98811622155E+02  0.66436912652E+02  0.24630833610E+04  0.24659597002E+04  0.00000000000E+00 0. -1.
         22    1    3    3    0    0  0.50883915733E+02 -0.13616407259E+02  0.14197730943E+03  0.15143360201E+03  0.00000000000E+00 0.  1.
         22    1    3    3    0    0  0.55678438119E+02  0.30223107717E+02 -0.43516202366E+01  0.63501663838E+02  0.00000000000E+00 0.  1.
</event>
<event>
 7    1  0.5889087E-006  0.5334313E+02  0.7818608E-02  0.1439676E+00
          2   -1    0    0  502    0  0.00000000000E+00  0.00000000000E+00  0.13773162886E+03  0.13773162886E+03  0.00000000000E+00 0. -1.
          1   -1    0    0  501    0 -0.00000000000E+00 -0.00000000000E+00 -0.16994903396E+03  0.16994903396E+03  0.00000000000E+00 0. -1.
         25    2    1    2    0    0 -0.26311256530E+02 -0.48382438024E+02  0.36332782094E+02  0.14134432516E+03  0.12500001868E+03 0.  0.
          2    1    1    2  501    0 -0.31289173619E+02  0.37560561706E+02 -0.91222460312E+02  0.10349563009E+03  0.00000000000E+00 0. -1.
          1    1    1    2  502    0  0.57600430150E+02  0.10821876319E+02  0.22672273126E+02  0.62840707580E+02  0.00000000000E+00 0. -1.
         22    1    3    3    0    0  0.29593864266E+02 -0.19185863050E+02  0.63527547995E+02  0.72661155354E+02  0.00000000000E+00 0.  1.
         22    1    3    3    0    0 -0.55905120797E+02 -0.29196574975E+02 -0.27194765901E+02  0.68683169801E+02  0.00000000000E+00 0.  1.
</event>
<event>
 7    1  0.5889087E-006  0.1376871E+03  0.7818608E-02  0.1249592E+00
          2   -1    0    0  502    0  0.00000000000E+00  0.00000000000E+00  0.14992680655E+04  0.14992680655E+04  0.00000000000E+00 0. -1.
          1   -1    0    0  501    0 -0.00000000000E+00 -0.00000000000E+00 -0.84289676940E+03  0.84289676940E+03  0.00000000000E+00 0. -1.
         25    2    1    2    0    0  0.15823560252E+03 -0.51005593378E+02  0.12899392667E+04  0.13066014841E+04  0.12499619957E+03 0.  0.
          2    1    1    2  501    0 -0.81033959930E+02  0.11133335327E+03 -0.81650823730E+03  0.82803823571E+03  0.00000000000E+00 0. -1.
          1    1    1    2  502    0 -0.77201642587E+02 -0.60327759893E+02  0.18294026668E+03  0.20752511512E+03  0.00000000000E+00 0. -1.
         22    1    3    3    0    0  0.24100086541E+02 -0.94946502402E+01  0.68859057501E+03  0.68907760270E+03  0.00000000000E+00 0. -1.
         22    1    3    3    0    0  0.13413551598E+03 -0.41510943138E+02  0.60134869174E+03  0.61752388140E+03  0.00000000000E+00 0. -1.
</event>
<event>
 7    1  0.5889087E-006  0.1843449E+03  0.7818608E-02  0.1225347E+00
          2   -1    0    0  502    0  0.00000000000E+00  0.00000000000E+00  0.28057848741E+03  0.28057848741E+03  0.00000000000E+00 0. -1.
          1   -1    0    0  501    0 -0.00000000000E+00 -0.00000000000E+00 -0.25510129393E+03  0.25510129393E+03  0.00000000000E+00 0. -1.
         25    2    1    2    0    0 -0.67447853964E+02  0.20444623721E+03 -0.47262984056E+02  0.25339091884E+03  0.12500276467E+03 0.  0.
          2    1    1    2  501    0 -0.17769896121E+02 -0.16547446664E+03  0.47113221177E+01  0.16649253700E+03  0.00000000000E+00 0. -1.
          1    1    1    2  502    0  0.85217750085E+02 -0.38971770568E+02  0.68028855424E+02  0.11579632551E+03  0.00000000000E+00 0. -1.
         22    1    3    3    0    0  0.11627487747E+02  0.10658814572E+03  0.22462428882E+02  0.10954812636E+03  0.00000000000E+00 0. -1.
         22    1    3    3    0    0 -0.79075341711E+02  0.97858091496E+02 -0.69725412938E+02  0.14384279248E+03  0.00000000000E+00 0. -1.
</event>
<event>
 7    1  0.5889087E-006  0.1295144E+03  0.7818608E-02  0.1316860E+00
          2   -1    0    0  502    0  0.00000000000E+00  0.00000000000E+00  0.79247951989E+03  0.79247951989E+03  0.00000000000E+00 0. -1.
          1   -1    0    0  501    0 -0.00000000000E+00 -0.00000000000E+00 -0.13197109092E+04  0.13197109092E+04  0.00000000000E+00 0. -1.
         25    2    1    2    0    0  0.12826795535E+03  0.10275449440E+03 -0.86353490946E+02  0.22381364993E+03  0.12499788001E+03 0.  0.
          2    1    1    2  501    0 -0.73241156006E+02 -0.10503747895E+03 -0.11600514790E+04  0.11670974992E+04  0.00000000000E+00 0. -1.
          1    1    1    2  502    0 -0.55026799349E+02  0.22829845533E+01  0.71917358057E+03  0.72127927993E+03  0.00000000000E+00 0. -1.
         22    1    3    3    0    0  0.64909163699E+02  0.26408379469E+01 -0.82852232282E+02  0.10528374020E+03  0.00000000000E+00 0.  1.
         22    1    3    3    0    0  0.63358791656E+02  0.10011365645E+03 -0.35012586643E+01  0.11852990973E+03  0.00000000000E+00 0.  1.
</event>
<event>
 7    1  0.5889087E-006  0.5766836E+02  0.7818608E-02  0.1511043E+00
          2   -1    0    0  502    0  0.00000000000E+00  0.00000000000E+00  0.12152783699E+04  0.12152783699E+04  0.00000000000E+00 0. -1.
          1   -1    0    0  501    0 -0.00000000000E+00 -0.00000000000E+00 -0.66168280732E+02  0.66168280732E+02  0.00000000000E+00 0. -1.
         25    2    1    2    0    0  0.55879976472E+01 -0.31070424387E+02  0.82581559057E+02  0.15310626642E+03  0.12500087172E+03 0.  0.
          2    1    1    2  501    0  0.11819413538E+02 -0.24516777159E+02 -0.23981911979E+02  0.36275377335E+02  0.00000000000E+00 0. -1.
          1    1    1    2  502    0 -0.17407411186E+02  0.55587201546E+02  0.10905104421E+04  0.10920650069E+04  0.00000000000E+00 0. -1.
         22    1    3    3    0    0 -0.44850839129E+02  0.76747513049E+01  0.76765999150E+02  0.89238546624E+02  0.00000000000E+00 0. -1.
         22    1    3    3    0    0  0.50438836776E+02 -0.38745175692E+02  0.58155599072E+01  0.63867719795E+02  0.00000000000E+00 0. -1.
</event>
<event>
 7    1  0.5889087E-006  0.5318241E+02  0.7818608E-02  0.1450406E+00
          2   -1    0    0  502    0  0.00000000000E+00  0.00000000000E+00  0.17719460510E+04  0.17719460510E+04  0.00000000000E+00 0. -1.
          1   -1    0    0  501    0 -0.00000000000E+00 -0.00000000000E+00 -0.28028905144E+04  0.28028905144E+04  0.00000000000E+00 0. -1.
         25    2    1    2    0    0 -0.62338006432E+02  0.65254503513E+02  0.74452643461E+03  0.76032163805E+03  0.12500081675E+03 0.  0.
          2    1    1    2  501    0  0.48316601394E+02 -0.22198589220E+02 -0.27942370678E+04  0.27947429331E+04  0.00000000000E+00 0. -1.
          1    1    1    2  502    0  0.14021405038E+02 -0.43055914293E+02  0.10187661697E+04  0.10197719942E+04  0.00000000000E+00 0. -1.
         22    1    3    3    0    0  0.29035513094E+02  0.38757383339E+02  0.13517235054E+03  0.14358537577E+03  0.00000000000E+00 0.  1.
         22    1    3    3    0    0 -0.91373519526E+02  0.26497120174E+02  0.60935408406E+03  0.61673626228E+03  0.00000000000E+00 0.  1.
</event>
<event>
 7    1  0.5889087E-006  0.2827924E+03  0.7818608E-02  0.1229926E+00
          2   -1    0    0  502    0  0.00000000000E+00  0.00000000000E+00  0.70257787855E+03  0.70257787855E+03  0.00000000000E+00 0. -1.
          1   -1    0    0  501    0 -0.00000000000E+00 -0.00000000000E+00 -0.84855154360E+03  0.84855154360E+03  0.00000000000E+00 0. -1.
         25    2    1    2    0    0 -0.19310016486E+03  0.23666899424E+03 -0.30697632711E+03  0.45073180851E+03  0.12499924518E+03 0.  0.
          2    1    1    2  501    0  0.57432110595E+02  0.97434277085E+01 -0.43630118435E+03  0.44017281285E+03  0.00000000000E+00 0. -1.
          1    1    1    2  502    0  0.13566805427E+03 -0.24641242194E+03  0.59730384641E+03  0.66022480079E+03  0.00000000000E+00 0. -1.
         22    1    3    3    0    0 -0.11698663743E+03  0.78281989935E+02 -0.74344010751E+02  0.15918848960E+03  0.00000000000E+00 0.  1.
         22    1    3    3    0    0 -0.76113527430E+02  0.15838700430E+03 -0.23263231636E+03  0.29154331891E+03  0.00000000000E+00 0.  1.
</event>
<event>
 7    1  0.5889087E-006  0.5610985E+02  0.7818608E-02  0.1555719E+00
          2   -1    0    0  502    0  0.00000000000E+00  0.00000000000E+00  0.27767877077E+03  0.27767877077E+03  0.00000000000E+00 0. -1.
          1   -1    0    0  501    0 -0.00000000000E+00 -0.00000000000E+00 -0.78124755723E+03  0.78124755723E+03  0.00000000000E+00 0. -1.
         25    2    1    2    0    0 -0.48427114742E+02  0.42572528187E+02 -0.25227191625E+03  0.28883194414E+03  0.12500066653E+03 0.  0.
          2    1    1    2  501    0  0.51171240221E+02 -0.21894672679E+02 -0.50875607007E+03  0.51179157023E+03  0.00000000000E+00 0. -1.
          1    1    1    2  502    0 -0.27441254792E+01 -0.20677855508E+02  0.25745919986E+03  0.25830281363E+03  0.00000000000E+00 0. -1.
         22    1    3    3    0    0 -0.36014664553E+02  0.33293282899E+02 -0.15333031135E+02  0.51386774494E+02  0.00000000000E+00 0.  1.
         22    1    3    3    0    0 -0.12412450188E+02  0.92792452876E+01 -0.23693888511E+03  0.23744516965E+03  0.00000000000E+00 0.  1.
</event>
<event>
 7    1  0.5889087E-006  0.1699494E+03  0.7818608E-02  0.1200922E+00
          2   -1    0    0  502    0  0.00000000000E+00  0.00000000000E+00  0.13226372104E+04  0.13226372104E+04  0.00000000000E+00 0. -1.
          1   -1    0    0  501    0 -0.00000000000E+00 -0.00000000000E+00 -0.40890454958E+03  0.40890454958E+03  0.00000000000E+00 0. -1.
         25    2    1    2    0    0 -0.23178525878E+03  0.40492114554E+02  0.51114845169E+03  0.57641987804E+03  0.12499247417E+03 0.  0.
          2    1    1    2  501    0  0.83802631359E+02 -0.10166155583E+03 -0.35611714534E+03  0.37970695828E+03  0.00000000000E+00 0. -1.
          1    1    1    2  502    0  0.14798262742E+03  0.61169441274E+02  0.75870135451E+03  0.77541492370E+03  0.00000000000E+00 0. -1.
         22    1    3    3    0    0 -0.13766146293E+03 -0.32688370651E+02  0.33566183687E+03  0.36426374604E+03  0.00000000000E+00 0. -1.
         22    1    3    3    0    0 -0.94123795857E+02  0.73180485205E+02  0.17548661482E+03  0.21215613200E+03  0.00000000000E+00 0. -1.
</event>
<event>
 7    1  0.5889087E-006  0.8627001E+02  0.7818608E-02  0.1317885E+00
          2   -1    0    0  502    0  0.00000000000E+00  0.00000000000E+00  0.82296098809E+03  0.82296098809E+03  0.00000000000E+00 0. -1.
          1   -1    0    0  501    0 -0.00000000000E+00 -0.00000000000E+00 -0.24751043932E+03  0.24751043932E+03  0.00000000000E+00 0. -1.
         25    2    1    2    0    0  0.16143009771E+03 -0.38979775548E+02  0.31310840071E+03  0.37582359865E+03  0.12500962906E+03 0.  0.
          2    1    1    2  501    0 -0.82824743469E+02  0.15897167690E+02 -0.20421929305E+03  0.22094835986E+03  0.00000000000E+00 0. -1.
          1    1    1    2  502    0 -0.78605354240E+02  0.23082607858E+02  0.46656144111E+03  0.47369946889E+03  0.00000000000E+00 0. -1.
         22    1    3    3    0    0  0.57387400776E+02 -0.25551549953E+02  0.23967391088E+03  0.24776960876E+03  0.00000000000E+00 0.  1.
         22    1    3    3    0    0  0.10404269693E+03 -0.13428225595E+02  0.73434489834E+02  0.12805398988E+03  0.00000000000E+00 0.  1.
</event>
<event>
 7    1  0.5889087E-006  0.4661725E+02  0.7818608E-02  0.1504938E+00
          2   -1    0    0  502    0  0.00000000000E+00  0.00000000000E+00  0.15533664373E+03  0.15533664373E+03  0.00000000000E+00 0. -1.
          1   -1    0    0  501    0 -0.00000000000E+00 -0.00000000000E+00 -0.53596870569E+03  0.53596870569E+03  0.00000000000E+00 0. -1.
         25    2    1    2    0    0  0.31146018617E+02  0.15436472169E+02 -0.14400600525E+03  0.19383157209E+03  0.12499835855E+03 0.  0.
          2    1    1    2  501    0  0.12796801497E+02 -0.32679540736E+02 -0.36190181063E+03  0.36359954764E+03  0.00000000000E+00 0. -1.
          1    1    1    2  502    0 -0.43942820115E+02  0.17243068567E+02  0.12527575392E+03  0.13387422969E+03  0.00000000000E+00 0. -1.
         22    1    3    3    0    0 -0.22155816006E+02 -0.44009519122E+02 -0.64366935368E+02  0.81060596623E+02  0.00000000000E+00 0. -1.
         22    1    3    3    0    0  0.53301834624E+02  0.59445991291E+02 -0.79639069884E+02  0.11277097546E+03  0.00000000000E+00 0. -1.
</event>
<event>
 7    1  0.5889087E-006  0.4388718E+02  0.7818608E-02  0.1556126E+00
          2   -1    0    0  502    0  0.00000000000E+00  0.00000000000E+00  0.13096211634E+04  0.13096211634E+04  0.00000000000E+00 0. -1.
          1   -1    0    0  501    0 -0.00000000000E+00 -0.00000000000E+00 -0.97035478465E+01  0.97035478465E+01  0.00000000000E+00 0. -1.
         25    2    1    2    0    0 -0.26421288229E+02  0.61105104912E+02  0.65135224935E+03  0.66657126286E+03  0.12500230963E+03 0.  0.
          2    1    1    2  501    0  0.38699930303E+01 -0.26316484474E+02  0.14024484896E+03  0.14274505897E+03  0.00000000000E+00 0. -1.
          1    1    1    2  502    0  0.22551295199E+02 -0.34788620439E+02  0.50832051725E+03  0.51000838943E+03  0.00000000000E+00 0. -1.
         22    1    3    3    0    0 -0.53060178225E+02  0.41875539165E+02  0.15456476401E+03  0.16869857606E+03  0.00000000000E+00 0.  1.
         22    1    3    3    0    0  0.26638889996E+02  0.19229565747E+02  0.49678748534E+03  0.49787268679E+03  0.00000000000E+00 0.  1.
</event>
<event>
 7    1  0.5889087E-006  0.2189389E+03  0.7818608E-02  0.1190744E+00
          2   -1    0    0  502    0  0.00000000000E+00  0.00000000000E+00  0.11564599587E+04  0.11564599587E+04  0.00000000000E+00 0. -1.
          1   -1    0    0  501    0 -0.00000000000E+00 -0.00000000000E+00 -0.21129764197E+03  0.21129764197E+03  0.00000000000E+00 0. -1.
         25    2    1    2    0    0 -0.22390133166E+03 -0.15598337294E+03  0.54487491845E+03  0.62207397016E+03  0.12499891455E+03 0.  0.
          2    1    1    2  501    0  0.21063058648E+03  0.42444905713E+02 -0.96770317604E+02  0.23565081869E+03  0.00000000000E+00 0. -1.
          1    1    1    2  502    0  0.13270745180E+02  0.11353846723E+03  0.49705771593E+03  0.51003281187E+03  0.00000000000E+00 0. -1.
         22    1    3    3    0    0 -0.20764281406E+03 -0.16217906991E+03  0.41865915784E+03  0.49466461304E+03  0.00000000000E+00 0.  1.
         22    1    3    3    0    0 -0.16258517596E+02  0.61956969708E+01  0.12621576060E+03  0.12740935711E+03  0.00000000000E+00 0.  1.
</event>
<event>
 7    1  0.5889087E-006  0.6746474E+02  0.7818608E-02  0.1438788E+00
          2   -1    0    0  502    0  0.00000000000E+00  0.00000000000E+00  0.80154430423E+03  0.80154430423E+03  0.00000000000E+00 0. -1.
          1   -1    0    0  501    0 -0.00000000000E+00 -0.00000000000E+00 -0.14147940594E+03  0.14147940594E+03  0.00000000000E+00 0. -1.
         25    2    1    2    0    0  0.91365150824E+01  0.79211077830E+02  0.17442568998E+03  0.22892725135E+03  0.12500197729E+03 0.  0.
          2    1    1    2  501    0  0.25845699311E+02 -0.62173120915E+02 -0.10360892826E+03  0.12356499162E+03  0.00000000000E+00 0. -1.
          1    1    1    2  502    0 -0.34982214393E+02 -0.17037956914E+02  0.58924813658E+03  0.59053146721E+03  0.00000000000E+00 0. -1.
         22    1    3    3    0    0 -0.55543933005E+02  0.54087367042E+02  0.76560329659E+02  0.10895896404E+03  0.00000000000E+00 0.  1.
         22    1    3    3    0    0  0.64680448087E+02  0.25123710788E+02  0.97865360319E+02  0.11996828731E+03  0.00000000000E+00 0.  1.
</event>
<event>
 7    1  0.5889087E-006  0.6930137E+02  0.7818608E-02  0.1497264E+00
          2   -1    0    0  502    0  0.00000000000E+00  0.00000000000E+00  0.91346289670E+03  0.91346289670E+03  0.00000000000E+00 0. -1.
          1   -1    0    0  501    0 -0.00000000000E+00 -0.00000000000E+00 -0.41618890822E+02  0.41618890822E+02  0.00000000000E+00 0. -1.
         25    2    1    2    0    0 -0.30729028949E+02  0.62840168033E+02  0.24916462883E+03  0.28740293824E+03  0.12499710682E+03 0.  0.
          2    1    1    2  501    0  0.67791715987E+01 -0.69595139091E+02  0.32731102492E+02  0.77205994735E+02  0.00000000000E+00 0. -1.
          1    1    1    2  502    0  0.23949857350E+02  0.67549710584E+01  0.58994827455E+03  0.59047285454E+03  0.00000000000E+00 0. -1.
         22    1    3    3    0    0  0.34789618183E+02  0.48824832763E+02  0.18561813575E+03  0.19505966818E+03  0.00000000000E+00 0.  1.
         22    1    3    3    0    0 -0.65518647132E+02  0.14015335270E+02  0.63546493073E+02  0.92343270066E+02  0.00000000000E+00 0.  1.
</event>
<event>
 7    1  0.5889087E-006  0.3657187E+03  0.7818608E-02  0.1123403E+00
          2   -1    0    0  502    0  0.00000000000E+00  0.00000000000E+00  0.36914897359E+03  0.36914897359E+03  0.00000000000E+00 0. -1.
          1   -1    0    0  501    0 -0.00000000000E+00 -0.00000000000E+00 -0.54666825084E+04  0.54666825084E+04  0.00000000000E+00 0. -1.
         25    2    1    2    0    0 -0.39945346360E+03  0.16961493701E+03  0.91824628986E+02  0.46085313577E+03  0.12498621450E+03 0.  0.
          2    1    1    2  501    0  0.13262518450E+03 -0.71277693477E+02 -0.50605578228E+04  0.50627971940E+04  0.00000000000E+00 0. -1.
          1    1    1    2  502    0  0.26682827911E+03 -0.98337243532E+02 -0.12880034100E+03  0.31218115228E+03  0.00000000000E+00 0. -1.
         22    1    3    3    0    0 -0.12233472059E+03 -0.71309398720E+01  0.33437043427E+02  0.12702232102E+03  0.00000000000E+00 0. -1.
         22    1    3    3    0    0 -0.27711874302E+03  0.17674587688E+03  0.58387585558E+02  0.33383081474E+03  0.00000000000E+00 0. -1.
</event>
<event>
 7    1  0.6714408E-006  0.9607651E+02  0.7818608E-02  0.1348507E+00
          2   -1    0    0  502    0  0.00000000000E+00  0.00000000000E+00  0.76859217122E+03  0.76859217122E+03  0.00000000000E+00 0. -1.
          1   -1    0    0  501    0 -0.00000000000E+00 -0.00000000000E+00 -0.20709784732E+04  0.20709784732E+04  0.00000000000E+00 0. -1.
         25    2    1    2    0    0  0.35990460909E+02 -0.73279123408E+02 -0.18932611790E+03  0.24111278524E+03  0.12500341228E+03 0.  0.
          2    1    1    2  501    0 -0.51817539508E+02 -0.21921030989E+02 -0.18521949994E+04  0.18530493531E+04  0.00000000000E+00 0. -1.
          1    1    1    2  502    0  0.15827078599E+02  0.95200154398E+02  0.73913481532E+03  0.74540850615E+03  0.00000000000E+00 0. -1.
         22    1    3    3    0    0  0.53897744056E+02  0.17555848553E+02 -0.74387782087E+02  0.93523883348E+02  0.00000000000E+00 0.  1.
         22    1    3    3    0    0 -0.17907283147E+02 -0.90834971961E+02 -0.11493833582E+03  0.14758890189E+03  0.00000000000E+00 0.  1.
</event>
<event>
 7    1  0.5889087E-006  0.8554278E+02  0.7818608E-02  0.1425823E+00
          2   -1    0    0  502    0  0.00000000000E+00  0.00000000000E+00  0.46999622863E+03  0.46999622863E+03  0.00000000000E+00 0. -1.
          1   -1    0    0  501    0 -0.00000000000E+00 -0.00000000000E+00 -0.14011384885E+04  0.14011384885E+04  0.00000000000E+00 0. -1.
         25    2    1    2    0    0 -0.32370256824E+02 -0.49407846976E+02 -0.21442168297E+03  0.25512872085E+03  0.12500014882E+03 0.  0.
          2    1    1    2  501    0 -0.33266265987E+02 -0.62369080133E+01 -0.11619977462E+04  0.11624905616E+04  0.00000000000E+00 0. -1.
          1    1    1    2  502    0  0.65636522811E+02  0.55644754989E+02  0.44527716940E+03  0.45351543466E+03  0.00000000000E+00 0. -1.
         22    1    3    3    0    0 -0.23331636013E+02  0.41085617547E+02 -0.69733077107E+02  0.84232388373E+02  0.00000000000E+00 0.  1.
         22    1    3    3    0    0 -0.90386208114E+01 -0.90493464523E+02 -0.14468860587E+03  0.17089633248E+03  0.00000000000E+00 0.  1.
</event>
<event>
 7    1  0.5889087E-006  0.1893885E+03  0.7818608E-02  0.1387785E+00
          2   -1    0    0  502    0  0.00000000000E+00  0.00000000000E+00  0.82523469685E+02  0.82523469685E+02  0.00000000000E+00 0. -1.
          1   -1    0    0  501    0 -0.00000000000E+00 -0.00000000000E+00 -0.29586121966E+04  0.29586121966E+04  0.00000000000E+00 0. -1.
         25    2    1    2    0    0  0.68914405330E+02 -0.15645554270E+03 -0.15237141875E+04  0.15383619113E+04  0.12499965157E+03 0.  0.
          2    1    1    2  501    0  0.28105461667E+01 -0.20407241675E+02 -0.13062679302E+04  0.13064303503E+04  0.00000000000E+00 0. -1.
          1    1    1    2  502    0 -0.71724951497E+02  0.17686278437E+03 -0.46106609262E+02  0.19634340473E+03  0.00000000000E+00 0. -1.
         22    1    3    3    0    0 -0.13048027143E+02 -0.12141143715E+03 -0.93405918328E+03  0.94200718997E+03  0.00000000000E+00 0. -1.
         22    1    3    3    0    0  0.81962432473E+02 -0.35044105550E+02 -0.58965500424E+03  0.59635472136E+03  0.00000000000E+00 0. -1.
</event>
<event>
 7    1  0.5889087E-006  0.6441885E+02  0.7818608E-02  0.1465842E+00
          2   -1    0    0  502    0  0.00000000000E+00  0.00000000000E+00  0.26252374087E+04  0.26252374087E+04  0.00000000000E+00 0. -1.
          1   -1    0    0  501    0 -0.00000000000E+00 -0.00000000000E+00 -0.16788523240E+02  0.16788523240E+02  0.00000000000E+00 0. -1.
         25    2    1    2    0    0  0.50716620933E+02  0.59020867001E+01  0.18303668521E+04  0.18353380813E+04  0.12496419186E+03 0.  0.
          2    1    1    2  501    0 -0.52114861409E+02 -0.39280753794E+02  0.62614126634E+02  0.90440396132E+02  0.00000000000E+00 0. -1.
          1    1    1    2  502    0  0.13982404758E+01  0.33378667094E+02  0.71546790675E+03  0.71624745451E+03  0.00000000000E+00 0. -1.
         22    1    3    3    0    0  0.33274177820E+02  0.46089712363E+02  0.15897164426E+04  0.15907324729E+04  0.00000000000E+00 0. -1.
         22    1    3    3    0    0  0.17442443114E+02 -0.40187625663E+02  0.24065040950E+03  0.24460560843E+03  0.00000000000E+00 0. -1.
</event>
<event>
 7    1  0.5889087E-006  0.9918973E+02  0.7818608E-02  0.1385501E+00
          2   -1    0    0  502    0  0.00000000000E+00  0.00000000000E+00  0.17293015622E+04  0.17293015622E+04  0.00000000000E+00 0. -1.
          1   -1    0    0  501    0 -0.00000000000E+00 -0.00000000000E+00 -0.23908031685E+03  0.23908031685E+03  0.00000000000E+00 0. -1.
         25    2    1    2    0    0 -0.18966251381E+02 -0.76848935462E+02  0.57986125298E+03  0.59843929020E+03  0.12500013508E+03 0.  0.
          2    1    1    2  501    0  0.58871477729E+02  0.80419855486E+02 -0.21861245489E+03  0.24025946283E+03  0.00000000000E+00 0. -1.
          1    1    1    2  502    0 -0.39905226349E+02 -0.35709200241E+01  0.11289724472E+04  0.11296831260E+04  0.00000000000E+00 0. -1.
         22    1    3    3    0    0  0.14808721179E+02 -0.15329524634E+02  0.87633959941E+01  0.23045382570E+02  0.00000000000E+00 0.  1.
         22    1    3    3    0    0 -0.33774972560E+02 -0.61519410828E+02  0.57109785699E+03  0.57539390763E+03  0.00000000000E+00 0.  1.
</event>
<event>
 7    1  0.5889087E-006  0.7993687E+02  0.7818608E-02  0.1341544E+00
          2   -1    0    0  502    0  0.00000000000E+00  0.00000000000E+00  0.31403934747E+03  0.31403934747E+03  0.00000000000E+00 0. -1.
          1   -1    0    0  501    0 -0.00000000000E+00 -0.00000000000E+00 -0.94910634810E+02  0.94910634810E+02  0.00000000000E+00 0. -1.
         25    2    1    2    0    0  0.12447331815E+02  0.23389618806E+02  0.11356460086E+03  0.17095410912E+03  0.12500551395E+03 0.  0.
          2    1    1    2  501    0  0.67061434170E+02  0.43504801655E+02 -0.12291819620E+02  0.80876402922E+02  0.00000000000E+00 0. -1.
          1    1    1    2  502    0 -0.79508765985E+02 -0.66894420460E+02  0.11785593142E+03  0.15711947024E+03  0.00000000000E+00 0. -1.
         22    1    3    3    0    0  0.62834107343E+01 -0.15621379995E+02  0.12785076454E+03  0.12895474694E+03  0.00000000000E+00 0. -1.
         22    1    3    3    0    0  0.61639210804E+01  0.39010998801E+02 -0.14286163686E+02  0.41999362179E+02  0.00000000000E+00 0. -1.
</event>
<event>
 7    1  0.5889087E-006  0.6538411E+02  0.7818608E-02  0.1509514E+00
          2   -1    0    0  502    0  0.00000000000E+00  0.00000000000E+00  0.13713511712E+04  0.13713511712E+04  0.00000000000E+00 0. -1.
          1   -1    0    0  501    0 -0.00000000000E+00 -0.00000000000E+00 -0.42479694717E+02  0.42479694717E+02  0.00000000000E+00 0. -1.
         25    2    1    2    0    0  0.74324248164E+02 -0.17072981403E+02  0.96863991176E+03  0.97964507267E+03  0.12500243680E+03 0.  0.
          2    1    1    2  501    0 -0.64947314771E+02 -0.52965426186E+01 -0.75557656894E+01  0.65599517184E+02  0.00000000000E+00 0. -1.
          1    1    1    2  502    0 -0.93769333935E+01  0.22369524022E+02  0.36778733041E+03  0.36858627605E+03  0.00000000000E+00 0. -1.
         22    1    3    3    0    0  0.15509089214E+02 -0.15634484825E+02  0.21827620798E+02  0.31006676599E+02  0.00000000000E+00 0.  1.
         22    1    3    3    0    0  0.58815158950E+02 -0.14384965777E+01  0.94681229096E+03  0.94863839607E+03  0.00000000000E+00 0.  1.
</event>
<event>
 7    1  0.5889087E-006  0.9748963E+02  0.7818608E-02  0.1317850E+00
          2   -1    0    0  502    0  0.00000000000E+00  0.00000000000E+00  0.25176897843E+04  0.25176897843E+04  0.00000000000E+00 0. -1.
          1   -1    0    0  501    0 -0.00000000000E+00 -0.00000000000E+00 -0.86674477550E+03  0.86674477550E+03  0.00000000000E+00 0. -1.
         25    2    1    2    0    0 -0.59377625029E+01  0.13755829903E+03  0.12133360266E+04  0.12275043038E+04  0.12499983868E+03 0.  0.
          2    1    1    2  501    0  0.46395341220E+02 -0.55735771447E+02 -0.85652085895E+03  0.85958535685E+03  0.00000000000E+00 0. -1.
          1    1    1    2  502    0 -0.40457578717E+02 -0.81822527580E+02  0.12941298412E+04  0.12973448992E+04  0.00000000000E+00 0. -1.
         22    1    3    3    0    0 -0.54931233543E+02  0.11217200395E+03  0.96891258063E+03  0.97692967392E+03  0.00000000000E+00 0.  1.
         22    1    3    3    0    0  0.48993471040E+02  0.25386295075E+02  0.24442344598E+03  0.25057462986E+03  0.00000000000E+00 0.  1.
</event>
<event>
 7    1  0.5889087E-006  0.9056200E+02  0.7818608E-02  0.1423929E+00
          2   -1    0    0  502    0  0.00000000000E+00  0.00000000000E+00  0.26103532318E+03  0.26103532318E+03  0.00000000000E+00 0. -1.
          1   -1    0    0  501    0 -0.00000000000E+00 -0.00000000000E+00 -0.32159461865E+04  0.32159461865E+04  0.00000000000E+00 0. -1.
         25    2    1    2    0    0  0.35123426261E+02 -0.96702812015E+02 -0.64831754657E+03  0.66822598404E+03  0.12500094252E+03 0.  0.
          2    1    1    2  501    0 -0.55060879236E+02  0.71118264256E+02 -0.25558325350E+04  0.25574146037E+04  0.00000000000E+00 0. -1.
          1    1    1    2  502    0  0.19937452975E+02  0.25584547759E+02  0.24923921830E+03  0.25134092196E+03  0.00000000000E+00 0. -1.
         22    1    3    3    0    0 -0.17880794138E+02  0.15675063781E+01 -0.33724593542E+03  0.33772326072E+03  0.00000000000E+00 0.  1.
         22    1    3    3    0    0  0.53004220399E+02 -0.98270318393E+02 -0.31107161115E+03  0.33050272332E+03  0.00000000000E+00 0.  1.
</event>
<event>
 7    1  0.5889087E-006  0.4074972E+02  0.7818608E-02  0.1585951E+00
          2   -1    0    0  502    0  0.00000000000E+00  0.00000000000E+00  0.29068219597E+04  0.29068219597E+04  0.00000000000E+00 0. -1.
          1   -1    0    0  501    0 -0.00000000000E+00 -0.00000000000E+00 -0.65727405280E+03  0.65727405280E+03  0.00000000000E+00 0. -1.
         25    2    1    2    0    0  0.13769005372E+02  0.41226012533E+02  0.16385718423E+04  0.16439071436E+04  0.12499537849E+03 0.  0.
          2    1    1    2  501    0  0.18206078776E+02 -0.15293651323E+02 -0.65405551462E+03  0.65448756541E+03  0.00000000000E+00 0. -1.
          1    1    1    2  502    0 -0.31975084148E+02 -0.25932361210E+02  0.12650315792E+04  0.12657013035E+04  0.00000000000E+00 0. -1.
         22    1    3    3    0    0 -0.50974942763E+02  0.65935904456E+01  0.95986214221E+03  0.96123735480E+03  0.00000000000E+00 0.  1.
         22    1    3    3    0    0  0.64743948135E+02  0.34632422087E+02  0.67870970012E+03  0.68266978879E+03  0.00000000000E+00 0.  1.
</event>
<event>
 7    1  0.5889087E-006  0.1161306E+03  0.7818608E-02  0.1436839E+00
          2   -1    0    0  502    0  0.00000000000E+00  0.00000000000E+00  0.10773701971E+04  0.10773701971E+04  0.00000000000E+00 0. -1.
          1   -1    0    0  501    0 -0.00000000000E+00 -0.00000000000E+00 -0.40260811561E+03  0.40260811561E+03  0.00000000000E+00 0. -1.
         25    2    1    2    0    0  0.16658606592E+02 -0.93305640213E+02  0.52200883219E+02  0.16532389687E+03  0.12499442787E+03 0.  0.
          2    1    1    2  501    0  0.76054349389E+01 -0.21639823443E+02 -0.34209902061E+03  0.34286712368E+03  0.00000000000E+00 0. -1.
          1    1    1    2  502    0 -0.24264041531E+02  0.11494546366E+03  0.96466021885E+03  0.97178729214E+03  0.00000000000E+00 0. -1.
         22    1    3    3    0    0 -0.47971578711E+02 -0.28130043653E+02 -0.70766231242E+01  0.56059346364E+02  0.00000000000E+00 0. -1.
         22    1    3    3    0    0  0.64630185303E+02 -0.65175596561E+02  0.59277506343E+02  0.10926455051E+03  0.00000000000E+00 0. -1.
</event>
<event>
 7    1  0.5889087E-006  0.6977001E+02  0.7818608E-02  0.1480282E+00
          2   -1    0    0  502    0  0.00000000000E+00  0.00000000000E+00  0.64114013425E+02  0.64114013425E+02  0.00000000000E+00 0. -1.
          1   -1    0    0  501    0 -0.00000000000E+00 -0.00000000000E+00 -0.11796969658E+04  0.11796969658E+04  0.00000000000E+00 0. -1.
         25    2    1    2    0    0 -0.31537623459E+02  0.66065700929E+02 -0.72529352970E+03  0.73961887071E+03  0.12500428453E+03 0.  0.
          2    1    1    2  501    0 -0.20183291734E+02 -0.19156410542E+02 -0.42521151505E+03  0.42612106949E+03  0.00000000000E+00 0. -1.
          1    1    1    2  502    0  0.51720915193E+02 -0.46909290388E+02  0.34922092401E+02  0.78071039002E+02  0.00000000000E+00 0. -1.
         22    1    3    3    0    0  0.35248828928E+02  0.13029486118E+02 -0.44635425857E+03  0.44793344550E+03  0.00000000000E+00 0. -1.
         22    1    3    3    0    0 -0.66786452387E+02  0.53036214811E+02 -0.27893927112E+03  0.29168542521E+03  0.00000000000E+00 0. -1.
</event>
<event>
 7    1  0.5889087E-006  0.7532207E+02  0.7818608E-02  0.1429221E+00
          2   -1    0    0  502    0  0.00000000000E+00  0.00000000000E+00  0.32091076927E+04  0.32091076927E+04  0.00000000000E+00 0. -1.
          1   -1    0    0  501    0 -0.00000000000E+00 -0.00000000000E+00 -0.43335285626E+02  0.43335285626E+02  0.00000000000E+00 0. -1.
         25    2    1    2    0    0 -0.10263294282E+03  0.12727439804E+02  0.60665364883E+03  0.62797228554E+03  0.12500013236E+03 0.  0.
          2    1    1    2  501    0  0.72944440143E+02  0.10112293724E+02  0.91288618969E+01  0.74205700264E+02  0.00000000000E+00 0. -1.
          1    1    1    2  502    0  0.29688502677E+02 -0.22839733529E+02  0.25499898964E+04  0.25502649926E+04  0.00000000000E+00 0. -1.
         22    1    3    3    0    0 -0.11377838929E+02  0.69415471419E+01  0.41914343318E+03  0.41935528835E+03  0.00000000000E+00 0.  1.
         22    1    3    3    0    0 -0.91255103891E+02  0.57858926625E+01  0.18751021565E+03  0.20861699718E+03  0.00000000000E+00 0.  1.
</event>
<event>
 7    1  0.5889087E-006  0.2761596E+03  0.7818608E-02  0.1227441E+00
          2   -1    0    0  502    0  0.00000000000E+00  0.00000000000E+00  0.87976872312E+03  0.87976872312E+03  0.00000000000E+00 0. -1.
          1   -1    0    0  501    0 -0.00000000000E+00 -0.00000000000E+00 -0.12132200916E+04  0.12132200916E+04  0.00000000000E+00 0. -1.
         25    2    1    2    0    0 -0.29622013228E+03 -0.63702468568E+02 -0.94771384144E+02  0.34119063346E+03  0.12500024736E+03 0.  0.
          2    1    1    2  501    0  0.25152364931E+03  0.10551652202E+03 -0.97525747462E+03  0.10126820944E+04  0.00000000000E+00 0. -1.
          1    1    1    2  502    0  0.44696482967E+02 -0.41814053453E+02  0.73657749026E+03  0.73911608683E+03  0.00000000000E+00 0. -1.
         22    1    3    3    0    0 -0.10223089366E+03  0.33451898961E+02 -0.91663134125E+01  0.10795465004E+03  0.00000000000E+00 0.  1.
         22    1    3    3    0    0 -0.19398923862E+03 -0.97154367529E+02 -0.85605070732E+02  0.23323598343E+03  0.00000000000E+00 0.  1.
</event>
<event>
 7    1  0.5889087E-006  0.6659264E+02  0.7818608E-02  0.1424885E+00
          2   -1    0    0  502    0  0.00000000000E+00  0.00000000000E+00  0.12490347421E+04  0.12490347421E+04  0.00000000000E+00 0. -1.
          1   -1    0    0  501    0 -0.00000000000E+00 -0.00000000000E+00 -0.34883253904E+02  0.34883253904E+02  0.00000000000E+00 0. -1.
         25    2    1    2    0    0 -0.75805535535E+02 -0.67654212077E+02  0.91182578249E+03  0.92594561953E+03  0.12500184431E+03 0.  0.
          2    1    1    2  501    0  0.59348328748E+02  0.27074906478E+02  0.14486910544E+02  0.66821742443E+02  0.00000000000E+00 0. -1.
          1    1    1    2  502    0  0.16457206787E+02  0.40579305599E+02  0.28783879521E+03  0.29115063408E+03  0.00000000000E+00 0. -1.
         22    1    3    3    0    0  0.25317518113E+01 -0.48122449795E+02  0.65403914687E+03  0.65581200475E+03  0.00000000000E+00 0.  1.
         22    1    3    3    0    0 -0.78337287346E+02 -0.19531762282E+02  0.25778663562E+03  0.27013361477E+03  0.00000000000E+00 0.  1.
</event>
<event>
 7    1  0.5889087E-006  0.7327197E+02  0.7818608E-02  0.1514398E+00
          2   -1    0    0  502    0  0.00000000000E+00  0.00000000000E+00  0.14019770102E+04  0.14019770102E+04  0.00000000000E+00 0. -1.
          1   -1    0    0  501    0 -0.00000000000E+00 -0.00000000000E+00 -0.57530162453E+02  0.57530162453E+02  0.00000000000E+00 0. -1.
         25    2    1    2    0    0  0.70225108657E+02  0.56688615569E+02  0.65992436625E+03  0.67769502778E+03  0.12500086593E+03 0.  0.
          2    1    1    2  501    0 -0.49605673919E+02 -0.53031412869E+02 -0.21302985375E+02  0.75676091481E+02  0.00000000000E+00 0. -1.
          1    1    1    2  502    0 -0.20619434737E+02 -0.36572026991E+01  0.70582546684E+03  0.70613605336E+03  0.00000000000E+00 0. -1.
         22    1    3    3    0    0  0.10301600862E+03  0.22471650543E+02  0.41172328972E+03  0.42500981214E+03  0.00000000000E+00 0.  1.
         22    1    3    3    0    0 -0.32790899960E+02  0.34216965025E+02  0.24820107653E+03  0.25268521565E+03  0.00000000000E+00 0.  1.
</event>
<event>
 7    1  0.5889087E-006  0.1064101E+03  0.7818608E-02  0.1354379E+00
          2   -1    0    0  502    0  0.00000000000E+00  0.00000000000E+00  0.38108713055E+02  0.38108713055E+02  0.00000000000E+00 0. -1.
          1   -1    0    0  501    0 -0.00000000000E+00 -0.00000000000E+00 -0.13583554091E+04  0.13583554091E+04  0.00000000000E+00 0. -1.
         25    2    1    2    0    0 -0.92414954868E+02 -0.34619455337E+02 -0.74593300789E+03  0.76274500968E+03  0.12499946784E+03 0.  0.
          2    1    1    2  501    0  0.81711185335E+02  0.81742060934E+02 -0.57387086624E+03  0.58539410098E+03  0.00000000000E+00 0. -1.
          1    1    1    2  502    0  0.10703769532E+02 -0.47122605597E+02 -0.44282186189E+00  0.48325011450E+02  0.00000000000E+00 0. -1.
         22    1    3    3    0    0 -0.11569573930E+03 -0.44544201160E+02 -0.48525622595E+03  0.50084258482E+03  0.00000000000E+00 0.  1.
         22    1    3    3    0    0  0.23280784429E+02  0.99247458233E+01 -0.26067678194E+03  0.26190242486E+03  0.00000000000E+00 0.  1.
</event>
<event>
 7    1  0.5889087E-006  0.1385851E+03  0.7818608E-02  0.1286868E+00
          2   -1    0    0  502    0  0.00000000000E+00  0.00000000000E+00  0.20547025247E+03  0.20547025247E+03  0.00000000000E+00 0. -1.
          1   -1    0    0  501    0 -0.00000000000E+00 -0.00000000000E+00 -0.18614681369E+04  0.18614681369E+04  0.00000000000E+00 0. -1.
         25    2    1    2    0    0  0.97894792262E+02  0.13200288115E+03 -0.30980127325E+03  0.37230154692E+03  0.12499384763E+03 0.  0.
          2    1    1    2  501    0 -0.30114386210E+02 -0.13393402898E+03 -0.15105864200E+04  0.15168113042E+04  0.00000000000E+00 0. -1.
          1    1    1    2  502    0 -0.67780406052E+02  0.19311478312E+01  0.16438980886E+03  0.17782553819E+03  0.00000000000E+00 0. -1.
         22    1    3    3    0    0  0.32119299986E+02 -0.21310698171E+01 -0.46244460261E+01  0.32520399616E+02  0.00000000000E+00 0. -1.
         22    1    3    3    0    0  0.65775492276E+02  0.13413395097E+03 -0.30517682723E+03  0.33978114730E+03  0.00000000000E+00 0. -1.
</event>
<event>
 7    1  0.5889087E-006  0.1358659E+03  0.7818608E-02  0.1268351E+00
          2   -1    0    0  502    0  0.00000000000E+00  0.00000000000E+00  0.19462330666E+04  0.19462330666E+04  0.00000000000E+00 0. -1.
          1   -1    0    0  501    0 -0.00000000000E+00 -0.00000000000E+00 -0.10320494015E+04  0.10320494015E+04  0.00000000000E+00 0. -1.
         25    2    1    2    0    0 -0.37766394178E+02 -0.55204433701E+02  0.15056463257E+04  0.15123052116E+04  0.12498945929E+03 0.  0.
          2    1    1    2  501    0  0.16823519060E+02  0.13505089039E+03 -0.10202649083E+04  0.10293018298E+04  0.00000000000E+00 0. -1.
          1    1    1    2  502    0  0.20942875118E+02 -0.79846456694E+02  0.42880224768E+03  0.43667542669E+03  0.00000000000E+00 0. -1.
         22    1    3    3    0    0 -0.58181912668E+02 -0.82847820397E+02  0.12869122505E+04  0.12908880806E+04  0.00000000000E+00 0. -1.
         22    1    3    3    0    0  0.20415518490E+02  0.27643386696E+02  0.21873407525E+03  0.22141713099E+03  0.00000000000E+00 0. -1.
</event>
<event>
 7    1  0.5889087E-006  0.5193986E+02  0.7818608E-02  0.1528588E+00
          2   -1    0    0  502    0  0.00000000000E+00  0.00000000000E+00  0.16008917530E+04  0.16008917530E+04  0.00000000000E+00 0. -1.
          1   -1    0    0  501    0 -0.00000000000E+00 -0.00000000000E+00 -0.18356765907E+03  0.18356765907E+03  0.00000000000E+00 0. -1.
         25    2    1    2    0    0 -0.31545088433E+02  0.19242332508E+02 -0.43392199212E+02  0.13737950885E+03  0.12499954614E+03 0.  0.
          2    1    1    2  501    0  0.54795022258E+02 -0.57665911427E+01 -0.84910094988E+02  0.10121992031E+03  0.00000000000E+00 0. -1.
          1    1    1    2  502    0 -0.23249933825E+02 -0.13475741365E+02  0.15456263881E+04  0.15458599829E+04  0.00000000000E+00 0. -1.
         22    1    3    3    0    0 -0.60795471252E+02  0.32904582396E+02 -0.67861059082E+02  0.96870657101E+02  0.00000000000E+00 0.  1.
         22    1    3    3    0    0  0.29250382819E+02 -0.13662249889E+02  0.24468859870E+02  0.40508851754E+02  0.00000000000E+00 0.  1.
</event>
<event>
 7    1  0.5889087E-006  0.1082374E+03  0.7818608E-02  0.1395234E+00
          2   -1    0    0  502    0  0.00000000000E+00  0.00000000000E+00  0.11352708644E+04  0.11352708644E+04  0.00000000000E+00 0. -1.
          1   -1    0    0  501    0 -0.00000000000E+00 -0.00000000000E+00 -0.59279629217E+03  0.59279629217E+03  0.00000000000E+00 0. -1.
         25    2    1    2    0    0 -0.14678515642E+02 -0.14079920142E+03  0.68483272290E+03  0.71039485645E+03  0.12500047910E+03 0.  0.
          2    1    1    2  501    0  0.67279855299E+01  0.10778808352E+03 -0.57431593848E+03  0.58438201027E+03  0.00000000000E+00 0. -1.
          1    1    1    2  502    0  0.79505301118E+01  0.33011117902E+02  0.43195778776E+03  0.43329028980E+03  0.00000000000E+00 0. -1.
         22    1    3    3    0    0  0.46100303209E+02 -0.67929177605E+02  0.44431488727E+03  0.45183551230E+03  0.00000000000E+00 0. -1.
         22    1    3    3    0    0 -0.60778818851E+02 -0.72870023817E+02  0.24051783563E+03  0.25855934415E+03  0.00000000000E+00 0. -1.
</event>
<event>
 7    1  0.5889087E-006  0.7712305E+02  0.7818608E-02  0.1344505E+00
          2   -1    0    0  502    0  0.00000000000E+00  0.00000000000E+00  0.31071376835E+03  0.31071376835E+03  0.00000000000E+00 0. -1.
          1   -1    0    0  501    0 -0.00000000000E+00 -0.00000000000E+00 -0.12921040034E+03  0.12921040034E+03  0.00000000000E+00 0. -1.
         25    2    1    2    0    0  0.16030638295E+02  0.34595988439E-01  0.32790467433E+02  0.13022068115E+03  0.12500091394E+03 0.  0.
          2    1    1    2  501    0 -0.92996951508E+02  0.48798247319E+01 -0.43360558803E+02  0.10272479612E+03  0.00000000000E+00 0. -1.
          1    1    1    2  502    0  0.76966313213E+02 -0.49144207203E+01  0.19207345938E+03  0.20697869141E+03  0.00000000000E+00 0. -1.
         22    1    3    3    0    0 -0.36482229404E+02 -0.19968209771E+02  0.55719296398E+02  0.69529292063E+02  0.00000000000E+00 0.  1.
         22    1    3    3    0    0  0.52512867698E+02  0.20002805759E+02 -0.22928828964E+02  0.60691389091E+02  0.00000000000E+00 0.  1.
</event>
<event>
 7    1  0.5889087E-006  0.2012351E+03  0.7818608E-02  0.1327765E+00
          2   -1    0    0  502    0  0.00000000000E+00  0.00000000000E+00  0.81428147635E+03  0.81428147635E+03  0.00000000000E+00 0. -1.
          1   -1    0    0  501    0 -0.00000000000E+00 -0.00000000000E+00 -0.63490961819E+03  0.63490961819E+03  0.00000000000E+00 0. -1.
         25    2    1    2    0    0 -0.14419256428E+03 -0.16660939584E+03  0.16835397483E+03  0.30417020621E+03  0.12500506841E+03 0.  0.
          2    1    1    2  501    0  0.11204298131E+03  0.16556743618E+03 -0.54890381252E+03  0.58417600172E+03  0.00000000000E+00 0. -1.
          1    1    1    2  502    0  0.32149582966E+02  0.10419596533E+01  0.55992169584E+03  0.56084488661E+03  0.00000000000E+00 0. -1.
         22    1    3    3    0    0 -0.80676683185E+02 -0.15445477014E+03  0.72938537534E+02  0.18890482653E+03  0.00000000000E+00 0.  1.
         22    1    3    3    0    0 -0.63515881092E+02 -0.12154625694E+02  0.95415437300E+02  0.11526537968E+03  0.00000000000E+00 0.  1.
</event>
<event>
 7    1  0.5889087E-006  0.8796996E+02  0.7818608E-02  0.1444035E+00
          2   -1    0    0  502    0  0.00000000000E+00  0.00000000000E+00  0.10429847196E+04  0.10429847196E+04  0.00000000000E+00 0. -1.
          1   -1    0    0  501    0 -0.00000000000E+00 -0.00000000000E+00 -0.13569997941E+04  0.13569997941E+04  0.00000000000E+00 0. -1.
         25    2    1    2    0    0 -0.98922686869E+01  0.64502588373E+02 -0.41088241585E+03  0.43440544105E+03  0.12500114669E+03 0.  0.
          2    1    1    2  501    0  0.32113639791E+01 -0.92409823813E+02 -0.93186766039E+03  0.93644392511E+03  0.00000000000E+00 0. -1.
          1    1    1    2  502    0  0.66809047077E+01  0.27907235441E+02  0.10287350017E+04  0.10291351476E+04  0.00000000000E+00 0. -1.
         22    1    3    3    0    0  0.24030907229E+02  0.86893870525E+02 -0.19638103839E+03  0.21608688410E+03  0.00000000000E+00 0.  1.
         22    1    3    3    0    0 -0.33923175916E+02 -0.22391282152E+02 -0.21450137746E+03  0.21831855696E+03  0.00000000000E+00 0.  1.
</event>
<event>
 7    1  0.5889087E-006  0.1451616E+03  0.7818608E-02  0.1343516E+00
          2   -1    0    0  502    0  0.00000000000E+00  0.00000000000E+00  0.20240273360E+04  0.20240273360E+04  0.00000000000E+00 0. -1.
          1   -1    0    0  501    0 -0.00000000000E+00 -0.00000000000E+00 -0.10690921687E+03  0.10690921687E+03  0.00000000000E+00 0. -1.
         25    2    1    2    0    0  0.17496656170E+03 -0.23977353346E+01  0.81669044869E+03  0.84452739442E+03  0.12499673628E+03 0.  0.
          2    1    1    2  501    0 -0.38264400601E+02  0.68257970757E+01 -0.84817030936E+02  0.93298899221E+02  0.00000000000E+00 0. -1.
          1    1    1    2  502    0 -0.13670216110E+03 -0.44280617411E+01  0.11852447014E+04  0.11931102593E+04  0.00000000000E+00 0. -1.
         22    1    3    3    0    0  0.15918957121E+03 -0.40502787928E+02  0.73359417203E+03  0.75175940609E+03  0.00000000000E+00 0.  1.
         22    1    3    3    0    0  0.15776990495E+02  0.38105052594E+02  0.83096276668E+02  0.92767988328E+02  0.00000000000E+00 0.  1.
</event>
<event>
 7    1  0.5889087E-006  0.7579500E+02  0.7818608E-02  0.1401846E+00
          2   -1    0    0  502    0  0.00000000000E+00  0.00000000000E+00  0.78487402004E+03  0.78487402004E+03  0.00000000000E+00 0. -1.
          1   -1    0    0  501    0 -0.00000000000E+00 -0.00000000000E+00 -0.10456226212E+03  0.10456226212E+03  0.00000000000E+00 0. -1.
         25    2    1    2    0    0 -0.69565104930E+02 -0.92255994590E+02  0.47678603038E+03  0.50626147277E+03  0.12500115071E+03 0.  0.
          2    1    1    2  501    0  0.57155415863E+02  0.47950772118E+02 -0.72090149580E+02  0.10374491687E+03  0.00000000000E+00 0. -1.
          1    1    1    2  502    0  0.12409689067E+02  0.44305222472E+02  0.27561587711E+03  0.27942989253E+03  0.00000000000E+00 0. -1.
         22    1    3    3    0    0  0.58699541621E+01  0.18233651504E+02  0.11998844505E+02  0.22602979416E+02  0.00000000000E+00 0. -1.
         22    1    3    3    0    0 -0.75435059092E+02 -0.11048964609E+03  0.46478718588E+03  0.48365849335E+03  0.00000000000E+00 0. -1.
</event>
<event>
 7    1  0.5889087E-006  0.1509466E+03  0.7818608E-02  0.1300891E+00
          2   -1    0    0  502    0  0.00000000000E+00  0.00000000000E+00  0.43470687050E+03  0.43470687050E+03  0.00000000000E+00 0. -1.
          1   -1    0    0  501    0 -0.00000000000E+00 -0.00000000000E+00 -0.53302705545E+03  0.53302705545E+03  0.00000000000E+00 0. -1.
         25    2    1    2    0    0 -0.43910263256E+02  0.14494350260E+03  0.63957008192E+02  0.20652427879E+03  0.12500019467E+03 0.  0.
          2    1    1    2  501    0  0.92618557526E+02 -0.12019081834E+03 -0.44660601038E+03  0.47167887224E+03  0.00000000000E+00 0. -1.
          1    1    1    2  502    0 -0.48708294270E+02 -0.24752684261E+02  0.28432881724E+03  0.28953077491E+03  0.00000000000E+00 0. -1.
         22    1    3    3    0    0  0.19352171007E+01  0.28163196782E+02  0.75434291491E+02  0.80543423387E+02  0.00000000000E+00 0. -1.
         22    1    3    3    0    0 -0.45845480356E+02  0.11678030582E+03 -0.11477283299E+02  0.12598085540E+03  0.00000000000E+00 0. -1.
</event>
<event>
 7    1  0.5889087E-006  0.4062775E+02  0.7818608E-02  0.1531210E+00
          2   -1    0    0  502    0  0.00000000000E+00  0.00000000000E+00  0.14736823892E+04  0.14736823892E+04  0.00000000000E+00 0. -1.
          1   -1    0    0  501    0 -0.00000000000E+00 -0.00000000000E+00 -0.43931417456E+02  0.43931417456E+02  0.00000000000E+00 0. -1.
         25    2    1    2    0    0 -0.56921021092E+02 -0.42838343860E+02  0.21765633187E+03  0.26091063636E+03  0.12499982007E+03 0.  0.
          2    1    1    2  501    0  0.26694420164E+02  0.27788385450E+02 -0.52512307367E+01  0.38889096904E+02  0.00000000000E+00 0. -1.
          1    1    1    2  502    0  0.30226600928E+02  0.15049958410E+02  0.12173458706E+04  0.12178140734E+04  0.00000000000E+00 0. -1.
         22    1    3    3    0    0 -0.35150705753E+02  0.33442423156E+01  0.20538761470E+03  0.20840064381E+03  0.00000000000E+00 0.  1.
         22    1    3    3    0    0 -0.21770315340E+02 -0.46182586176E+02  0.12268717169E+02  0.52509992543E+02  0.00000000000E+00 0.  1.
</event>
<event>
 7    1  0.5889087E-006  0.3687006E+03  0.7818608E-02  0.1147110E+00
          2   -1    0    0  502    0  0.00000000000E+00  0.00000000000E+00  0.13408895989E+04  0.13408895989E+04  0.00000000000E+00 0. -1.
          1   -1    0    0  501    0 -0.00000000000E+00 -0.00000000000E+00 -0.16820326550E+04  0.16820326550E+04  0.00000000000E+00 0. -1.
         25    2    1    2    0    0 -0.57283043149E+02 -0.33554089696E+03 -0.77773955903E+03  0.85812223628E+03  0.12500364055E+03 0.  0.
          2    1    1    2  501    0  0.16196474631E+03  0.37516915803E+03 -0.81314869422E+03  0.91005234745E+03  0.00000000000E+00 0. -1.
          1    1    1    2  502    0 -0.10468170316E+03 -0.39628261070E+02  0.12497451971E+04  0.12547476702E+04  0.00000000000E+00 0. -1.
         22    1    3    3    0    0 -0.16517975618E+02 -0.31767775034E+03 -0.68417429665E+03  0.75451074530E+03  0.00000000000E+00 0. -1.
         22    1    3    3    0    0 -0.40765067531E+02 -0.17863146618E+02 -0.93565262389E+02  0.10361149098E+03  0.00000000000E+00 0. -1.
</event>
<event>
 7    1  0.5889087E-006  0.9103448E+02  0.7818608E-02  0.1324365E+00
          2   -1    0    0  502    0  0.00000000000E+00  0.00000000000E+00  0.13875799172E+04  0.13875799172E+04  0.00000000000E+00 0. -1.
          1   -1    0    0  501    0 -0.00000000000E+00 -0.00000000000E+00 -0.20401515504E+03  0.20401515504E+03  0.00000000000E+00 0. -1.
         25    2    1    2    0    0  0.24324110120E+02 -0.15711785018E+03  0.38831789370E+03  0.43782773330E+03  0.12499862519E+03 0.  0.
          2    1    1    2  501    0 -0.84040514845E+01  0.72793764732E+02 -0.16978739833E+03  0.18492517648E+03  0.00000000000E+00 0. -1.
          1    1    1    2  502    0 -0.15920058635E+02  0.84324085446E+02  0.96503426675E+03  0.96884216240E+03  0.00000000000E+00 0. -1.
         22    1    3    3    0    0  0.63382420060E+02 -0.32454944448E+02  0.15031008360E+03  0.16632430917E+03  0.00000000000E+00 0. -1.
         22    1    3    3    0    0 -0.39058309940E+02 -0.12466290573E+03  0.23800781011E+03  0.27150342413E+03  0.00000000000E+00 0. -1.
</event>
<event>
 7    1  0.5889087E-006  0.7274516E+02  0.7818608E-02  0.1453323E+00
          2   -1    0    0  502    0  0.00000000000E+00  0.00000000000E+00  0.42386172927E+02  0.42386172927E+02  0.00000000000E+00 0. -1.
          1   -1    0    0  501    0 -0.00000000000E+00 -0.00000000000E+00 -0.10594039782E+04  0.10594039782E+04  0.00000000000E+00 0. -1.
         25    2    1    2    0    0 -0.93618821343E+02 -0.23675227928E+02 -0.67244952926E+03  0.69075221977E+03  0.12500103835E+03 0.  0.
          2    1    1    2  501    0  0.22092065183E+02  0.23703187885E+02 -0.33762354376E+03  0.33917481888E+03  0.00000000000E+00 0. -1.
          1    1    1    2  502    0  0.71526756160E+02 -0.27959956396E-01 -0.69447322501E+01  0.71863112475E+02  0.00000000000E+00 0. -1.
         22    1    3    3    0    0 -0.59720974925E+02  0.47660827272E+02 -0.26881705847E+03  0.27946513240E+03  0.00000000000E+00 0.  1.
         22    1    3    3    0    0 -0.33897846419E+02 -0.71336055200E+02 -0.40363247079E+03  0.41128708737E+03  0.00000000000E+00 0.  1.
</event>
<event>
 7    1  0.5889087E-006  0.1048701E+03  0.7818608E-02  0.1354611E+00
          2   -1    0    0  502    0  0.00000000000E+00  0.00000000000E+00  0.45075602291E+03  0.45075602291E+03  0.00000000000E+00 0. -1.
          1   -1    0    0  501    0 -0.00000000000E+00 -0.00000000000E+00 -0.67763712110E+03  0.67763712110E+03  0.00000000000E+00 0. -1.
         25    2    1    2    0    0 -0.64828181567E+02  0.59140554973E+02 -0.15570313618E+03  0.21810308143E+03  0.12500075658E+03 0.  0.
          2    1    1    2  501    0  0.10514773492E+03 -0.31408328704E+02 -0.48313270726E+03  0.49543893881E+03  0.00000000000E+00 0. -1.
          1    1    1    2  502    0 -0.40319553349E+02 -0.27732226270E+02  0.41195474525E+03  0.41485112377E+03  0.00000000000E+00 0. -1.
         22    1    3    3    0    0 -0.93656987646E+02  0.48729989873E+02 -0.68955337306E+02  0.12609949164E+03  0.00000000000E+00 0. -1.
         22    1    3    3    0    0  0.28828806079E+02  0.10410565100E+02 -0.86747798871E+02  0.92003589792E+02  0.00000000000E+00 0. -1.
</event>
<event>
 7    1  0.5889087E-006  0.5260924E+02  0.7818608E-02  0.1448173E+00
          2   -1    0    0  502    0  0.00000000000E+00  0.00000000000E+00  0.99288586160E+02  0.99288586160E+02  0.00000000000E+00 0. -1.
          1   -1    0    0  501    0 -0.00000000000E+00 -0.00000000000E+00 -0.58657226239E+03  0.58657226239E+03  0.00000000000E+00 0. -1.
         25    2    1    2    0    0  0.56284389350E+02  0.38402141470E+02 -0.95629222561E+02  0.17149722305E+03  0.12499476930E+03 0.  0.
          2    1    1    2  501    0 -0.52087287216E+02  0.79428498827E+01 -0.44239141195E+03  0.44551805319E+03  0.00000000000E+00 0. -1.
          1    1    1    2  502    0 -0.41971021338E+01 -0.46344991353E+02  0.50736958283E+02  0.68845572302E+02  0.00000000000E+00 0. -1.
         22    1    3    3    0    0  0.57850653688E+02 -0.34683077646E+02 -0.59549270246E+02  0.89976272394E+02  0.00000000000E+00 0.  1.
         22    1    3    3    0    0 -0.15662643380E+01  0.73085219116E+02 -0.36079952315E+02  0.81520950659E+02  0.00000000000E+00 0.  1.
</event>
<event>
 7    1  0.5889087E-006  0.2149851E+02  0.7818608E-02  0.1726147E+00
          2   -1    0    0  502    0  0.00000000000E+00  0.00000000000E+00  0.77516639404E+03  0.77516639404E+03  0.00000000000E+00 0. -1.
          1   -1    0    0  501    0 -0.00000000000E+00 -0.00000000000E+00 -0.14058032880E+03  0.14058032880E+03  0.00000000000E+00 0. -1.
         25    2    1    2    0    0  0.41322124642E+02  0.62861459631E+01  0.72887374646E+02  0.15061278981E+03  0.12499843782E+03 0.  0.
          2    1    1    2  501    0 -0.21120241376E+02 -0.27290263047E+01 -0.10044241400E+03  0.10267517086E+03  0.00000000000E+00 0. -1.
          1    1    1    2  502    0 -0.20201883267E+02 -0.35571196584E+01  0.66214110459E+03  0.66245876217E+03  0.00000000000E+00 0. -1.
         22    1    3    3    0    0  0.44694353994E+02  0.57851813872E+02  0.65980138038E+02  0.98477389602E+02  0.00000000000E+00 0. -1.
         22    1    3    3    0    0 -0.33722293520E+01 -0.51565667909E+02  0.69072366082E+01  0.52135400212E+02  0.00000000000E+00 0. -1.
</event>
<event>
 7    1  0.5889087E-006  0.5881217E+02  0.7818608E-02  0.1530002E+00
          2   -1    0    0  502    0  0.00000000000E+00  0.00000000000E+00  0.18307624986E+04  0.18307624986E+04  0.00000000000E+00 0. -1.
          1   -1    0    0  501    0 -0.00000000000E+00 -0.00000000000E+00 -0.92987209059E+02  0.92987209059E+02  0.00000000000E+00 0. -1.
         25    2    1    2    0    0 -0.51991610271E+02  0.63396228162E+02  0.69666542892E+03  0.71252348994E+03  0.12499917834E+03 0.  0.
          2    1    1    2  501    0  0.36788527066E+02 -0.45460296371E+02 -0.74867647987E+02  0.95001047284E+02  0.00000000000E+00 0. -1.
          1    1    1    2  502    0  0.15203083204E+02 -0.17935931791E+02  0.11159775086E+04  0.11162251704E+04  0.00000000000E+00 0. -1.
         22    1    3    3    0    0 -0.32014313413E+02  0.76600806518E+02  0.21822186282E+03  0.23348100829E+03  0.00000000000E+00 0. -1.
         22    1    3    3    0    0 -0.19977296858E+02 -0.13204578356E+02  0.47844356611E+03  0.47904248165E+03  0.00000000000E+00 0. -1.
</event>
<event>
 7    1  0.5889087E-006  0.8016696E+02  0.7818608E-02  0.1356232E+00
          2   -1    0    0  502    0  0.00000000000E+00  0.00000000000E+00  0.25139431555E+04  0.25139431555E+04  0.00000000000E+00 0. -1.
          1   -1    0    0  501    0 -0.00000000000E+00 -0.00000000000E+00 -0.79773327493E+02  0.79773327493E+02  0.00000000000E+00 0. -1.
         25    2    1    2    0    0  0.64696681799E+02 -0.88129075950E+02  0.68511863265E+02  0.17964239719E+03  0.12500048318E+03 0.  0.
          2    1    1    2  501    0  0.11023830699E+02  0.62174135795E+02  0.18844401818E+02  0.65895822971E+02  0.00000000000E+00 0. -1.
          1    1    1    2  502    0 -0.75720512498E+02  0.25954940155E+02  0.23468135630E+04  0.23481782629E+04  0.00000000000E+00 0. -1.
         22    1    3    3    0    0  0.85333098075E+02 -0.20819407684E+02  0.10583554224E+02  0.88471447277E+02  0.00000000000E+00 0.  1.
         22    1    3    3    0    0 -0.20636416276E+02 -0.67309668266E+02  0.57928309041E+02  0.91170949908E+02  0.00000000000E+00 0.  1.
</event>
<event>
 7    1  0.5889087E-006  0.7401649E+02  0.7818608E-02  0.1352016E+00
          2   -1    0    0  502    0  0.00000000000E+00  0.00000000000E+00  0.13674204572E+04  0.13674204572E+04  0.00000000000E+00 0. -1.
          1   -1    0    0  501    0 -0.00000000000E+00 -0.00000000000E+00 -0.31177403778E+03  0.31177403778E+03  0.00000000000E+00 0. -1.
         25    2    1    2    0    0 -0.12932299937E+03 -0.58261221415E+02 -0.19387786809E+03  0.27079992429E+03  0.12500065270E+03 0.  0.
          2    1    1    2  501    0  0.57560204971E+02  0.41361377113E+02 -0.62379966332E+02  0.94420341625E+02  0.00000000000E+00 0. -1.
          1    1    1    2  502    0  0.71762794403E+02  0.16899844302E+02  0.13119042538E+04  0.13139742290E+04  0.00000000000E+00 0. -1.
         22    1    3    3    0    0 -0.26398911880E+02  0.64058680473E+01  0.13568005150E+02  0.30364921499E+02  0.00000000000E+00 0.  1.
         22    1    3    3    0    0 -0.10292408749E+03 -0.64667089462E+02 -0.20744587324E+03  0.24043500279E+03  0.00000000000E+00 0.  1.
</event>
<event>
 7    1  0.5889087E-006  0.1296311E+03  0.7818608E-02  0.1259797E+00
          2   -1    0    0  502    0  0.00000000000E+00  0.00000000000E+00  0.27943640337E+03  0.27943640337E+03  0.00000000000E+00 0. -1.
          1   -1    0    0  501    0 -0.00000000000E+00 -0.00000000000E+00 -0.21939918356E+04  0.21939918356E+04  0.00000000000E+00 0. -1.
         25    2    1    2    0    0 -0.12370533541E+03  0.12296019799E+03 -0.31671821773E+03  0.38256198413E+03  0.12498408681E+03 0.  0.
          2    1    1    2  501    0  0.29669329906E+02 -0.12474368741E+03 -0.18330588721E+04  0.18375380500E+04  0.00000000000E+00 0. -1.
          1    1    1    2  502    0  0.94036005505E+02  0.17834894203E+01  0.23522165759E+03  0.25332820484E+03  0.00000000000E+00 0. -1.
         22    1    3    3    0    0 -0.91153680776E+02  0.51742696905E+01 -0.15459435391E+03  0.17954158529E+03  0.00000000000E+00 0. -1.
         22    1    3    3    0    0 -0.32551654634E+02  0.11778592830E+03 -0.16212386382E+03  0.20302039884E+03  0.00000000000E+00 0. -1.
</event>
<event>
 7    1  0.5889087E-006  0.8863251E+03  0.7818608E-02  0.1123550E+00
          2   -1    0    0  502    0  0.00000000000E+00  0.00000000000E+00  0.19796578337E+04  0.19796578337E+04  0.00000000000E+00 0. -1.
          1   -1    0    0  501    0 -0.00000000000E+00 -0.00000000000E+00 -0.17946871781E+04  0.17946871781E+04  0.00000000000E+00 0. -1.
         25    2    1    2    0    0  0.51383444760E+03 -0.65789659341E+03  0.87418264228E+03  0.12151845801E+04  0.12499801750E+03 0.  0.
          2    1    1    2  501    0 -0.56777221644E+03  0.68849761011E+03 -0.15003296498E+04  0.17456756018E+04  0.00000000000E+00 0. -1.
          1    1    1    2  502    0  0.53937768835E+02 -0.30601016704E+02  0.81111766306E+03  0.81348482989E+03  0.00000000000E+00 0. -1.
         22    1    3    3    0    0  0.52028844036E+03 -0.65438708709E+03  0.87061297641E+03  0.12070167669E+04  0.00000000000E+00 0.  1.
         22    1    3    3    0    0 -0.64539927567E+01 -0.35095063169E+01  0.35696658787E+01  0.81678131454E+01  0.00000000000E+00 0.  1.
</event>
<event>
 7    1  0.5889087E-006  0.1136180E+03  0.7818608E-02  0.1333222E+00
          2   -1    0    0  502    0  0.00000000000E+00  0.00000000000E+00  0.17643573853E+04  0.17643573853E+04  0.00000000000E+00 0. -1.
          1   -1    0    0  501    0 -0.00000000000E+00 -0.00000000000E+00 -0.14547676691E+04  0.14547676691E+04  0.00000000000E+00 0. -1.
         25    2    1    2    0    0  0.73904334911E+02 -0.78305618168E+02  0.59545772871E+03  0.61789044902E+03  0.12500031900E+03 0.  0.
          2    1    1    2  501    0 -0.29635802480E+02  0.10975639872E+03 -0.14406739246E+04  0.14451526233E+04  0.00000000000E+00 0. -1.
          1    1    1    2  502    0 -0.44268532430E+02 -0.31450780548E+02  0.11548059121E+04  0.11560819821E+04  0.00000000000E+00 0. -1.
         22    1    3    3    0    0 -0.55999586559E+01  0.29888247855E+02  0.12533133531E+03  0.12896747849E+03  0.00000000000E+00 0. -1.
         22    1    3    3    0    0  0.79504293566E+02 -0.10819386602E+03  0.47012639340E+03  0.48892297053E+03  0.00000000000E+00 0. -1.
</event>
<event>
 7    1  0.5889087E-006  0.9614522E+02  0.7818608E-02  0.1340501E+00
          2   -1    0    0  502    0  0.00000000000E+00  0.00000000000E+00  0.32233453985E+02  0.32233453985E+02  0.00000000000E+00 0. -1.
          1   -1    0    0  501    0 -0.00000000000E+00 -0.00000000000E+00 -0.15851121592E+04  0.15851121592E+04  0.00000000000E+00 0. -1.
         25    2    1    2    0    0  0.40732973018E+02  0.22453618115E+02 -0.32630309150E+03  0.35250802879E+03  0.12499945113E+03 0.  0.
          2    1    1    2  501    0 -0.79979376453E+02 -0.68144690498E+02 -0.11894514151E+04  0.11940833591E+04  0.00000000000E+00 0. -1.
          1    1    1    2  502    0  0.39246403435E+02  0.45691072383E+02 -0.37124198588E+02  0.70754225308E+02  0.00000000000E+00 0. -1.
         22    1    3    3    0    0  0.13499604015E+02  0.59438839651E+02 -0.73122976948E+02  0.95195507905E+02  0.00000000000E+00 0.  1.
         22    1    3    3    0    0  0.27233369003E+02 -0.36985221536E+02 -0.25318011455E+03  0.25731252089E+03  0.00000000000E+00 0.  1.
</event>
<event>
 7    1  0.5889087E-006  0.6511951E+02  0.7818608E-02  0.1504578E+00
          2   -1    0    0  502    0  0.00000000000E+00  0.00000000000E+00  0.87949912214E+02  0.87949912214E+02  0.00000000000E+00 0. -1.
          1   -1    0    0  501    0 -0.00000000000E+00 -0.00000000000E+00 -0.84107369554E+03  0.84107369554E+03  0.00000000000E+00 0. -1.
         25    2    1    2    0    0  0.84163578468E+02 -0.27466952677E+02 -0.69401582996E+03  0.71071855212E+03  0.12499978665E+03 0.  0.
          2    1    1    2  501    0 -0.20879111965E+02  0.14085292600E+02 -0.12408826944E+03  0.12661844809E+03  0.00000000000E+00 0. -1.
          1    1    1    2  502    0 -0.63284466503E+02  0.13381660077E+02  0.64980316070E+02  0.91686607548E+02  0.00000000000E+00 0. -1.
         22    1    3    3    0    0  0.18191459258E+02 -0.67505536597E+02 -0.43032228644E+03  0.43596467387E+03  0.00000000000E+00 0. -1.
         22    1    3    3    0    0  0.65972119210E+02  0.40038583920E+02 -0.26369354352E+03  0.27475387824E+03  0.00000000000E+00 0. -1.
</event>
<event>
 7    1  0.5889087E-006  0.4558850E+02  0.7818608E-02  0.1584205E+00
          2   -1    0    0  502    0  0.00000000000E+00  0.00000000000E+00  0.38143076799E+03  0.38143076799E+03  0.00000000000E+00 0. -1.
          1   -1    0    0  501    0 -0.00000000000E+00 -0.00000000000E+00 -0.68803457955E+02  0.68803457955E+02  0.00000000000E+00 0. -1.
         25    2    1    2    0    0 -0.11798832326E+02  0.24389327711E+02  0.17718605076E+02  0.12912544279E+03  0.12500151703E+03 0.  0.
          2    1    1    2  501    0  0.38385077597E+01  0.21136582776E+02 -0.11032681713E+01  0.21510613053E+02  0.00000000000E+00 0. -1.
          1    1    1    2  502    0  0.79603245667E+01 -0.45525910487E+02  0.29601197313E+03  0.29959817010E+03  0.00000000000E+00 0. -1.
         22    1    3    3    0    0 -0.65222034714E+02  0.34078735085E+02  0.11342742527E+02  0.74457583934E+02  0.00000000000E+00 0.  1.
         22    1    3    3    0    0  0.53423202387E+02 -0.96894073743E+01  0.63758625493E+01  0.54667858855E+02  0.00000000000E+00 0.  1.
</event>
<event>
 7    1  0.5889087E-006  0.4270524E+02  0.7818608E-02  0.1544150E+00
          2   -1    0    0  502    0  0.00000000000E+00  0.00000000000E+00  0.16908639720E+03  0.16908639720E+03  0.00000000000E+00 0. -1.
          1   -1    0    0  501    0 -0.00000000000E+00 -0.00000000000E+00 -0.21573123618E+04  0.21573123618E+04  0.00000000000E+00 0. -1.
         25    2    1    2    0    0  0.55833142222E+02 -0.20401135391E+02 -0.30864490614E+03  0.33825757058E+03  0.12499183923E+03 0.  0.
          2    1    1    2  501    0 -0.28507697334E+02  0.31572659834E+02 -0.18321998110E+04  0.18326935557E+04  0.00000000000E+00 0. -1.
          1    1    1    2  502    0 -0.27325444888E+02 -0.11171524444E+02  0.15261875253E+03  0.15544763273E+03  0.00000000000E+00 0. -1.
         22    1    3    3    0    0  0.10453987428E+02  0.51934169397E+02 -0.12213838783E+03  0.13313237617E+03  0.00000000000E+00 0.  1.
         22    1    3    3    0    0  0.45379154794E+02 -0.72335304788E+02 -0.18650651831E+03  0.20512519441E+03  0.00000000000E+00 0.  1.
</event>
<event>
 7    1  0.5889087E-006  0.7346502E+02  0.7818608E-02  0.1408424E+00
          2   -1    0    0  502    0  0.00000000000E+00  0.00000000000E+00  0.17974009223E+04  0.17974009223E+04  0.00000000000E+00 0. -1.
          1   -1    0    0  501    0 -0.00000000000E+00 -0.00000000000E+00 -0.59571512037E+03  0.59571512037E+03  0.00000000000E+00 0. -1.
         25    2    1    2    0    0  0.32978630857E+02 -0.58665409060E+02  0.26495460120E+03  0.30059143307E+03  0.12500019451E+03 0.  0.
          2    1    1    2  501    0  0.35020584409E+02  0.28382605731E+02 -0.57610115115E+03  0.57786205101E+03  0.00000000000E+00 0. -1.
          1    1    1    2  502    0 -0.67999215266E+02  0.30282803329E+02  0.15128323519E+04  0.15146625586E+04  0.00000000000E+00 0. -1.
         22    1    3    3    0    0 -0.25313651178E+02 -0.75569346034E+02  0.17214201410E+03  0.18969549287E+03  0.00000000000E+00 0.  1.
         22    1    3    3    0    0  0.58292282035E+02  0.16903936974E+02  0.92812587101E+02  0.11089594021E+03  0.00000000000E+00 0.  1.
</event>
<event>
 7    1  0.5889087E-006  0.1054549E+03  0.7818608E-02  0.1366083E+00
          2   -1    0    0  502    0  0.00000000000E+00  0.00000000000E+00  0.27731220911E+02  0.27731220911E+02  0.00000000000E+00 0. -1.
          1   -1    0    0  501    0 -0.00000000000E+00 -0.00000000000E+00 -0.25093635959E+04  0.25093635959E+04  0.00000000000E+00 0. -1.
         25    2    1    2    0    0  0.16166456413E+02 -0.99535526905E+02 -0.19957981011E+04  0.20022494885E+04  0.12499711453E+03 0.  0.
          2    1    1    2  501    0 -0.59933924577E+02  0.10566729481E+03 -0.47367995660E+03  0.48900956411E+03  0.00000000000E+00 0. -1.
          1    1    1    2  502    0  0.43767468164E+02 -0.61317679082E+01 -0.12154317308E+02  0.45835764163E+02  0.00000000000E+00 0. -1.
         22    1    3    3    0    0  0.54908319313E+02 -0.12090879735E+02 -0.10820060514E+04  0.10834658315E+04  0.00000000000E+00 0. -1.
         22    1    3    3    0    0 -0.38741862900E+02 -0.87444647170E+02 -0.91379204973E+03  0.91878365702E+03  0.00000000000E+00 0. -1.
</event>
<event>
 7    1  0.5889087E-006  0.1137785E+03  0.7818608E-02  0.1392943E+00
          2   -1    0    0  502    0  0.00000000000E+00  0.00000000000E+00  0.17135838924E+04  0.17135838924E+04  0.00000000000E+00 0. -1.
          1   -1    0    0  501    0 -0.00000000000E+00 -0.00000000000E+00 -0.94564680654E+02  0.94564680654E+02  0.00000000000E+00 0. -1.
         25    2    1    2    0    0 -0.13753438010E+02  0.82359993049E+02  0.88234694692E+03  0.89506052305E+03  0.12499951866E+03 0.  0.
          2    1    1    2  501    0  0.81975928313E+01 -0.11478515624E+03 -0.50184351911E+02  0.12554402335E+03  0.00000000000E+00 0. -1.
          1    1    1    2  502    0  0.55558451784E+01  0.32425163193E+02  0.78685661677E+03  0.78754402670E+03  0.00000000000E+00 0. -1.
         22    1    3    3    0    0 -0.63392923387E+02  0.55618045387E+02  0.67262746388E+03  0.67789360144E+03  0.00000000000E+00 0.  1.
         22    1    3    3    0    0  0.49639485377E+02  0.26741947662E+02  0.20971948305E+03  0.21716692161E+03  0.00000000000E+00 0.  1.
</event>
<event>
 7    1  0.6818356E-006  0.7817241E+02  0.7818608E-02  0.1339622E+00
          2   -1    0    0  502    0  0.00000000000E+00  0.00000000000E+00  0.16304156492E+04  0.16304156492E+04  0.00000000000E+00 0. -1.
          1   -1    0    0  501    0 -0.00000000000E+00 -0.00000000000E+00 -0.42112319017E+03  0.42112319017E+03  0.00000000000E+00 0. -1.
         25    2    1    2    0    0  0.95178083893E+02 -0.75958551570E+02 -0.40766132912E+02  0.17920714270E+03  0.12499901277E+03 0.  0.
          2    1    1    2  501    0 -0.17258648802E+02  0.72624491017E+02 -0.30566834244E+03  0.31465109760E+03  0.00000000000E+00 0. -1.
          1    1    1    2  502    0 -0.77919435091E+02  0.33340605532E+01  0.15557269344E+04  0.15576805991E+04  0.00000000000E+00 0. -1.
         22    1    3    3    0    0  0.23285929103E+02 -0.96429709143E+02 -0.16144206622E+02  0.10050651077E+03  0.00000000000E+00 0. -1.
         22    1    3    3    0    0  0.71892154790E+02  0.20471157573E+02 -0.24621926289E+02  0.78700631935E+02  0.00000000000E+00 0. -1.
</event>
<event>
 7    1  0.5889087E-006  0.9828776E+02  0.7818608E-02  0.1379076E+00
          2   -1    0    0  502    0  0.00000000000E+00  0.00000000000E+00  0.10859498668E+04  0.10859498668E+04  0.00000000000E+00 0. -1.
          1   -1    0    0  501    0 -0.00000000000E+00 -0.00000000000E+00 -0.51364863521E+03  0.51364863521E+03  0.00000000000E+00 0. -1.
         25    2    1    2    0    0 -0.42441410426E+02  0.44805059605E+02  0.72543630774E+02  0.15715302340E+03  0.12500291082E+03 0.  0.
          2    1    1    2  501    0 -0.41055255318E+02  0.11366195067E+02 -0.46776638644E+03  0.46970215739E+03  0.00000000000E+00 0. -1.
          1    1    1    2  502    0  0.83496665744E+02 -0.56171254672E+02  0.96752398725E+03  0.97274332121E+03  0.00000000000E+00 0. -1.
         22    1    3    3    0    0 -0.20003564393E+02 -0.29371864976E+02  0.71279061274E+02  0.79646428775E+02  0.00000000000E+00 0.  1.
         22    1    3    3    0    0 -0.22437846033E+02  0.74176924582E+02  0.12645694998E+01  0.77506594629E+02  0.00000000000E+00 0.  1.
</event>
<event>
 7    1  0.5889087E-006  0.9798620E+02  0.7818608E-02  0.1291794E+00
          2   -1    0    0  502    0  0.00000000000E+00  0.00000000000E+00  0.15261786594E+04  0.15261786594E+04  0.00000000000E+00 0. -1.
          1   -1    0    0  501    0 -0.00000000000E+00 -0.00000000000E+00 -0.20771934548E+04  0.20771934548E+04  0.00000000000E+00 0. -1.
         25    2    1    2    0    0 -0.71874896432E+02 -0.95159051615E+02 -0.45784048498E+02  0.17871224460E+03  0.12498256450E+03 0.  0.
          2    1    1    2  501    0  0.98047970355E+02  0.74039614598E+01 -0.19622768702E+04  0.19647388474E+04  0.00000000000E+00 0. -1.
          1    1    1    2  502    0 -0.26173073923E+02  0.87755090155E+02  0.14570461233E+04  0.14599210222E+04  0.00000000000E+00 0. -1.
         22    1    3    3    0    0 -0.83752755677E+02 -0.48157148311E+02  0.18328413341E+02  0.98333950152E+02  0.00000000000E+00 0. -1.
         22    1    3    3    0    0  0.11877859245E+02 -0.47001903304E+02 -0.64112461840E+02  0.80378294443E+02  0.00000000000E+00 0. -1.
</event>
<event>
 7    1  0.5889087E-006  0.3939810E+02  0.7818608E-02  0.1517475E+00
          2   -1    0    0  502    0  0.00000000000E+00  0.00000000000E+00  0.26807787183E+03  0.26807787183E+03  0.00000000000E+00 0. -1.
          1   -1    0    0  501    0 -0.00000000000E+00 -0.00000000000E+00 -0.45660851736E+03  0.45660851736E+03  0.00000000000E+00 0. -1.
         25    2    1    2    0    0  0.42363690973E+02  0.82746803225E+01  0.14644944856E+03  0.19732577087E+03  0.12500746465E+03 0.  0.
          2    1    1    2  501    0 -0.16170759460E+02 -0.36010353002E+02 -0.42644015689E+03  0.42826329097E+03  0.00000000000E+00 0. -1.
          1    1    1    2  502    0 -0.26192931513E+02  0.27735672679E+02  0.91460062804E+02  0.99097327352E+02  0.00000000000E+00 0. -1.
         22    1    3    3    0    0  0.37276035427E+01  0.62712444258E+02  0.90814901602E+02  0.11042686288E+03  0.00000000000E+00 0.  1.
         22    1    3    3    0    0  0.38636087430E+02 -0.54437763935E+02  0.55634546957E+02  0.86898907987E+02  0.00000000000E+00 0.  1.
</event>
<event>
 7    1  0.5889087E-006  0.1999694E+03  0.7818608E-02  0.1266497E+00
          2   -1    0    0  502    0  0.00000000000E+00  0.00000000000E+00  0.60241695029E+03  0.60241695029E+03  0.00000000000E+00 0. -1.
          1   -1    0    0  501    0 -0.00000000000E+00 -0.00000000000E+00 -0.27425060995E+04  0.27425060995E+04  0.00000000000E+00 0. -1.
         25    2    1    2    0    0 -0.12557581246E+03  0.12867871598E+03  0.16720064247E+02  0.21961763648E+03  0.12499939633E+03 0.  0.
          2    1    1    2  501    0  0.25821409823E+02  0.50932801888E+02 -0.26189398999E+04  0.26195623861E+04  0.00000000000E+00 0. -1.
          1    1    1    2  502    0  0.99754402640E+02 -0.17961151787E+03  0.46213068645E+03  0.50574302719E+03  0.00000000000E+00 0. -1.
         22    1    3    3    0    0 -0.42853705588E+02  0.66620396229E+02  0.67809845132E+02  0.10427316229E+03  0.00000000000E+00 0. -1.
         22    1    3    3    0    0 -0.82722106876E+02  0.62058319751E+02 -0.51089780885E+02  0.11534447419E+03  0.00000000000E+00 0. -1.
</event>
<event>
 7    1  0.5889087E-006  0.1156539E+03  0.7818608E-02  0.1359183E+00
          2   -1    0    0  502    0  0.00000000000E+00  0.00000000000E+00  0.11655483321E+04  0.11655483321E+04  0.00000000000E+00 0. -1.
          1   -1    0    0  501    0 -0.00000000000E+00 -0.00000000000E+00 -0.58928849776E+03  0.58928849776E+03  0.00000000000E+00 0. -1.
         25    2    1    2    0    0  0.14272342082E+00  0.86498408273E+02  0.38559558987E+03  0.41447702381E+03  0.12500099735E+03 0.  0.
          2    1    1    2  501    0 -0.35364783583E+02 -0.11062570938E+03 -0.56837557764E+03  0.58012025714E+03  0.00000000000E+00 0. -1.
          1    1    1    2  502    0  0.35222060163E+02  0.24127301103E+02  0.75903982215E+03  0.76023954895E+03  0.00000000000E+00 0. -1.
         22    1    3    3    0    0  0.49422677073E+02 -0.15993194497E+01  0.15655313736E+03  0.16417686697E+03  0.00000000000E+00 0.  1.
         22    1    3    3    0    0 -0.49279953653E+02  0.88097727723E+02  0.22904245251E+03  0.25030015684E+03  0.00000000000E+00 0.  1.
</event>
<event>
 7    1  0.5889087E-006  0.1179139E+03  0.7818608E-02  0.1380409E+00
          2   -1    0    0  502    0  0.00000000000E+00  0.00000000000E+00  0.80439487854E+03  0.80439487854E+03  0.00000000000E+00 0. -1.
          1   -1    0    0  501    0 -0.00000000000E+00 -0.00000000000E+00 -0.13317707922E+03  0.13317707922E+03  0.00000000000E+00 0. -1.
         25    2    1    2    0    0  0.79415134199E+02  0.72603836277E+02  0.63025530051E+02  0.17656551356E+03  0.12500033023E+03 0.  0.
          2    1    1    2  501    0 -0.11019280080E+03 -0.55676945703E+02 -0.25729254416E+02  0.12611252977E+03  0.00000000000E+00 0. -1.
          1    1    1    2  502    0  0.30777666603E+02 -0.16926890575E+02  0.63392152369E+03  0.63489391443E+03  0.00000000000E+00 0. -1.
         22    1    3    3    0    0 -0.19501662184E+02 -0.14902171324E+02  0.33002277103E+02  0.41128333690E+02  0.00000000000E+00 0. -1.
         22    1    3    3    0    0  0.98916796383E+02  0.87506007601E+02  0.30023252948E+02  0.13543717987E+03  0.00000000000E+00 0. -1.
</event>
<event>
 7    1  0.5889087E-006  0.8860123E+02  0.7818608E-02  0.1344847E+00
          2   -1    0    0  502    0  0.00000000000E+00  0.00000000000E+00  0.15934273303E+03  0.15934273303E+03  0.00000000000E+00 0. -1.
          1   -1    0    0  501    0 -0.00000000000E+00 -0.00000000000E+00 -0.27502605375E+04  0.27502605375E+04  0.00000000000E+00 0. -1.
         25    2    1    2    0    0  0.12786873603E+03 -0.31202001226E+02 -0.15204987397E+04  0.15312940109E+04  0.12498380694E+03 0.  0.
          2    1    1    2  501    0 -0.66254010145E+02  0.44126528400E+02 -0.12165721177E+04  0.12191736800E+04  0.00000000000E+00 0. -1.
          1    1    1    2  502    0 -0.61614725882E+02 -0.12924527174E+02  0.14615305288E+03  0.15913557966E+03  0.00000000000E+00 0. -1.
         22    1    3    3    0    0  0.89136256229E+02  0.75956035803E+01 -0.41956790370E+03  0.42899905733E+03  0.00000000000E+00 0. -1.
         22    1    3    3    0    0  0.38732479798E+02 -0.38797604806E+02 -0.11009308360E+04  0.11022949536E+04  0.00000000000E+00 0. -1.
</event>
<event>
 7    1  0.5889087E-006  0.8202325E+02  0.7818608E-02  0.1422128E+00
          2   -1    0    0  502    0  0.00000000000E+00  0.00000000000E+00  0.82350853858E+03  0.82350853858E+03  0.00000000000E+00 0. -1.
          1   -1    0    0  501    0 -0.00000000000E+00 -0.00000000000E+00 -0.21940401970E+04  0.21940401970E+04  0.00000000000E+00 0. -1.
         25    2    1    2    0    0  0.16756019441E+02 -0.11258528602E+03 -0.12253258129E+03  0.20879483944E+03  0.12499936273E+03 0.  0.
          2    1    1    2  501    0 -0.18938688781E+02  0.30979264968E+02 -0.20260784144E+04  0.20264037431E+04  0.00000000000E+00 0. -1.
          1    1    1    2  502    0  0.21826693393E+01  0.81606021051E+02  0.77807933732E+03  0.78235015298E+03  0.00000000000E+00 0. -1.
         22    1    3    3    0    0  0.10598127045E+02 -0.13753593733E+03 -0.81037405401E+02  0.15998598510E+03  0.00000000000E+00 0. -1.
         22    1    3    3    0    0  0.61578923965E+01  0.24950651312E+02 -0.41495175892E+02  0.48808854339E+02  0.00000000000E+00 0. -1.
</event>
<event>
 7    1  0.5889087E-006  0.6827714E+02  0.7818608E-02  0.1410201E+00
          2   -1    0    0  502    0  0.00000000000E+00  0.00000000000E+00  0.96181605415E+03  0.96181605415E+03  0.00000000000E+00 0. -1.
          1   -1    0    0  501    0 -0.00000000000E+00 -0.00000000000E+00 -0.71973536544E+03  0.71973536544E+03  0.00000000000E+00 0. -1.
         25    2    1    2    0    0  0.10503319769E+03  0.39967785416E+02  0.36577298923E+00  0.16809132058E+03  0.12500064711E+03 0.  0.
          2    1    1    2  501    0 -0.47650719104E+02 -0.41884509744E+01 -0.63366710611E+03  0.63547001150E+03  0.00000000000E+00 0. -1.
          1    1    1    2  502    0 -0.57382478584E+02 -0.35779334442E+02  0.87538202183E+03  0.87799008751E+03  0.00000000000E+00 0. -1.
         22    1    3    3    0    0  0.18971649123E+02 -0.25289984008E+01  0.54592411282E+02  0.57850243499E+02  0.00000000000E+00 0. -1.
         22    1    3    3    0    0  0.86061548566E+02  0.42496783817E+02 -0.54226638293E+02  0.11024107708E+03  0.00000000000E+00 0. -1.
</event>
<event>
 7    1  0.5889087E-006  0.5118274E+02  0.7818608E-02  0.1545486E+00
          2   -1    0    0  502    0  0.00000000000E+00  0.00000000000E+00  0.53545681279E+03  0.53545681279E+03  0.00000000000E+00 0. -1.
          1   -1    0    0  501    0 -0.00000000000E+00 -0.00000000000E+00 -0.10812528617E+04  0.10812528617E+04  0.00000000000E+00 0. -1.
         25    2    1    2    0    0 -0.21289447426E+02 -0.27647758634E+02 -0.58253949020E+03  0.59682088332E+03  0.12500107999E+03 0.  0.
          2    1    1    2  501    0  0.18325747402E+02  0.51886568104E+02 -0.48974881045E+03  0.49283054522E+03  0.00000000000E+00 0. -1.
          1    1    1    2  502    0  0.29637000241E+01 -0.24238809470E+02  0.52649225177E+03  0.52705824591E+03  0.00000000000E+00 0. -1.
         22    1    3    3    0    0  0.79923749192E+01 -0.13076193398E+02 -0.55155427758E+03  0.55176714835E+03  0.00000000000E+00 0.  1.
         22    1    3    3    0    0 -0.29281822345E+02 -0.14571565236E+02 -0.30985212624E+02  0.45053734969E+02  0.00000000000E+00 0.  1.
</event>
<event>
 7    1  0.5889087E-006  0.1762268E+03  0.7818608E-02  0.1277426E+00
          2   -1    0    0  502    0  0.00000000000E+00  0.00000000000E+00  0.20631009593E+04  0.20631009593E+04  0.00000000000E+00 0. -1.
          1   -1    0    0  501    0 -0.00000000000E+00 -0.00000000000E+00 -0.15259239143E+03  0.15259239143E+03  0.00000000000E+00 0. -1.
         25    2    1    2    0    0 -0.18340786940E+03  0.11563120342E+03  0.14792188832E+04  0.15002408133E+04  0.12499988761E+03 0.  0.
          2    1    1    2  501    0  0.12542734041E+03 -0.12190419570E+03 -0.85985394941E+02  0.19490033041E+03  0.00000000000E+00 0. -1.
          1    1    1    2  502    0  0.57980528999E+02  0.62729922772E+01  0.51727507963E+03  0.52055220697E+03  0.00000000000E+00 0. -1.
         22    1    3    3    0    0 -0.10377763304E+03  0.53690923620E+02  0.11497652980E+04  0.11556871345E+04  0.00000000000E+00 0.  1.
         22    1    3    3    0    0 -0.79630236366E+02  0.61940279801E+02  0.32945358515E+03  0.34455367880E+03  0.00000000000E+00 0.  1.
</event>
<event>
 7    1  0.5889087E-006  0.9156323E+02  0.7818608E-02  0.1356663E+00
          2   -1    0    0  502    0  0.00000000000E+00  0.00000000000E+00  0.92189964407E+03  0.92189964407E+03  0.00000000000E+00 0. -1.
          1   -1    0    0  501    0 -0.00000000000E+00 -0.00000000000E+00 -0.14580099250E+04  0.14580099250E+04  0.00000000000E+00 0. -1.
         25    2    1    2    0    0  0.83723848971E+02 -0.10182464105E+03  0.50234955304E+02  0.18848905833E+03  0.12500653568E+03 0.  0.
          2    1    1    2  501    0 -0.52359271354E+02  0.17108620853E+02 -0.13857918736E+04  0.13868861940E+04  0.00000000000E+00 0. -1.
          1    1    1    2  502    0 -0.31364577616E+02  0.84716020197E+02  0.79944663737E+03  0.80453431673E+03  0.00000000000E+00 0. -1.
         22    1    3    3    0    0  0.74855556929E+02 -0.50946215269E+02  0.86625085321E+02  0.12531072045E+03  0.00000000000E+00 0. -1.
         22    1    3    3    0    0  0.88682920413E+01 -0.50878425782E+02 -0.36390130018E+02  0.63178337873E+02  0.00000000000E+00 0. -1.
</event>
<event>
 7    1  0.5889087E-006  0.6658331E+02  0.7818608E-02  0.1396980E+00
          2   -1    0    0  502    0  0.00000000000E+00  0.00000000000E+00  0.82588100878E+03  0.82588100878E+03  0.00000000000E+00 0. -1.
          1   -1    0    0  501    0 -0.00000000000E+00 -0.00000000000E+00 -0.11747622754E+04  0.11747622754E+04  0.00000000000E+00 0. -1.
         25    2    1    2    0    0 -0.32927210343E+02  0.29061224368E+02  0.13171912925E+03  0.18682440570E+03  0.12499869444E+03 0.  0.
          2    1    1    2  501    0  0.36987650677E+02  0.39938531696E+02 -0.11447694519E+04  0.11460629436E+04  0.00000000000E+00 0. -1.
          1    1    1    2  502    0 -0.40604403336E+01 -0.68999756064E+02  0.66416905608E+03  0.66775593488E+03  0.00000000000E+00 0. -1.
         22    1    3    3    0    0 -0.43045769713E+02 -0.41676251629E+02  0.48114831681E+02  0.76843251283E+02  0.00000000000E+00 0.  1.
         22    1    3    3    0    0  0.10118559370E+02  0.70737475997E+02  0.83604297567E+02  0.10998115441E+03  0.00000000000E+00 0.  1.
</event>
<event>
 7    1  0.5889087E-006  0.1084340E+03  0.7818608E-02  0.1349985E+00
          2   -1    0    0  502    0  0.00000000000E+00  0.00000000000E+00  0.16822623547E+04  0.16822623547E+04  0.00000000000E+00 0. -1.
          1   -1    0    0  501    0 -0.00000000000E+00 -0.00000000000E+00 -0.94700611631E+03  0.94700611631E+03  0.00000000000E+00 0. -1.
         25    2    1    2    0    0 -0.15491470033E+03  0.27363371490E+02  0.55181665495E+03  0.58725950143E+03  0.12499913141E+03 0.  0.
          2    1    1    2  501    0  0.10688974265E+03 -0.16553419255E+02 -0.92558942667E+03  0.93188798658E+03  0.00000000000E+00 0. -1.
          1    1    1    2  502    0  0.48024957683E+02 -0.10809952235E+02  0.11090290101E+04  0.11101209830E+04  0.00000000000E+00 0. -1.
         22    1    3    3    0    0 -0.11732460751E+03  0.50152526582E+02  0.51295471055E+03  0.52858573053E+03  0.00000000000E+00 0. -1.
         22    1    3    3    0    0 -0.37590092817E+02 -0.22789155092E+02  0.38861944407E+02  0.58673770893E+02  0.00000000000E+00 0. -1.
</event>
<event>
 7    1  0.5889087E-006  0.1192166E+03  0.7818608E-02  0.1343233E+00
          2   -1    0    0  502    0  0.00000000000E+00  0.00000000000E+00  0.30755247318E+03  0.30755247318E+03  0.00000000000E+00 0. -1.
          1   -1    0    0  501    0 -0.00000000000E+00 -0.00000000000E+00 -0.87511731257E+03  0.87511731257E+03  0.00000000000E+00 0. -1.
         25    2    1    2    0    0  0.10727842070E+03 -0.76320920438E+02  0.18882487215E+03  0.26194088271E+03  0.12499860499E+03 0.  0.
          2    1    1    2  501    0 -0.84117740334E+00  0.47435487351E+02 -0.80053142784E+03  0.80193603236E+03  0.00000000000E+00 0. -1.
          1    1    1    2  502    0 -0.10643724330E+03  0.28885433087E+02  0.44141716304E+02  0.11879287068E+03  0.00000000000E+00 0. -1.
         22    1    3    3    0    0 -0.20002929631E+02  0.10096876850E+02  0.63970677547E+01  0.23302072694E+02  0.00000000000E+00 0. -1.
         22    1    3    3    0    0  0.12728135034E+03 -0.86417797288E+02  0.18242780439E+03  0.23863881002E+03  0.00000000000E+00 0. -1.
</event>
<event>
 7    1  0.5889087E-006  0.2030194E+03  0.7818608E-02  0.1200101E+00
          2   -1    0    0  502    0  0.00000000000E+00  0.00000000000E+00  0.61013109176E+03  0.61013109176E+03  0.00000000000E+00 0. -1.
          1   -1    0    0  501    0 -0.00000000000E+00 -0.00000000000E+00 -0.18217722976E+04  0.18217722976E+04  0.00000000000E+00 0. -1.
         25    2    1    2    0    0  0.10255516671E+03  0.20566194247E+02  0.14855304784E+01  0.16299574397E+03  0.12499950075E+03 0.  0.
          2    1    1    2  501    0 -0.19253261630E+03 -0.86034635012E+02 -0.17286736141E+04  0.17414887972E+04  0.00000000000E+00 0. -1.
          1    1    1    2  502    0  0.89977449589E+02  0.65468440765E+02  0.51554687780E+03  0.52741884815E+03  0.00000000000E+00 0. -1.
         22    1    3    3    0    0  0.76922013241E+01 -0.40964718855E+02  0.23430533662E+02  0.47814935530E+02  0.00000000000E+00 0. -1.
         22    1    3    3    0    0  0.94862965386E+02  0.61530913102E+02 -0.21945003184E+02  0.11518080844E+03  0.00000000000E+00 0. -1.
</event>
<event>
 7    1  0.5889087E-006  0.1128743E+03  0.7818608E-02  0.1274939E+00
          2   -1    0    0  502    0  0.00000000000E+00  0.00000000000E+00  0.30367812581E+04  0.30367812581E+04  0.00000000000E+00 0. -1.
          1   -1    0    0  501    0 -0.00000000000E+00 -0.00000000000E+00 -0.15285028254E+04  0.15285028254E+04  0.00000000000E+00 0. -1.
         25    2    1    2    0    0 -0.18531894093E+02  0.20128392122E+03 -0.21490954405E+03  0.32042039593E+03  0.12499787983E+03 0.  0.
          2    1    1    2  501    0  0.93569450200E+01 -0.10849126298E+03 -0.12577562912E+04  0.12624614032E+04  0.00000000000E+00 0. -1.
          1    1    1    2  502    0  0.91749490732E+01 -0.92792658244E+02  0.29809442679E+04  0.29824022844E+04  0.00000000000E+00 0. -1.
         22    1    3    3    0    0  0.39749227448E+02  0.16336328650E+03 -0.15230824333E+03  0.22685979248E+03  0.00000000000E+00 0. -1.
         22    1    3    3    0    0 -0.58281121541E+02  0.37920634724E+02 -0.62601300717E+02  0.93560603447E+02  0.00000000000E+00 0. -1.
</event>
<event>
 7    1  0.5889087E-006  0.1223850E+03  0.7818608E-02  0.1318114E+00
          2   -1    0    0  502    0  0.00000000000E+00  0.00000000000E+00  0.10932955410E+04  0.10932955410E+04  0.00000000000E+00 0. -1.
          1   -1    0    0  501    0 -0.00000000000E+00 -0.00000000000E+00 -0.41597343285E+03  0.41597343285E+03  0.00000000000E+00 0. -1.
         25    2    1    2    0    0 -0.17631508307E+03  0.28746574226E+02 -0.12828498995E+03  0.25297724992E+03  0.12500830486E+03 0.  0.
          2    1    1    2  501    0  0.57468337902E+02 -0.43227931649E+01 -0.21801526133E+03  0.22550377064E+03  0.00000000000E+00 0. -1.
          1    1    1    2  502    0  0.11884674517E+03 -0.24423781061E+02  0.10236223595E+04  0.10307879533E+04  0.00000000000E+00 0. -1.
         22    1    3    3    0    0  0.11260223108E+02 -0.20989468768E+02 -0.11057757441E+02  0.26260701119E+02  0.00000000000E+00 0.  1.
         22    1    3    3    0    0 -0.18757530618E+03  0.49736042994E+02 -0.11722723251E+03  0.22671654880E+03  0.00000000000E+00 0.  1.
</event>
<event>
 7    1  0.5889087E-006  0.1003133E+03  0.7818608E-02  0.1320382E+00
          2   -1    0    0  502    0  0.00000000000E+00  0.00000000000E+00  0.18705119848E+04  0.18705119848E+04  0.00000000000E+00 0. -1.
          1   -1    0    0  501    0 -0.00000000000E+00 -0.00000000000E+00 -0.23859816871E+03  0.23859816871E+03  0.00000000000E+00 0. -1.
         25    2    1    2    0    0  0.14501479818E+03  0.83177667730E+02  0.98833037598E+02  0.23095714903E+03  0.12500167704E+03 0.  0.
          2    1    1    2  501    0 -0.56026647951E+02 -0.40101335537E+02 -0.16416132555E+03  0.17803382600E+03  0.00000000000E+00 0. -1.
          1    1    1    2  502    0 -0.88988150233E+02 -0.43076332193E+02  0.16972421040E+04  0.17001191785E+04  0.00000000000E+00 0. -1.
         22    1    3    3    0    0  0.80214514847E+02  0.54812969065E+02  0.12251573453E+03  0.15636155274E+03  0.00000000000E+00 0.  1.
         22    1    3    3    0    0  0.64800283338E+02  0.28364698665E+02 -0.23682696928E+02  0.74595596283E+02  0.00000000000E+00 0.  1.
</event>
<event>
 7    1  0.5889087E-006  0.8673482E+02  0.7818608E-02  0.1315736E+00
          2   -1    0    0  502    0  0.00000000000E+00  0.00000000000E+00  0.29312542098E+04  0.29312542098E+04  0.00000000000E+00 0. -1.
          1   -1    0    0  501    0 -0.00000000000E+00 -0.00000000000E+00 -0.21302842630E+03  0.21302842630E+03  0.00000000000E+00 0. -1.
         25    2    1    2    0    0  0.75184576709E+02  0.13623346850E+03  0.16622111615E+03  0.25974330259E+03  0.12499938109E+03 0.  0.
          2    1    1    2  501    0 -0.80173765560E+01 -0.82684892681E+02 -0.15516692735E+03  0.17600524182E+03  0.00000000000E+00 0. -1.
          1    1    1    2  502    0 -0.67167200153E+02 -0.53548575816E+02  0.27071715947E+04  0.27085340917E+04  0.00000000000E+00 0. -1.
         22    1    3    3    0    0  0.34337701654E+02  0.80957744862E+02  0.92985217150E+01  0.88429049039E+02  0.00000000000E+00 0. -1.
         22    1    3    3    0    0  0.40846875055E+02  0.55275723636E+02  0.15692259443E+03  0.17131425355E+03  0.00000000000E+00 0. -1.
</event>
<event>
 7    1  0.5946568E-006  0.1079580E+03  0.7818608E-02  0.1295253E+00
          2   -1    0    0  502    0  0.00000000000E+00  0.00000000000E+00  0.24648115012E+04  0.24648115012E+04  0.00000000000E+00 0. -1.
          1   -1    0    0  501    0 -0.00000000000E+00 -0.00000000000E+00 -0.62608776855E+03  0.62608776855E+03  0.00000000000E+00 0. -1.
         25    2    1    2    0    0 -0.56998250801E+02 -0.16714437986E+03 -0.10346297090E+03  0.23982355936E+03  0.12499883586E+03 0.  0.
          2    1    1    2  501    0  0.54657855287E+02  0.86697341083E+02 -0.44798015210E+03  0.45955426967E+03  0.00000000000E+00 0. -1.
          1    1    1    2  502    0  0.23403955136E+01  0.80447038773E+02  0.23901668557E+04  0.23915214407E+04  0.00000000000E+00 0. -1.
         22    1    3    3    0    0 -0.60495503334E+02 -0.50070700865E+02 -0.93752227897E+02  0.12229579406E+03  0.00000000000E+00 0.  1.
         22    1    3    3    0    0  0.34972525337E+01 -0.11707367899E+03 -0.97107429987E+01  0.11752776530E+03  0.00000000000E+00 0.  1.
</event>
<event>
 7    1  0.5889087E-006  0.6460490E+02  0.7818608E-02  0.1537870E+00
          2   -1    0    0  502    0  0.00000000000E+00  0.00000000000E+00  0.30136412734E+03  0.30136412734E+03  0.00000000000E+00 0. -1.
          1   -1    0    0  501    0 -0.00000000000E+00 -0.00000000000E+00 -0.86629255709E+02  0.86629255709E+02  0.00000000000E+00 0. -1.
         25    2    1    2    0    0 -0.12652983114E+02 -0.46473920190E+02  0.23599530607E+03  0.27136434747E+03  0.12499960540E+03 0.  0.
          2    1    1    2  501    0  0.54761646563E+01  0.65491902367E+02 -0.49186569126E+02  0.82088344102E+02  0.00000000000E+00 0. -1.
          1    1    1    2  502    0  0.71768184577E+01 -0.19017982178E+02  0.27926134682E+02  0.34540691475E+02  0.00000000000E+00 0. -1.
         22    1    3    3    0    0 -0.19062153855E+02 -0.79257520880E+01 -0.95378373672E+01  0.22741011354E+02  0.00000000000E+00 0.  1.
         22    1    3    3    0    0  0.64091707412E+01 -0.38548168102E+02  0.24553314344E+03  0.24862333611E+03  0.00000000000E+00 0.  1.
</event>
<event>
 7    1  0.5889087E-006  0.1802483E+03  0.7818608E-02  0.1225293E+00
          2   -1    0    0  502    0  0.00000000000E+00  0.00000000000E+00  0.18390641532E+03  0.18390641532E+03  0.00000000000E+00 0. -1.
          1   -1    0    0  501    0 -0.00000000000E+00 -0.00000000000E+00 -0.23734503660E+04  0.23734503660E+04  0.00000000000E+00 0. -1.
         25    2    1    2    0    0  0.20490862071E+03  0.97537950910E+02 -0.78775486693E+03  0.82926650793E+03  0.12499606431E+03 0.  0.
          2    1    1    2  501    0 -0.11443377310E+03 -0.12930575675E+03 -0.15456147452E+04  0.15552298891E+04  0.00000000000E+00 0. -1.
          1    1    1    2  502    0 -0.90474847610E+02  0.31767805838E+02  0.14382566154E+03  0.17286038428E+03  0.00000000000E+00 0. -1.
         22    1    3    3    0    0  0.19267025717E+03  0.12183684762E+03 -0.73986977783E+03  0.77419205213E+03  0.00000000000E+00 0. -1.
         22    1    3    3    0    0  0.12238363546E+02 -0.24298896711E+02 -0.47885089098E+02  0.55074455799E+02  0.00000000000E+00 0. -1.
</event>
<event>
 7    1  0.5889087E-006  0.7090829E+02  0.7818608E-02  0.1443033E+00
          2   -1    0    0  502    0  0.00000000000E+00  0.00000000000E+00  0.92945904792E+03  0.92945904792E+03  0.00000000000E+00 0. -1.
          1   -1    0    0  501    0 -0.00000000000E+00 -0.00000000000E+00 -0.16764060333E+03  0.16764060333E+03  0.00000000000E+00 0. -1.
         25    2    1    2    0    0 -0.46763860679E+02 -0.28734382826E+02  0.36869691957E+03  0.39316222393E+03  0.12500636944E+03 0.  0.
          2    1    1    2  501    0  0.68482054560E+01 -0.35206869407E+02 -0.15070381199E+03  0.15491307408E+03  0.00000000000E+00 0. -1.
          1    1    1    2  502    0  0.39915655222E+02  0.63941252233E+02  0.54382533701E+03  0.54902435324E+03  0.00000000000E+00 0. -1.
         22    1    3    3    0    0  0.32675726209E+02  0.24438512173E+02  0.10262621310E+03  0.11044040735E+03  0.00000000000E+00 0. -1.
         22    1    3    3    0    0 -0.79439586888E+02 -0.53172894999E+02  0.26607070647E+03  0.28272181658E+03  0.00000000000E+00 0. -1.
</event>
<event>
 7    1  0.5889087E-006  0.8663183E+02  0.7818608E-02  0.1416521E+00
          2   -1    0    0  502    0  0.00000000000E+00  0.00000000000E+00  0.13073825080E+04  0.13073825080E+04  0.00000000000E+00 0. -1.
          1   -1    0    0  501    0 -0.00000000000E+00 -0.00000000000E+00 -0.19384634831E+03  0.19384634831E+03  0.00000000000E+00 0. -1.
         25    2    1    2    0    0 -0.61146367206E+02  0.35072705126E+01  0.18131256266E+02  0.14037641554E+03  0.12500246564E+03 0.  0.
          2    1    1    2  501    0 -0.19474527331E+02  0.30152234986E+02 -0.12871125491E+03  0.13362260898E+03  0.00000000000E+00 0. -1.
          1    1    1    2  502    0  0.80620894537E+02 -0.33659505499E+02  0.12241161584E+04  0.12272298318E+04  0.00000000000E+00 0. -1.
         22    1    3    3    0    0 -0.56684331439E+02  0.45319613198E+02  0.49558023212E+02  0.87880478127E+02  0.00000000000E+00 0.  1.
         22    1    3    3    0    0 -0.44620357671E+01 -0.41812342686E+02 -0.31426766946E+02  0.52495937412E+02  0.00000000000E+00 0.  1.
</event>
<event>
 7    1  0.5889087E-006  0.8845074E+02  0.7818608E-02  0.1346834E+00
          2   -1    0    0  502    0  0.00000000000E+00  0.00000000000E+00  0.32564924685E+04  0.32564924685E+04  0.00000000000E+00 0. -1.
          1   -1    0    0  501    0 -0.00000000000E+00 -0.00000000000E+00 -0.29196680108E+03  0.29196680108E+03  0.00000000000E+00 0. -1.
         25    2    1    2    0    0 -0.19686135287E+01  0.99232674405E+02  0.41274584488E+03  0.44253441600E+03  0.12500631092E+03 0.  0.
          2    1    1    2  501    0 -0.54106016364E+02 -0.30266590011E+02 -0.27289668087E+03  0.27985018475E+03  0.00000000000E+00 0. -1.
          1    1    1    2  502    0  0.56074629893E+02 -0.68966084394E+02  0.28246765034E+04  0.28260746688E+04  0.00000000000E+00 0. -1.
         22    1    3    3    0    0  0.34420586447E+02  0.12065819514E+01  0.29717209555E+02  0.45490055563E+02  0.00000000000E+00 0.  1.
         22    1    3    3    0    0 -0.36389199976E+02  0.98026092454E+02  0.38302863532E+03  0.39704436044E+03  0.00000000000E+00 0.  1.
</event>
<event>
 7    1  0.5889087E-006  0.9267632E+02  0.7818608E-02  0.1430309E+00
          2   -1    0    0  502    0  0.00000000000E+00  0.00000000000E+00  0.21626308669E+03  0.21626308669E+03  0.00000000000E+00 0. -1.
          1   -1    0    0  501    0 -0.00000000000E+00 -0.00000000000E+00 -0.55615390044E+03  0.55615390044E+03  0.00000000000E+00 0. -1.
         25    2    1    2    0    0 -0.65024359664E+02 -0.69339604978E+02 -0.10819940055E+03  0.19070663902E+03  0.12500305483E+03 0.  0.
          2    1    1    2  501    0 -0.16656434542E+02  0.25183209644E+02 -0.39376631531E+03  0.39492219731E+03  0.00000000000E+00 0. -1.
          1    1    1    2  502    0  0.81680794207E+02  0.44156395334E+02  0.16207490210E+03  0.18678815081E+03  0.00000000000E+00 0. -1.
         22    1    3    3    0    0  0.19775880170E+02 -0.60290075853E+02 -0.77284644127E+02  0.99994474351E+02  0.00000000000E+00 0.  1.
         22    1    3    3    0    0 -0.84800239835E+02 -0.90495291258E+01 -0.30914756423E+02  0.90712164664E+02  0.00000000000E+00 0.  1.
</event>
<event>
 7    1  0.5889087E-006  0.3761246E+02  0.7818608E-02  0.1564528E+00
          2   -1    0    0  502    0  0.00000000000E+00  0.00000000000E+00  0.36839678398E+03  0.36839678398E+03  0.00000000000E+00 0. -1.
          1   -1    0    0  501    0 -0.00000000000E+00 -0.00000000000E+00 -0.24143193956E+03  0.24143193956E+03  0.00000000000E+00 0. -1.
         25    2    1    2    0    0  0.20784219426E+02 -0.27325406156E+02 -0.79638595014E+01  0.12987366797E+03  0.12500033990E+03 0.  0.
          2    1    1    2  501    0 -0.27715682710E+02 -0.98917707563E+01 -0.17007941597E+03  0.17260652923E+03  0.00000000000E+00 0. -1.
          1    1    1    2  502    0  0.69314632840E+01  0.37217176912E+02  0.30500811989E+03  0.30734852634E+03  0.00000000000E+00 0. -1.
         22    1    3    3    0    0  0.25812269356E+02 -0.73122412076E+02 -0.23866295493E+02  0.81134212621E+02  0.00000000000E+00 0. -1.
         22    1    3    3    0    0 -0.50280499297E+01  0.45797005920E+02  0.15902435992E+02  0.48739455350E+02  0.00000000000E+00 0. -1.
</event>
<event>
 7    1  0.5889087E-006  0.7760127E+02  0.7818608E-02  0.1407553E+00
          2   -1    0    0  502    0  0.00000000000E+00  0.00000000000E+00  0.27285320086E+04  0.27285320086E+04  0.00000000000E+00 0. -1.
          1   -1    0    0  501    0 -0.00000000000E+00 -0.00000000000E+00 -0.23531138286E+03  0.23531138286E+03  0.00000000000E+00 0. -1.
         25    2    1    2    0    0  0.33700083696E+02 -0.61344593238E+02 -0.38509449028E+02  0.14833720109E+03  0.12498837067E+03 0.  0.
          2    1    1    2  501    0  0.34973456084E+02  0.24960444014E+02 -0.13805672982E+03  0.14458847480E+03  0.00000000000E+00 0. -1.
          1    1    1    2  502    0 -0.68673539781E+02  0.36384149224E+02  0.26697868046E+04  0.26709177156E+04  0.00000000000E+00 0. -1.
         22    1    3    3    0    0  0.71393064544E+02 -0.63087705011E+02 -0.51660064183E+02  0.10837799786E+03  0.00000000000E+00 0.  1.
         22    1    3    3    0    0 -0.37692980848E+02  0.17431117736E+01  0.13150615155E+02  0.39959203230E+02  0.00000000000E+00 0.  1.
</event>
<event>
 7    1  0.5889087E-006  0.2643451E+03  0.7818608E-02  0.1137147E+00
          2   -1    0    0  502    0  0.00000000000E+00  0.00000000000E+00  0.36370792701E+04  0.36370792701E+04  0.00000000000E+00 0. -1.
          1   -1    0    0  501    0 -0.00000000000E+00 -0.00000000000E+00 -0.21437844115E+04  0.21437844115E+04  0.00000000000E+00 0. -1.
         25    2    1    2    0    0  0.33727304027E+02  0.18984320499E+03  0.40829703956E+03  0.46851830323E+03  0.12499981772E+03 0.  0.
          2    1    1    2  501    0 -0.20815719369E+03 -0.16661384691E+03 -0.21028292565E+04  0.21196651795E+04  0.00000000000E+00 0. -1.
          1    1    1    2  502    0  0.17442988966E+03 -0.23229358082E+02  0.31878270754E+04  0.31926801989E+04  0.00000000000E+00 0. -1.
         22    1    3    3    0    0 -0.28884303017E+02  0.47979342479E+02  0.20687215119E+03  0.21431847145E+03  0.00000000000E+00 0. -1.
         22    1    3    3    0    0  0.62611607044E+02  0.14186386251E+03  0.20142488836E+03  0.25419983178E+03  0.00000000000E+00 0. -1.
</event>
<event>
 7    1  0.5889087E-006  0.9115619E+02  0.7818608E-02  0.1317127E+00
          2   -1    0    0  502    0  0.00000000000E+00  0.00000000000E+00  0.67489487801E+03  0.67489487801E+03  0.00000000000E+00 0. -1.
          1   -1    0    0  501    0 -0.00000000000E+00 -0.00000000000E+00 -0.13002956325E+03  0.13002956325E+03  0.00000000000E+00 0. -1.
         25    2    1    2    0    0 -0.16258614771E+03  0.25898312865E+02  0.32813793766E+03  0.38781047474E+03  0.12496991698E+03 0.  0.
          2    1    1    2  501    0  0.84742792528E+02 -0.20062918239E+02 -0.75119375872E+02  0.11500774846E+03  0.00000000000E+00 0. -1.
          1    1    1    2  502    0  0.77843355178E+02 -0.58353946261E+01  0.29184675297E+03  0.30210621807E+03  0.00000000000E+00 0. -1.
         22    1    3    3    0    0 -0.12283178170E+02  0.42900057324E+02  0.30837320898E+02  0.54242342727E+02  0.00000000000E+00 0. -1.
         22    1    3    3    0    0 -0.15030296954E+03 -0.17001744459E+02  0.29730061676E+03  0.33356813201E+03  0.00000000000E+00 0. -1.
</event>
<event>
 7    1  0.5889087E-006  0.6565833E+02  0.7818608E-02  0.1417535E+00
          2   -1    0    0  502    0  0.00000000000E+00  0.00000000000E+00  0.36774104557E+03  0.36774104557E+03  0.00000000000E+00 0. -1.
          1   -1    0    0  501    0 -0.00000000000E+00 -0.00000000000E+00 -0.90002641871E+03  0.90002641871E+03  0.00000000000E+00 0. -1.
         25    2    1    2    0    0 -0.55593298082E+02 -0.81857537517E+02 -0.24664257160E+03  0.29368233890E+03  0.12500194724E+03 0.  0.
          2    1    1    2  501    0  0.43568438441E+02  0.17604552682E+02 -0.62587180621E+03  0.62763336982E+03  0.00000000000E+00 0. -1.
          1    1    1    2  502    0  0.12024859640E+02  0.64252984835E+02  0.34022900467E+03  0.34645175556E+03  0.00000000000E+00 0. -1.
         22    1    3    3    0    0 -0.54096806438E+02 -0.24637349434E+02 -0.22461981531E+03  0.23235215704E+03  0.00000000000E+00 0. -1.
         22    1    3    3    0    0 -0.14964916441E+01 -0.57220188082E+02 -0.22022756293E+02  0.61330181853E+02  0.00000000000E+00 0. -1.
</event>
<event>
 7    1  0.5889087E-006  0.7868606E+02  0.7818608E-02  0.1376164E+00
          2   -1    0    0  502    0  0.00000000000E+00  0.00000000000E+00  0.29920638819E+03  0.29920638819E+03  0.00000000000E+00 0. -1.
          1   -1    0    0  501    0 -0.00000000000E+00 -0.00000000000E+00 -0.84065628383E+03  0.84065628383E+03  0.00000000000E+00 0. -1.
         25    2    1    2    0    0  0.47329050522E+02  0.99432924100E+01  0.53227729010E+01  0.13413898319E+03  0.12500410718E+03 0.  0.
          2    1    1    2  501    0 -0.47316790806E+02 -0.64438489832E+02 -0.77091637384E+03  0.77505048424E+03  0.00000000000E+00 0. -1.
          1    1    1    2  502    0 -0.12259715702E-01  0.54495197422E+02  0.22414370530E+03  0.23067320459E+03  0.00000000000E+00 0. -1.
         22    1    3    3    0    0  0.44082963434E+02 -0.26707838759E+02 -0.47281238950E+02  0.69943776514E+02  0.00000000000E+00 0.  1.
         22    1    3    3    0    0  0.32460870875E+01  0.36651131169E+02  0.52604011851E+02  0.64195206676E+02  0.00000000000E+00 0.  1.
</event>
<event>
 7    1  0.5889087E-006  0.3404068E+03  0.7818608E-02  0.1298225E+00
          2   -1    0    0  502    0  0.00000000000E+00  0.00000000000E+00  0.82386163316E+03  0.82386163316E+03  0.00000000000E+00 0. -1.
          1   -1    0    0  501    0 -0.00000000000E+00 -0.00000000000E+00 -0.55283072945E+03  0.55283072945E+03  0.00000000000E+00 0. -1.
         25    2    1    2    0    0 -0.21970345565E+03 -0.27403981959E+03 -0.32550507837E+03  0.49492278848E+03  0.12501031703E+03 0.  0.
          2    1    1    2  501    0 -0.89426562812E+01  0.23164792801E+02 -0.10208045155E+03  0.10505711454E+03  0.00000000000E+00 0. -1.
          1    1    1    2  502    0  0.22864611193E+03  0.25087502679E+03  0.69861643362E+03  0.77671245960E+03  0.00000000000E+00 0. -1.
         22    1    3    3    0    0 -0.70854842043E+02 -0.22826601197E+02 -0.10641986070E+03  0.12987166402E+03  0.00000000000E+00 0. -1.
         22    1    3    3    0    0 -0.14884861361E+03 -0.25121321840E+03 -0.21908521766E+03  0.36505112446E+03  0.00000000000E+00 0. -1.
</event>
<event>
 7    1  0.5889087E-006  0.1111856E+03  0.7818608E-02  0.1365036E+00
          2   -1    0    0  502    0  0.00000000000E+00  0.00000000000E+00  0.45545870242E+03  0.45545870242E+03  0.00000000000E+00 0. -1.
          1   -1    0    0  501    0 -0.00000000000E+00 -0.00000000000E+00 -0.66149546244E+03  0.66149546244E+03  0.00000000000E+00 0. -1.
         25    2    1    2    0    0  0.48549731221E+02 -0.10360211175E+03  0.16742561784E+01  0.16946470736E+03  0.12500003978E+03 0.  0.
          2    1    1    2  501    0 -0.69607371305E+01  0.11123778965E+03 -0.57098581445E+03  0.58176206305E+03  0.00000000000E+00 0. -1.
          1    1    1    2  502    0 -0.41588994090E+02 -0.76356778941E+01  0.36327479825E+03  0.36572739445E+03  0.00000000000E+00 0. -1.
         22    1    3    3    0    0  0.76811465237E+02 -0.96068260774E+02  0.32243838631E+02  0.12715650612E+03  0.00000000000E+00 0.  1.
         22    1    3    3    0    0 -0.28261734016E+02 -0.75338509786E+01 -0.30569582453E+02  0.42308201232E+02  0.00000000000E+00 0.  1.
</event>
<event>
 7    1  0.5889087E-006  0.6643220E+02  0.7818608E-02  0.1412288E+00
          2   -1    0    0  502    0  0.00000000000E+00  0.00000000000E+00  0.67341829611E+02  0.67341829611E+02  0.00000000000E+00 0. -1.
          1   -1    0    0  501    0 -0.00000000000E+00 -0.00000000000E+00 -0.18355118719E+04  0.18355118719E+04  0.00000000000E+00 0. -1.
         25    2    1    2    0    0  0.64980273844E+02  0.14330494716E+02 -0.37264686892E+03  0.39864591786E+03  0.12500031936E+03 0.  0.
          2    1    1    2  501    0 -0.26163281597E+02  0.40683926917E+02 -0.14284423041E+04  0.14292610383E+04  0.00000000000E+00 0. -1.
          1    1    1    2  502    0 -0.38816992246E+02 -0.55014421633E+02  0.32919130774E+02  0.74946745397E+02  0.00000000000E+00 0. -1.
         22    1    3    3    0    0 -0.50919556737E+01 -0.45095978448E+02 -0.80731527662E+02  0.92612930217E+02  0.00000000000E+00 0. -1.
         22    1    3    3    0    0  0.70072229517E+02  0.59426473164E+02 -0.29191534126E+03  0.30603298764E+03  0.00000000000E+00 0. -1.
</event>
<event>
 7    1  0.5889087E-006  0.5954227E+02  0.7818608E-02  0.1417008E+00
          2   -1    0    0  502    0  0.00000000000E+00  0.00000000000E+00  0.28917883020E+04  0.28917883020E+04  0.00000000000E+00 0. -1.
          1   -1    0    0  501    0 -0.00000000000E+00 -0.00000000000E+00 -0.18031115285E+02  0.18031115285E+02  0.00000000000E+00 0. -1.
         25    2    1    2    0    0 -0.34960404655E+02 -0.10114981357E+03  0.12599994685E+04  0.12706995173E+04  0.12500035165E+03 0.  0.
          2    1    1    2  501    0  0.13441576704E+02  0.50262770058E+02  0.43297794476E+02  0.67688411451E+02  0.00000000000E+00 0. -1.
          1    1    1    2  502    0  0.21518827950E+02  0.50887043513E+02  0.15704599237E+04  0.15714314885E+04  0.00000000000E+00 0. -1.
         22    1    3    3    0    0 -0.37793051073E+02  0.16991691001E+02  0.48175606933E+03  0.48353484116E+03  0.00000000000E+00 0.  1.
         22    1    3    3    0    0  0.28326464183E+01 -0.11814150457E+03  0.77824339919E+03  0.78716467614E+03  0.00000000000E+00 0.  1.
</event>
<event>
 7    1  0.5889087E-006  0.7463029E+02  0.7818608E-02  0.1379599E+00
          2   -1    0    0  502    0  0.00000000000E+00  0.00000000000E+00  0.12570654188E+04  0.12570654188E+04  0.00000000000E+00 0. -1.
          1   -1    0    0  501    0 -0.00000000000E+00 -0.00000000000E+00 -0.48925195334E+03  0.48925195334E+03  0.00000000000E+00 0. -1.
         25    2    1    2    0    0  0.10399326522E+02 -0.20381658805E+02  0.12133895107E+03  0.17570217669E+03  0.12499822334E+03 0.  0.
          2    1    1    2  501    0  0.43850135190E+02 -0.34612247121E+02 -0.45902907337E+03  0.46241597313E+03  0.00000000000E+00 0. -1.
          1    1    1    2  502    0 -0.54249461712E+02  0.54993905926E+02  0.11055035878E+04  0.11081992223E+04  0.00000000000E+00 0. -1.
         22    1    3    3    0    0  0.61041231074E+02 -0.30951695960E+02  0.96523409259E+02  0.11832500965E+03  0.00000000000E+00 0.  1.
         22    1    3    3    0    0 -0.50641904551E+02  0.10570037155E+02  0.24815541814E+02  0.57377167040E+02  0.00000000000E+00 0.  1.
</event>
<event>
 7    1  0.5889087E-006  0.1762275E+03  0.7818608E-02  0.1294988E+00
          2   -1    0    0  502    0  0.00000000000E+00  0.00000000000E+00  0.57942630784E+03  0.57942630784E+03  0.00000000000E+00 0. -1.
          1   -1    0    0  501    0 -0.00000000000E+00 -0.00000000000E+00 -0.16814812851E+04  0.16814812851E+04  0.00000000000E+00 0. -1.
         25    2    1    2    0    0 -0.34174512055E+02  0.17645604539E+03 -0.11150994561E+04  0.11363873264E+04  0.12499890087E+03 0.  0.
          2    1    1    2  501    0 -0.45527649644E+02 -0.19236851463E+02 -0.54092763692E+03  0.54318093828E+03  0.00000000000E+00 0. -1.
          1    1    1    2  502    0  0.79702161698E+02 -0.15721919393E+03  0.55397211580E+03  0.58133932828E+03  0.00000000000E+00 0. -1.
         22    1    3    3    0    0 -0.26149622161E+02  0.19562994514E+03 -0.97748861032E+03  0.99721555417E+03  0.00000000000E+00 0. -1.
         22    1    3    3    0    0 -0.80248898939E+01 -0.19173899749E+02 -0.13761084581E+03  0.13917177219E+03  0.00000000000E+00 0. -1.
</event>
<event>
 7    1  0.5889087E-006  0.5079900E+02  0.7818608E-02  0.1546316E+00
          2   -1    0    0  502    0  0.00000000000E+00  0.00000000000E+00  0.45648370306E+03  0.45648370306E+03  0.00000000000E+00 0. -1.
          1   -1    0    0  501    0 -0.00000000000E+00 -0.00000000000E+00 -0.44983125774E+03  0.44983125774E+03  0.00000000000E+00 0. -1.
         25    2    1    2    0    0 -0.29323288268E+02  0.37407813695E+02 -0.61091498370E+02  0.14702716936E+03  0.12500247036E+03 0.  0.
          2    1    1    2  501    0  0.46937421539E+02 -0.20418438715E+02 -0.34351184798E+03  0.34730451175E+03  0.00000000000E+00 0. -1.
          1    1    1    2  502    0 -0.17614133271E+02 -0.16989374981E+02  0.41125579168E+03  0.41198327969E+03  0.00000000000E+00 0. -1.
         22    1    3    3    0    0  0.41054911427E+02 -0.16996125819E+02 -0.15421247979E+02  0.47033912599E+02  0.00000000000E+00 0. -1.
         22    1    3    3    0    0 -0.70378199695E+02  0.54403939515E+02 -0.45670250391E+02  0.99993256761E+02  0.00000000000E+00 0. -1.
</event>
<event>
 7    1  0.5889087E-006  0.1121212E+03  0.7818608E-02  0.1412927E+00
          2   -1    0    0  502    0  0.00000000000E+00  0.00000000000E+00  0.16776598541E+04  0.16776598541E+04  0.00000000000E+00 0. -1.
          1   -1    0    0  501    0 -0.00000000000E+00 -0.00000000000E+00 -0.37909289818E+03  0.37909289818E+03  0.00000000000E+00 0. -1.
         25    2    1    2    0    0 -0.12696985959E+03 -0.42253507265E+02  0.80544888643E+03  0.82600228696E+03  0.12500066115E+03 0.  0.
          2    1    1    2  501    0  0.27389826430E+02  0.79407133161E+01 -0.36504037119E+03  0.36615260496E+03  0.00000000000E+00 0. -1.
          1    1    1    2  502    0  0.99580033164E+02  0.34312793949E+02  0.85815844072E+03  0.86459786040E+03  0.00000000000E+00 0. -1.
         22    1    3    3    0    0 -0.46950581575E+02  0.29645790885E+02  0.12076444840E+03  0.13291832840E+03  0.00000000000E+00 0.  1.
         22    1    3    3    0    0 -0.80019278019E+02 -0.71899298150E+02  0.68468443803E+03  0.69308395856E+03  0.00000000000E+00 0.  1.
</event>
<event>
 7    1  0.5889087E-006  0.1936286E+03  0.7818608E-02  0.1311386E+00
          2   -1    0    0  502    0  0.00000000000E+00  0.00000000000E+00  0.19971912575E+04  0.19971912575E+04  0.00000000000E+00 0. -1.
          1   -1    0    0  501    0 -0.00000000000E+00 -0.00000000000E+00 -0.73661328292E+03  0.73661328292E+03  0.00000000000E+00 0. -1.
         25    2    1    2    0    0 -0.99690836346E+02  0.20111130250E+03  0.83316159263E+02  0.27009852715E+03  0.12501045208E+03 0.  0.
          2    1    1    2  501    0  0.68166182630E+02 -0.17866097975E+03 -0.62879801986E+03  0.65723156035E+03  0.00000000000E+00 0. -1.
          1    1    1    2  502    0  0.31524653716E+02 -0.22450322746E+02  0.18060598351E+04  0.18064744529E+04  0.00000000000E+00 0. -1.
         22    1    3    3    0    0 -0.58004342182E+02  0.20616335600E+03  0.61746528474E+02  0.22289115471E+03  0.00000000000E+00 0. -1.
         22    1    3    3    0    0 -0.41686494164E+02 -0.50520534992E+01  0.21569630789E+02  0.47207372439E+02  0.00000000000E+00 0. -1.
</event>
<event>
 7    1  0.5889087E-006  0.4181047E+02  0.7818608E-02  0.1584306E+00
          2   -1    0    0  502    0  0.00000000000E+00  0.00000000000E+00  0.28182774415E+03  0.28182774415E+03  0.00000000000E+00 0. -1.
          1   -1    0    0  501    0 -0.00000000000E+00 -0.00000000000E+00 -0.32992882276E+03  0.32992882276E+03  0.00000000000E+00 0. -1.
         25    2    1    2    0    0  0.63682484384E+02  0.72625979359E+01  0.25303708098E+02  0.14273536318E+03  0.12499960845E+03 0.  0.
          2    1    1    2  501    0 -0.40356110346E+02 -0.92276660000E+01 -0.26893103906E+03  0.27209863879E+03  0.00000000000E+00 0. -1.
          1    1    1    2  502    0 -0.23326374038E+02  0.19650680641E+01  0.19552625236E+03  0.19692256493E+03  0.00000000000E+00 0. -1.
         22    1    3    3    0    0  0.88072690031E+02  0.41060465217E+02  0.27524341853E+02  0.10099678177E+03  0.00000000000E+00 0.  1.
         22    1    3    3    0    0 -0.24390205647E+02 -0.33797867281E+02 -0.22206337559E+01  0.41738581415E+02  0.00000000000E+00 0.  1.
</event>
<event>
 7    1  0.5889087E-006  0.1915920E+03  0.7818608E-02  0.1327962E+00
          2   -1    0    0  502    0  0.00000000000E+00  0.00000000000E+00  0.12872677452E+04  0.12872677452E+04  0.00000000000E+00 0. -1.
          1   -1    0    0  501    0 -0.00000000000E+00 -0.00000000000E+00 -0.78651252222E+03  0.78651252222E+03  0.00000000000E+00 0. -1.
         25    2    1    2    0    0  0.76945431633E+02 -0.14151659637E+03 -0.40246904626E+03  0.45116938480E+03  0.12499973632E+03 0.  0.
          2    1    1    2  501    0  0.19211238521E+01 -0.33671994157E+02 -0.35157494378E+03  0.35318895085E+03  0.00000000000E+00 0. -1.
          1    1    1    2  502    0 -0.78866555486E+02  0.17518859053E+03  0.12547992131E+04  0.12694219318E+04  0.00000000000E+00 0. -1.
         22    1    3    3    0    0  0.10784369861E+03 -0.99012177688E+02 -0.24779208336E+03  0.28780999155E+03  0.00000000000E+00 0.  1.
         22    1    3    3    0    0 -0.30898266973E+02 -0.42504418686E+02 -0.15467696291E+03  0.16335939325E+03  0.00000000000E+00 0.  1.
</event>
<event>
 7    1  0.5889087E-006  0.6226165E+02  0.7818608E-02  0.1441903E+00
          2   -1    0    0  502    0  0.00000000000E+00  0.00000000000E+00  0.53057954593E+03  0.53057954593E+03  0.00000000000E+00 0. -1.
          1   -1    0    0  501    0 -0.00000000000E+00 -0.00000000000E+00 -0.72833201473E+03  0.72833201473E+03  0.00000000000E+00 0. -1.
         25    2    1    2    0    0 -0.75360023874E+02 -0.96680703151E+00 -0.13413713137E+03  0.19824411854E+03  0.12501156989E+03 0.  0.
          2    1    1    2  501    0  0.51634563173E+02  0.34641091891E+02 -0.55956551103E+03  0.56300949770E+03  0.00000000000E+00 0. -1.
          1    1    1    2  502    0  0.23725460700E+02 -0.33674284859E+02  0.49595017361E+03  0.49765794442E+03  0.00000000000E+00 0. -1.
         22    1    3    3    0    0  0.13233065474E+02 -0.35306051224E+02 -0.81081344221E+02  0.89419324844E+02  0.00000000000E+00 0.  1.
         22    1    3    3    0    0 -0.88593089348E+02  0.34339244192E+02 -0.53055787153E+02  0.10882479369E+03  0.00000000000E+00 0.  1.
</event>
<event>
 7    1  0.5889087E-006  0.9613756E+02  0.7818608E-02  0.1323766E+00
          2   -1    0    0  502    0  0.00000000000E+00  0.00000000000E+00  0.20796618260E+04  0.20796618260E+04  0.00000000000E+00 0. -1.
          1   -1    0    0  501    0 -0.00000000000E+00 -0.00000000000E+00 -0.27147450498E+03  0.27147450498E+03  0.00000000000E+00 0. -1.
         25    2    1    2    0    0  0.81332444541E+02 -0.12673069826E+03  0.10658259238E+04  0.10836447605E+04  0.12500172212E+03 0.  0.
          2    1    1    2  501    0 -0.19900793990E+02  0.93680981079E+02 -0.25256981306E+03  0.27011789701E+03  0.00000000000E+00 0. -1.
          1    1    1    2  502    0 -0.61431650551E+02  0.33049717179E+02  0.99493121026E+03  0.99737367353E+03  0.00000000000E+00 0. -1.
         22    1    3    3    0    0 -0.28600301722E+02 -0.33652674259E+02  0.14361824012E+03  0.15025537807E+03  0.00000000000E+00 0.  1.
         22    1    3    3    0    0  0.10993274626E+03 -0.93078023998E+02  0.92220768373E+03  0.93338938240E+03  0.00000000000E+00 0.  1.
</event>
<event>
 7    1  0.5889087E-006  0.1700874E+03  0.7818608E-02  0.1183447E+00
          2   -1    0    0  502    0  0.00000000000E+00  0.00000000000E+00  0.17287886388E+04  0.17287886388E+04  0.00000000000E+00 0. -1.
          1   -1    0    0  501    0 -0.00000000000E+00 -0.00000000000E+00 -0.19728892120E+04  0.19728892120E+04  0.00000000000E+00 0. -1.
         25    2    1    2    0    0  0.26066064685E+03 -0.19285448618E+03  0.24146392477E+02  0.34834557244E+03  0.12499905566E+03 0.  0.
          2    1    1    2  501    0 -0.11955617971E+03  0.10566891330E+03 -0.18027968924E+04  0.18098442570E+04  0.00000000000E+00 0. -1.
          1    1    1    2  502    0 -0.14110446713E+03  0.87185572883E+02  0.15345499267E+04  0.15434880214E+04  0.00000000000E+00 0. -1.
         22    1    3    3    0    0  0.12584668174E+03 -0.16204712420E+03  0.40368123746E+02  0.20910820926E+03  0.00000000000E+00 0. -1.
         22    1    3    3    0    0  0.13481396511E+03 -0.30807361983E+02 -0.16221731269E+02  0.13923736319E+03  0.00000000000E+00 0. -1.
</event>
<event>
 7    1  0.5889087E-006  0.8990743E+02  0.7818608E-02  0.1318991E+00
          2   -1    0    0  502    0  0.00000000000E+00  0.00000000000E+00  0.21732232806E+04  0.21732232806E+04  0.00000000000E+00 0. -1.
          1   -1    0    0  501    0 -0.00000000000E+00 -0.00000000000E+00 -0.42405747609E+02  0.42405747609E+02  0.00000000000E+00 0. -1.
         25    2    1    2    0    0  0.23616738418E+02  0.23802535412E+02  0.75746422274E+03  0.76844137683E+03  0.12500315942E+03 0.  0.
          2    1    1    2  501    0 -0.59106441209E+02  0.67747870980E+02  0.22380180915E+02  0.92651054568E+02  0.00000000000E+00 0. -1.
          1    1    1    2  502    0  0.35489702792E+02 -0.91550406393E+02  0.13509731293E+04  0.13545365968E+04  0.00000000000E+00 0. -1.
         22    1    3    3    0    0  0.48134923686E+02 -0.23109576367E+01  0.69316455010E+03  0.69483768243E+03  0.00000000000E+00 0.  1.
         22    1    3    3    0    0 -0.24518185269E+02  0.26113493049E+02  0.64299672639E+02  0.73603694402E+02  0.00000000000E+00 0.  1.
</event>
<event>
 7    1  0.5889087E-006  0.5270402E+02  0.7818608E-02  0.1541397E+00
          2   -1    0    0  502    0  0.00000000000E+00  0.00000000000E+00  0.74661520593E+03  0.74661520593E+03  0.00000000000E+00 0. -1.
          1   -1    0    0  501    0 -0.00000000000E+00 -0.00000000000E+00 -0.33692799504E+03  0.33692799504E+03  0.00000000000E+00 0. -1.
         25    2    1    2    0    0 -0.36118607046E+02  0.19695031392E+02  0.55498082115E+02  0.14282268365E+03  0.12500333519E+03 0.  0.
          2    1    1    2  501    0  0.30563726535E+02 -0.43404175067E+02 -0.29063167811E+03  0.29544007195E+03  0.00000000000E+00 0. -1.
          1    1    1    2  502    0  0.55548805110E+01  0.23709143675E+02  0.64482080688E+03  0.64528044537E+03  0.00000000000E+00 0. -1.
         22    1    3    3    0    0  0.12131333676E+02  0.53928208183E+02  0.62283186989E+02  0.83274343444E+02  0.00000000000E+00 0. -1.
         22    1    3    3    0    0 -0.48249940722E+02 -0.34233176790E+02 -0.67851048740E+01  0.59548340204E+02  0.00000000000E+00 0. -1.
</event>
<event>
 7    1  0.5889087E-006  0.1996773E+03  0.7818608E-02  0.1183480E+00
          2   -1    0    0  502    0  0.00000000000E+00  0.00000000000E+00  0.11583829941E+04  0.11583829941E+04  0.00000000000E+00 0. -1.
          1   -1    0    0  501    0 -0.00000000000E+00 -0.00000000000E+00 -0.15548783099E+04  0.15548783099E+04  0.00000000000E+00 0. -1.
         25    2    1    2    0    0 -0.33282953980E+02 -0.33194585482E+03  0.42664641669E+03  0.55583138905E+03  0.12500225043E+03 0.  0.
          2    1    1    2  501    0  0.24352273867E+02  0.19637502255E+03 -0.14766999569E+04  0.14898989716E+04  0.00000000000E+00 0. -1.
          1    1    1    2  502    0  0.89306801126E+01  0.13557083227E+03  0.65355822443E+03  0.66753094335E+03  0.00000000000E+00 0. -1.
         22    1    3    3    0    0  0.10243058548E+02  0.60462314644E+01  0.32578655615E+01  0.12332511965E+02  0.00000000000E+00 0. -1.
         22    1    3    3    0    0 -0.43526012528E+02 -0.33799208629E+03  0.42338855113E+03  0.54349887708E+03  0.00000000000E+00 0. -1.
</event>
<event>
 7    1  0.5889087E-006  0.1011535E+03  0.7818608E-02  0.1289784E+00
          2   -1    0    0  502    0  0.00000000000E+00  0.00000000000E+00  0.10843439562E+04  0.10843439562E+04  0.00000000000E+00 0. -1.
          1   -1    0    0  501    0 -0.00000000000E+00 -0.00000000000E+00 -0.44000027536E+03  0.44000027536E+03  0.00000000000E+00 0. -1.
         25    2    1    2    0    0 -0.75828648938E+02  0.16847311126E+03 -0.32147631521E+02  0.22537253386E+03  0.12500454228E+03 0.  0.
          2    1    1    2  501    0  0.32483925064E+02 -0.89152858760E+02 -0.30187620921E+03  0.31643748719E+03  0.00000000000E+00 0. -1.
          1    1    1    2  502    0  0.43344723874E+02 -0.79320252503E+02  0.97836752161E+03  0.98253421054E+03  0.00000000000E+00 0. -1.
         22    1    3    3    0    0 -0.10570198257E+03  0.15915810007E+03 -0.21257076747E+02  0.19223962456E+03  0.00000000000E+00 0.  1.
         22    1    3    3    0    0  0.29873333633E+02  0.93150111897E+01 -0.10890554774E+02  0.33132909307E+02  0.00000000000E+00 0.  1.
</event>
<event>
 7    1  0.5889087E-006  0.8311991E+02  0.7818608E-02  0.1357629E+00
          2   -1    0    0  502    0  0.00000000000E+00  0.00000000000E+00  0.35417220396E+03  0.35417220396E+03  0.00000000000E+00 0. -1.
          1   -1    0    0  501    0 -0.00000000000E+00 -0.00000000000E+00 -0.57843950002E+03  0.57843950002E+03  0.00000000000E+00 0. -1.
         25    2    1    2    0    0 -0.49126893269E+02  0.13015532533E+03  0.84649395775E+02  0.20529001501E+03  0.12499843882E+03 0.  0.
          2    1    1    2  501    0  0.15119548719E+02 -0.80497473967E+02 -0.51045711635E+03  0.51698637477E+03  0.00000000000E+00 0. -1.
          1    1    1    2  502    0  0.34007344550E+02 -0.49657851358E+02  0.20154042451E+03  0.21033531420E+03  0.00000000000E+00 0. -1.
         22    1    3    3    0    0 -0.61914097134E+02  0.52775895559E+02  0.96229345686E+02  0.12601086281E+03  0.00000000000E+00 0.  1.
         22    1    3    3    0    0  0.12787203865E+02  0.77379429767E+02 -0.11579949912E+02  0.79279152201E+02  0.00000000000E+00 0.  1.
</event>
<event>
 7    1  0.5889087E-006  0.6779280E+02  0.7818608E-02  0.1410832E+00
          2   -1    0    0  502    0  0.00000000000E+00  0.00000000000E+00  0.31709433941E+03  0.31709433941E+03  0.00000000000E+00 0. -1.
          1   -1    0    0  501    0 -0.00000000000E+00 -0.00000000000E+00 -0.18027408107E+04  0.18027408107E+04  0.00000000000E+00 0. -1.
         25    2    1    2    0    0 -0.82860357009E+02 -0.25663694864E+02 -0.64117719356E+02  0.16511116258E+03  0.12500460021E+03 0.  0.
          2    1    1    2  501    0  0.39921876780E+02 -0.26542157835E+02 -0.16834949566E+04  0.16841773990E+04  0.00000000000E+00 0. -1.
          1    1    1    2  502    0  0.42938480229E+02  0.52205852699E+02  0.26196620471E+03  0.27054658850E+03  0.00000000000E+00 0. -1.
         22    1    3    3    0    0 -0.75673997825E+02 -0.32453390509E+02 -0.99051140003E+02  0.12880568636E+03  0.00000000000E+00 0.  1.
         22    1    3    3    0    0 -0.71863591844E+01  0.67896956457E+01  0.34933420647E+02  0.36305476218E+02  0.00000000000E+00 0.  1.
</event>
<event>
 7    1  0.5889087E-006  0.8311379E+02  0.7818608E-02  0.1445269E+00
          2   -1    0    0  502    0  0.00000000000E+00  0.00000000000E+00  0.31926456178E+03  0.31926456178E+03  0.00000000000E+00 0. -1.
          1   -1    0    0  501    0 -0.00000000000E+00 -0.00000000000E+00 -0.28566564565E+03  0.28566564565E+03  0.00000000000E+00 0. -1.
         25    2    1    2    0    0 -0.68254334623E+02 -0.19256715806E+02 -0.20809972405E+03  0.25290662410E+03  0.12500716006E+03 0.  0.
          2    1    1    2  501    0 -0.15009023370E+02  0.26085744727E+02 -0.44589165242E+02  0.53795264823E+02  0.00000000000E+00 0. -1.
          1    1    1    2  502    0  0.83263357993E+02 -0.68290289212E+01  0.28628780543E+03  0.29822831850E+03  0.00000000000E+00 0. -1.
         22    1    3    3    0    0 -0.96510932962E+02  0.20374188249E+01 -0.19010935570E+03  0.21321369182E+03  0.00000000000E+00 0.  1.
         22    1    3    3    0    0  0.28256598339E+02 -0.21294134631E+02 -0.17990368351E+02  0.39692932277E+02  0.00000000000E+00 0.  1.
</event>
<event>
 7    1  0.5889087E-006  0.6766303E+02  0.7818608E-02  0.1391919E+00
          2   -1    0    0  502    0  0.00000000000E+00  0.00000000000E+00  0.15447415533E+04  0.15447415533E+04  0.00000000000E+00 0. -1.
          1   -1    0    0  501    0 -0.00000000000E+00 -0.00000000000E+00 -0.42346618996E+03  0.42346618996E+03  0.00000000000E+00 0. -1.
         25    2    1    2    0    0  0.98999147056E+02 -0.66055213406E+02  0.91199279347E+02  0.19520783113E+03  0.12499866577E+03 0.  0.
          2    1    1    2  501    0 -0.36482721126E+02  0.42187779275E+02 -0.36856382209E+03  0.37276009525E+03  0.00000000000E+00 0. -1.
          1    1    1    2  502    0 -0.62516425930E+02  0.23867434131E+02  0.13986399061E+04  0.14002398169E+04  0.00000000000E+00 0. -1.
         22    1    3    3    0    0  0.96085802011E+02 -0.10815001612E+02  0.10348836956E+02  0.97244763531E+02  0.00000000000E+00 0.  1.
         22    1    3    3    0    0  0.29133450451E+01 -0.55240211794E+02  0.80850442391E+02  0.97963067598E+02  0.00000000000E+00 0.  1.
</event>
<event>
 7    1  0.5889087E-006  0.2924261E+02  0.7818608E-02  0.1621018E+00
          2   -1    0    0  502    0  0.00000000000E+00  0.00000000000E+00  0.51373148175E+03  0.51373148175E+03  0.00000000000E+00 0. -1.
          1   -1    0    0  501    0 -0.00000000000E+00 -0.00000000000E+00 -0.89972217012E+02  0.89972217012E+02  0.00000000000E+00 0. -1.
         25    2    1    2    0    0 -0.17729018233E+01  0.21731699472E+02  0.16067221894E+03  0.20474004744E+03  0.12501006017E+03 0.  0.
          2    1    1    2  501    0 -0.25247358269E+02 -0.91551246090E+01 -0.64581250284E+02  0.69942714377E+02  0.00000000000E+00 0. -1.
          1    1    1    2  502    0  0.27020260093E+02 -0.12576574863E+02  0.32766829609E+03  0.32902093695E+03  0.00000000000E+00 0. -1.
         22    1    3    3    0    0  0.43210338930E+02 -0.12674071062E+02  0.13546042217E+03  0.14274905059E+03  0.00000000000E+00 0. -1.
         22    1    3    3    0    0 -0.44983240753E+02  0.34405770533E+02  0.25211796764E+02  0.61990996852E+02  0.00000000000E+00 0. -1.
</event>
<event>
 7    1  0.5889087E-006  0.4314556E+02  0.7818608E-02  0.1579882E+00
          2   -1    0    0  502    0  0.00000000000E+00  0.00000000000E+00  0.25614419145E+03  0.25614419145E+03  0.00000000000E+00 0. -1.
          1   -1    0    0  501    0 -0.00000000000E+00 -0.00000000000E+00 -0.32900911204E+03  0.32900911204E+03  0.00000000000E+00 0. -1.
         25    2    1    2    0    0  0.92399353792E+01  0.63523400956E+02 -0.11183682119E+02  0.14095992846E+03  0.12499611118E+03 0.  0.
          2    1    1    2  501    0  0.36807855310E+01 -0.23018542346E+02 -0.25002563369E+03  0.25110997386E+03  0.00000000000E+00 0. -1.
          1    1    1    2  502    0 -0.12920720910E+02 -0.40504858610E+02  0.18834439521E+03  0.19308340117E+03  0.00000000000E+00 0. -1.
         22    1    3    3    0    0  0.20622359303E+02  0.47566108869E+02 -0.65314599934E+02  0.83389528004E+02  0.00000000000E+00 0.  1.
         22    1    3    3    0    0 -0.11382423924E+02  0.15957292087E+02  0.54130917815E+02  0.57570400455E+02  0.00000000000E+00 0.  1.
</event>
<event>
 7    1  0.7390415E-006  0.7411686E+02  0.7818608E-02  0.1375512E+00
          2   -1    0    0  502    0  0.00000000000E+00  0.00000000000E+00  0.15231329454E+04  0.15231329454E+04  0.00000000000E+00 0. -1.
          1   -1    0    0  501    0 -0.00000000000E+00 -0.00000000000E+00 -0.74324134239E+03  0.74324134239E+03  0.00000000000E+00 0. -1.
         25    2    1    2    0    0 -0.91538503650E+02  0.73704283948E+02 -0.35812253622E+03  0.39709891038E+03  0.12499669817E+03 0.  0.
          2    1    1    2  501    0  0.20005100839E+02 -0.54616790553E+02 -0.36239881440E+03  0.36703691714E+03  0.00000000000E+00 0. -1.
          1    1    1    2  502    0  0.71533402811E+02 -0.19087493395E+02  0.15004129536E+04  0.15022384603E+04  0.00000000000E+00 0. -1.
         22    1    3    3    0    0 -0.16631184033E+02 -0.95114333618E+01 -0.21273268030E+03  0.21359367246E+03  0.00000000000E+00 0. -1.
         22    1    3    3    0    0 -0.74907319616E+02  0.83215717309E+02 -0.14538985592E+03  0.18350523792E+03  0.00000000000E+00 0. -1.
</event>
<event>
 7    1  0.8614168E-006  0.6575612E+02  0.7818608E-02  0.1516012E+00
          2   -1    0    0  502    0  0.00000000000E+00  0.00000000000E+00  0.12418735184E+04  0.12418735184E+04  0.00000000000E+00 0. -1.
          1   -1    0    0  501    0 -0.00000000000E+00 -0.00000000000E+00 -0.17743415235E+04  0.17743415235E+04  0.00000000000E+00 0. -1.
         25    2    1    2    0    0  0.63232515939E+02 -0.78257435553E+01 -0.11320674368E+04  0.11407288648E+04  0.12500427288E+03 0.  0.
          2    1    1    2  501    0 -0.49099387011E+01 -0.22554460828E+02 -0.63686053633E+03  0.63727870977E+03  0.00000000000E+00 0. -1.
          1    1    1    2  502    0 -0.58322577238E+02  0.30380204383E+02  0.12364599679E+04  0.12382074673E+04  0.00000000000E+00 0. -1.
         22    1    3    3    0    0  0.66204163654E+02 -0.59183614784E+02 -0.73281216664E+03  0.73817298997E+03  0.00000000000E+00 0.  1.
         22    1    3    3    0    0 -0.29716477151E+01  0.51357871229E+02 -0.39925527014E+03  0.40255587483E+03  0.00000000000E+00 0.  1.
</event>
<event>
 7    1  0.5889087E-006  0.8585515E+02  0.7818608E-02  0.1365422E+00
          2   -1    0    0  502    0  0.00000000000E+00  0.00000000000E+00  0.28339678914E+04  0.28339678914E+04  0.00000000000E+00 0. -1.
          1   -1    0    0  501    0 -0.00000000000E+00 -0.00000000000E+00 -0.18075534649E+04  0.18075534649E+04  0.00000000000E+00 0. -1.
         25    2    1    2    0    0 -0.14971813407E+02 -0.33738074960E+02  0.52117740796E+03  0.53722730729E+03  0.12499950493E+03 0.  0.
          2    1    1    2  501    0 -0.26927183860E+02 -0.47479467386E+02 -0.17982083047E+04  0.17990365422E+04  0.00000000000E+00 0. -1.
          1    1    1    2  502    0  0.41898997267E+02  0.81217542345E+02  0.23034453232E+04  0.23052575067E+04  0.00000000000E+00 0. -1.
         22    1    3    3    0    0  0.11838874680E+02  0.30118639642E+02  0.41751942570E+02  0.52825335928E+02  0.00000000000E+00 0.  1.
         22    1    3    3    0    0 -0.26810688086E+02 -0.63856714601E+02  0.47942546539E+03  0.48440197136E+03  0.00000000000E+00 0.  1.
</event>
<event>
 7    1  0.5889087E-006  0.2443544E+03  0.7818608E-02  0.1282651E+00
          2   -1    0    0  502    0  0.00000000000E+00  0.00000000000E+00  0.48474680715E+03  0.48474680715E+03  0.00000000000E+00 0. -1.
          1   -1    0    0  501    0 -0.00000000000E+00 -0.00000000000E+00 -0.15851272510E+04  0.15851272510E+04  0.00000000000E+00 0. -1.
         25    2    1    2    0    0 -0.22755301952E+03 -0.15933169665E+03 -0.80611883783E+02  0.31510451489E+03  0.12500245295E+03 0.  0.
          2    1    1    2  501    0  0.34050808527E+02  0.21025707293E+02 -0.13484570194E+04  0.13490507297E+04  0.00000000000E+00 0. -1.
          1    1    1    2  502    0  0.19350221100E+03  0.13830598936E+03  0.32868845940E+03  0.40571881358E+03  0.00000000000E+00 0. -1.
         22    1    3    3    0    0 -0.22477514760E+03 -0.16557387555E+03 -0.49846920089E+02  0.28359000456E+03  0.00000000000E+00 0.  1.
         22    1    3    3    0    0 -0.27778719196E+01  0.62421789010E+01 -0.30764963694E+02  0.31514510324E+02  0.00000000000E+00 0.  1.
</event>
<event>
 7    1  0.5889087E-006  0.9520174E+02  0.7818608E-02  0.1340981E+00
          2   -1    0    0  502    0  0.00000000000E+00  0.00000000000E+00  0.82739177625E+03  0.82739177625E+03  0.00000000000E+00 0. -1.
          1   -1    0    0  501    0 -0.00000000000E+00 -0.00000000000E+00 -0.77837459125E+03  0.77837459125E+03  0.00000000000E+00 0. -1.
         25    2    1    2    0    0 -0.13352785428E+03 -0.27859763376E+02 -0.27613948218E+03  0.33239024442E+03  0.12499762669E+03 0.  0.
          2    1    1    2  501    0  0.76292320061E+02  0.47702372748E+02 -0.46867624704E+03  0.47723522398E+03  0.00000000000E+00 0. -1.
          1    1    1    2  502    0  0.57235534221E+02 -0.19842609372E+02  0.79383291422E+03  0.79614089911E+03  0.00000000000E+00 0. -1.
         22    1    3    3    0    0 -0.13539205275E+03  0.20138004333E+02 -0.20910059680E+03  0.24991920044E+03  0.00000000000E+00 0. -1.
         22    1    3    3    0    0  0.18641984680E+01 -0.47997767709E+02 -0.67038885380E+02  0.82471043973E+02  0.00000000000E+00 0. -1.
</event>
<event>
 7    1  0.5889087E-006  0.1648442E+03  0.7818608E-02  0.1292228E+00
          2   -1    0    0  502    0  0.00000000000E+00  0.00000000000E+00  0.20903418190E+04  0.20903418190E+04  0.00000000000E+00 0. -1.
          1   -1    0    0  501    0 -0.00000000000E+00 -0.00000000000E+00 -0.94473175503E+02  0.94473175503E+02  0.00000000000E+00 0. -1.
         25    2    1    2    0    0 -0.11278777998E+03  0.81000540224E+02  0.12815662929E+03  0.22656541987E+03  0.12500238805E+03 0.  0.
          2    1    1    2  501    0  0.12413747595E+02  0.52773123597E+02 -0.23907714567E+02  0.59251012813E+02  0.00000000000E+00 0. -1.
          1    1    1    2  502    0  0.10037403239E+03 -0.13377366382E+03  0.18916197288E+04  0.18989985618E+04  0.00000000000E+00 0. -1.
         22    1    3    3    0    0 -0.13942669964E+03  0.66431876658E+02  0.93722151337E+02  0.18065669226E+03  0.00000000000E+00 0. -1.
         22    1    3    3    0    0  0.26638919654E+02  0.14568663567E+02  0.34434477950E+02  0.45908727603E+02  0.00000000000E+00 0. -1.
</event>
<event>
 7    1  0.5889087E-006  0.1267463E+03  0.7818608E-02  0.1372574E+00
          2   -1    0    0  502    0  0.00000000000E+00  0.00000000000E+00  0.51008173620E+03  0.51008173620E+03  0.00000000000E+00 0. -1.
          1   -1    0    0  501    0 -0.00000000000E+00 -0.00000000000E+00 -0.26821984663E+03  0.26821984663E+03  0.00000000000E+00 0. -1.
         25    2    1    2    0    0 -0.51071228736E+02 -0.79887850646E+02 -0.16322367179E+03  0.22638389576E+03  0.12496944483E+03 0.  0.
          2    1    1    2  501    0 -0.27513408049E+02 -0.21382290520E+02 -0.60058159702E+02  0.69434663657E+02  0.00000000000E+00 0. -1.
          1    1    1    2  502    0  0.78584636785E+02  0.10127014117E+03  0.46514372107E+03  0.48248302341E+03  0.00000000000E+00 0. -1.
         22    1    3    3    0    0  0.15919527665E+02 -0.55294881069E+02 -0.13995799819E+03  0.15132480461E+03  0.00000000000E+00 0. -1.
         22    1    3    3    0    0 -0.66990756401E+02 -0.24592969577E+02 -0.23265673602E+02  0.75059091148E+02  0.00000000000E+00 0. -1.
</event>
<event>
 7    1  0.5889087E-006  0.4642490E+02  0.7818608E-02  0.1480332E+00
          2   -1    0    0  502    0  0.00000000000E+00  0.00000000000E+00  0.21628385564E+02  0.21628385564E+02  0.00000000000E+00 0. -1.
          1   -1    0    0  501    0 -0.00000000000E+00 -0.00000000000E+00 -0.16825018453E+04  0.16825018453E+04  0.00000000000E+00 0. -1.
         25    2    1    2    0    0 -0.23663499921E+02 -0.73957590066E+02 -0.53316168095E+03  0.55309698351E+03  0.12500083512E+03 0.  0.
          2    1    1    2  501    0  0.31205266455E+02  0.32838517961E+02 -0.10998768591E+04  0.11008093577E+04  0.00000000000E+00 0. -1.
          1    1    1    2  502    0 -0.75417665345E+01  0.41119072105E+02 -0.27834919686E+02  0.50223889606E+02  0.00000000000E+00 0. -1.
         22    1    3    3    0    0 -0.63736642846E+01 -0.58046346804E+02 -0.78547597520E+02  0.97876080070E+02  0.00000000000E+00 0. -1.
         22    1    3    3    0    0 -0.17289835636E+02 -0.15911243262E+02 -0.45461408343E+03  0.45522090344E+03  0.00000000000E+00 0. -1.
</event>
<event>
 7    1  0.5889087E-006  0.8272175E+02  0.7818608E-02  0.1457750E+00
          2   -1    0    0  502    0  0.00000000000E+00  0.00000000000E+00  0.89071526528E+03  0.89071526528E+03  0.00000000000E+00 0. -1.
          1   -1    0    0  501    0 -0.00000000000E+00 -0.00000000000E+00 -0.58115052792E+03  0.58115052792E+03  0.00000000000E+00 0. -1.
         25    2    1    2    0    0 -0.92834827995E+02 -0.55536942477E+02  0.18451628843E+03  0.24773662048E+03  0.12499806064E+03 0.  0.
          2    1    1    2  501    0  0.24973619977E+02  0.11720375346E+02 -0.54677321030E+03  0.54746871362E+03  0.00000000000E+00 0. -1.
          1    1    1    2  502    0  0.67861208018E+02  0.43816567132E+02  0.67182165923E+03  0.67666045911E+03  0.00000000000E+00 0. -1.
         22    1    3    3    0    0 -0.24867388199E+01  0.22853188170E+02  0.96574164197E+02  0.99272459775E+02  0.00000000000E+00 0. -1.
         22    1    3    3    0    0 -0.90348089175E+02 -0.78390130648E+02  0.87942124230E+02  0.14846416071E+03  0.00000000000E+00 0. -1.
</event>
<event>
 7    1  0.5889087E-006  0.1809995E+03  0.7818608E-02  0.1250266E+00
          2   -1    0    0  502    0  0.00000000000E+00  0.00000000000E+00  0.22424312487E+04  0.22424312487E+04  0.00000000000E+00 0. -1.
          1   -1    0    0  501    0 -0.00000000000E+00 -0.00000000000E+00 -0.52620564302E+02  0.52620564302E+02  0.00000000000E+00 0. -1.
         25    2    1    2    0    0  0.92793439491E+02  0.15256967334E+03  0.41918078963E+03  0.47246666101E+03  0.12499633489E+03 0.  0.
          2    1    1    2  501    0 -0.15382053106E+03 -0.11066081932E+03  0.33368610407E+03  0.38373557140E+03  0.00000000000E+00 0. -1.
          1    1    1    2  502    0  0.61027091572E+02 -0.41908854019E+02  0.14369437907E+04  0.14388495806E+04  0.00000000000E+00 0. -1.
         22    1    3    3    0    0 -0.15148128451E+02  0.29718651735E+02  0.17781723981E+03  0.18091886256E+03  0.00000000000E+00 0.  1.
         22    1    3    3    0    0  0.10794156794E+03  0.12285102160E+03  0.24136354982E+03  0.29154779845E+03  0.00000000000E+00 0.  1.
</event>
<event>
 7    1  0.5889087E-006  0.3938415E+02  0.7818608E-02  0.1618876E+00
          2   -1    0    0  502    0  0.00000000000E+00  0.00000000000E+00  0.83112857150E+03  0.83112857150E+03  0.00000000000E+00 0. -1.
          1   -1    0    0  501    0 -0.00000000000E+00 -0.00000000000E+00 -0.13341387274E+03  0.13341387274E+03  0.00000000000E+00 0. -1.
         25    2    1    2    0    0 -0.29196952384E+02  0.36528524696E+02  0.60983206874E+02  0.14673550757E+03  0.12500225005E+03 0.  0.
          2    1    1    2  501    0  0.35255805681E+02 -0.17266311961E+02 -0.86134695688E+02  0.94658772252E+02  0.00000000000E+00 0. -1.
          1    1    1    2  502    0 -0.60588532979E+01 -0.19262212735E+02  0.72286618758E+03  0.72314816441E+03  0.00000000000E+00 0. -1.
         22    1    3    3    0    0  0.18708544157E+02  0.59808354840E+02 -0.39040323686E+01  0.62787661224E+02  0.00000000000E+00 0.  1.
         22    1    3    3    0    0 -0.47905496541E+02 -0.23279830144E+02  0.64887239243E+02  0.83947846350E+02  0.00000000000E+00 0.  1.
</event>
<event>
 7    1  0.5889087E-006  0.7609348E+02  0.7818608E-02  0.1378613E+00
          2   -1    0    0  502    0  0.00000000000E+00  0.00000000000E+00  0.32974045296E+03  0.32974045296E+03  0.00000000000E+00 0. -1.
          1   -1    0    0  501    0 -0.00000000000E+00 -0.00000000000E+00 -0.14572777391E+04  0.14572777391E+04  0.00000000000E+00 0. -1.
         25    2    1    2    0    0 -0.38520378179E+02 -0.11969645603E+02  0.50797170258E+02  0.14082385863E+03  0.12499565873E+03 0.  0.
          2    1    1    2  501    0 -0.40557499257E+02  0.37494117405E+02 -0.14043252042E+04  0.14054109715E+04  0.00000000000E+00 0. -1.
          1    1    1    2  502    0  0.79077877436E+02 -0.25524471803E+02  0.22599074774E+03  0.24078336202E+03  0.00000000000E+00 0. -1.
         22    1    3    3    0    0  0.29301434823E+02 -0.39141538546E+02  0.46752970573E+02  0.67649644343E+02  0.00000000000E+00 0. -1.
         22    1    3    3    0    0 -0.67821813001E+02  0.27171892944E+02  0.40441996857E+01  0.73174214284E+02  0.00000000000E+00 0. -1.
</event>
<event>
 7    1  0.5889087E-006  0.7791903E+02  0.7818608E-02  0.1460088E+00
          2   -1    0    0  502    0  0.00000000000E+00  0.00000000000E+00  0.30773291576E+03  0.30773291576E+03  0.00000000000E+00 0. -1.
          1   -1    0    0  501    0 -0.00000000000E+00 -0.00000000000E+00 -0.64220291427E+03  0.64220291427E+03  0.00000000000E+00 0. -1.
         25    2    1    2    0    0  0.35773331369E+02  0.54911999405E+02 -0.31368836531E+03  0.34397688872E+03  0.12499860211E+03 0.  0.
          2    1    1    2  501    0 -0.19166676533E+02  0.21487375833E+02 -0.30746270214E+03  0.30880800187E+03  0.00000000000E+00 0. -1.
          1    1    1    2  502    0 -0.16606654836E+02 -0.76399375238E+02  0.28668106894E+03  0.29715093944E+03  0.00000000000E+00 0. -1.
         22    1    3    3    0    0 -0.19126396160E+02  0.74935531526E+02 -0.13051722990E+03  0.15170992128E+03  0.00000000000E+00 0.  1.
         22    1    3    3    0    0  0.54899727530E+02 -0.20023532121E+02 -0.18317113541E+03  0.19226696744E+03  0.00000000000E+00 0.  1.
</event>
<event>
 7    1  0.5889087E-006  0.8665084E+02  0.7818608E-02  0.1323220E+00
          2   -1    0    0  502    0  0.00000000000E+00  0.00000000000E+00  0.19199325205E+04  0.19199325205E+04  0.00000000000E+00 0. -1.
          1   -1    0    0  501    0 -0.00000000000E+00 -0.00000000000E+00 -0.27258665717E+02  0.27258665717E+02  0.00000000000E+00 0. -1.
         25    2    1    2    0    0 -0.69227202620E+02 -0.77770898372E+02  0.83695529601E+03  0.85261950890E+03  0.12500056492E+03 0.  0.
          2    1    1    2  501    0  0.77032319655E+02 -0.10696688204E+02  0.69313368979E+02  0.10417648741E+03  0.00000000000E+00 0. -1.
          1    1    1    2  502    0 -0.78051170346E+01  0.88467586576E+02  0.98640518980E+03  0.99039518991E+03  0.00000000000E+00 0. -1.
         22    1    3    3    0    0 -0.55701497902E+02 -0.69280307845E+02  0.83074023174E+03  0.83548294450E+03  0.00000000000E+00 0. -1.
         22    1    3    3    0    0 -0.13525704718E+02 -0.84905905261E+01  0.62150642686E+01  0.17136564401E+02  0.00000000000E+00 0. -1.
</event>
<event>
 7    1  0.5889087E-006  0.1113964E+03  0.7818608E-02  0.1396579E+00
          2   -1    0    0  502    0  0.00000000000E+00  0.00000000000E+00  0.97900847826E+03  0.97900847826E+03  0.00000000000E+00 0. -1.
          1   -1    0    0  501    0 -0.00000000000E+00 -0.00000000000E+00 -0.27865937723E+03  0.27865937723E+03  0.00000000000E+00 0. -1.
         25    2    1    2    0    0  0.10077747699E+03  0.91243781557E+02  0.69981148793E+03  0.72377021298E+03  0.12500270002E+03 0.  0.
          2    1    1    2  501    0 -0.68353138707E+02 -0.87493560442E+02 -0.25403644823E+03  0.27723959262E+03  0.00000000000E+00 0. -1.
          1    1    1    2  502    0 -0.32424338282E+02 -0.37502211150E+01  0.25457406133E+03  0.25665804989E+03  0.00000000000E+00 0. -1.
         22    1    3    3    0    0  0.66832978397E+02  0.82952626999E+01  0.50329561331E+03  0.50778138284E+03  0.00000000000E+00 0.  1.
         22    1    3    3    0    0  0.33944498592E+02  0.82948518857E+02  0.19651587462E+03  0.21598883014E+03  0.00000000000E+00 0.  1.
</event>
<event>
 7    1  0.5889087E-006  0.6066188E+02  0.7818608E-02  0.1515876E+00
          2   -1    0    0  502    0  0.00000000000E+00  0.00000000000E+00  0.27800901410E+04  0.27800901410E+04  0.00000000000E+00 0. -1.
          1   -1    0    0  501    0 -0.00000000000E+00 -0.00000000000E+00 -0.11619536337E+03  0.11619536337E+03  0.00000000000E+00 0. -1.
         25    2    1    2    0    0 -0.13086421327E+02 -0.41969893768E+02  0.14892795358E+04  0.14951623927E+04  0.12499727426E+03 0.  0.
          2    1    1    2  501    0 -0.20354980201E+02 -0.14590513620E+02 -0.11102008412E+03  0.11380978598E+03  0.00000000000E+00 0. -1.
          1    1    1    2  502    0  0.33441401528E+02  0.56560407387E+02  0.12856353259E+04  0.12873133256E+04  0.00000000000E+00 0. -1.
         22    1    3    3    0    0  0.15906616546E+02  0.11961007223E+02  0.11639968944E+04  0.11641670226E+04  0.00000000000E+00 0. -1.
         22    1    3    3    0    0 -0.28993037872E+02 -0.53930900991E+02  0.32528264131E+03  0.33099537016E+03  0.00000000000E+00 0. -1.
</event>
<event>
 7    1  0.5889087E-006  0.7085889E+02  0.7818608E-02  0.1388170E+00
          2   -1    0    0  502    0  0.00000000000E+00  0.00000000000E+00  0.30149094306E+04  0.30149094306E+04  0.00000000000E+00 0. -1.
          1   -1    0    0  501    0 -0.00000000000E+00 -0.00000000000E+00 -0.83715797680E+01  0.83715797680E+01  0.00000000000E+00 0. -1.
         25    2    1    2    0    0 -0.41082044134E+02  0.58389101095E+01  0.13785059015E+04  0.13847832724E+04  0.12499745485E+03 0.  0.
          2    1    1    2  501    0  0.54460026447E+02 -0.59071423519E+02  0.34262055902E+03  0.35191501108E+03  0.00000000000E+00 0. -1.
          1    1    1    2  502    0 -0.13377982313E+02  0.53232513410E+02  0.12854113903E+04  0.12865827270E+04  0.00000000000E+00 0. -1.
         22    1    3    3    0    0 -0.47652824010E+02  0.51317842902E+02  0.11227672674E+04  0.11249491764E+04  0.00000000000E+00 0. -1.
         22    1    3    3    0    0  0.65707798757E+01 -0.45478932793E+02  0.25573863411E+03  0.25983409601E+03  0.00000000000E+00 0. -1.
</event>
<event>
 7    1  0.5889087E-006  0.3574939E+02  0.7818608E-02  0.1561526E+00
          2   -1    0    0  502    0  0.00000000000E+00  0.00000000000E+00  0.57770630514E+03  0.57770630514E+03  0.00000000000E+00 0. -1.
          1   -1    0    0  501    0 -0.00000000000E+00 -0.00000000000E+00 -0.35565932066E+02  0.35565932066E+02  0.00000000000E+00 0. -1.
         25    2    1    2    0    0 -0.20604405465E+02 -0.30807781462E+01  0.13627491119E+03  0.18609130335E+03  0.12500035618E+03 0.  0.
          2    1    1    2  501    0  0.67804017122E+01 -0.30816752810E+02  0.15595027953E+02  0.35197315210E+02  0.00000000000E+00 0. -1.
          1    1    1    2  502    0  0.13824003752E+02  0.33897530957E+02  0.39027043394E+03  0.39198361865E+03  0.00000000000E+00 0. -1.
         22    1    3    3    0    0 -0.41823218925E+02 -0.12829653389E+01 -0.59652319906E+01  0.42265963068E+02  0.00000000000E+00 0. -1.
         22    1    3    3    0    0  0.21218813461E+02 -0.17978128073E+01  0.14224014318E+03  0.14382534028E+03  0.00000000000E+00 0. -1.
</event>
<event>
 7    1  0.5889087E-006  0.8244662E+02  0.7818608E-02  0.1449269E+00
          2   -1    0    0  502    0  0.00000000000E+00  0.00000000000E+00  0.62156949201E+03  0.62156949201E+03  0.00000000000E+00 0. -1.
          1   -1    0    0  501    0 -0.00000000000E+00 -0.00000000000E+00 -0.41166088478E+03  0.41166088478E+03  0.00000000000E+00 0. -1.
         25    2    1    2    0    0  0.35553002434E+02  0.47749399814E+02 -0.90406766897E+02  0.16534551676E+03  0.12498694030E+03 0.  0.
          2    1    1    2  501    0  0.29142542917E+02  0.42762769187E+01 -0.28005859346E+03  0.28160324949E+03  0.00000000000E+00 0. -1.
          1    1    1    2  502    0 -0.64695545352E+02 -0.52025676732E+02  0.58037396758E+03  0.58628161056E+03  0.00000000000E+00 0. -1.
         22    1    3    3    0    0  0.53386658585E+02  0.36794107644E+02  0.74601648562E+01  0.65265578461E+02  0.00000000000E+00 0.  1.
         22    1    3    3    0    0 -0.17833656151E+02  0.10955292170E+02 -0.97866931753E+02  0.10007993829E+03  0.00000000000E+00 0.  1.
</event>
<event>
 7    1  0.5889087E-006  0.4236964E+02  0.7818608E-02  0.1552994E+00
          2   -1    0    0  502    0  0.00000000000E+00  0.00000000000E+00  0.23997575041E+04  0.23997575041E+04  0.00000000000E+00 0. -1.
          1   -1    0    0  501    0 -0.00000000000E+00 -0.00000000000E+00 -0.14841785545E+03  0.14841785545E+03  0.00000000000E+00 0. -1.
         25    2    1    2    0    0 -0.13556623266E+02 -0.73050103562E+01  0.21386310406E+04  0.21423362814E+04  0.12499947842E+03 0.  0.
          2    1    1    2  501    0 -0.33731276633E+02  0.25639560420E+02 -0.14093931793E+03  0.14717023279E+03  0.00000000000E+00 0. -1.
          1    1    1    2  502    0  0.47287899899E+02 -0.18334550064E+02  0.25364792596E+03  0.25866884534E+03  0.00000000000E+00 0. -1.
         22    1    3    3    0    0 -0.30657761074E+02  0.65276222573E+01  0.13525727390E+03  0.13884177436E+03  0.00000000000E+00 0. -1.
         22    1    3    3    0    0  0.17101137808E+02 -0.13832632613E+02  0.20033737667E+04  0.20034945070E+04  0.00000000000E+00 0. -1.
</event>
<event>
 7    1  0.5889087E-006  0.1208843E+03  0.7818608E-02  0.1367012E+00
          2   -1    0    0  502    0  0.00000000000E+00  0.00000000000E+00  0.32630642667E+03  0.32630642667E+03  0.00000000000E+00 0. -1.
          1   -1    0    0  501    0 -0.00000000000E+00 -0.00000000000E+00 -0.85985295930E+03  0.85985295930E+03  0.00000000000E+00 0. -1.
         25    2    1    2    0    0  0.13889825752E+02  0.11349836399E+03 -0.80969096675E+02  0.18776550865E+03  0.12500034294E+03 0.  0.
          2    1    1    2  501    0 -0.52019512962E+02 -0.11037937320E+03 -0.71897856953E+03  0.72925977484E+03  0.00000000000E+00 0. -1.
          1    1    1    2  502    0  0.38129687210E+02 -0.31189907964E+01  0.26640113357E+03  0.26913410248E+03  0.00000000000E+00 0. -1.
         22    1    3    3    0    0  0.67809915131E+01  0.12822843055E+03 -0.99941009575E+02  0.16271667906E+03  0.00000000000E+00 0.  1.
         22    1    3    3    0    0  0.71088342391E+01 -0.14730066559E+02  0.18971912901E+02  0.25048829597E+02  0.00000000000E+00 0.  1.
</event>
<event>
 7    1  0.5889087E-006  0.1300234E+03  0.7818608E-02  0.1244129E+00
          2   -1    0    0  502    0  0.00000000000E+00  0.00000000000E+00  0.40028692260E+03  0.40028692260E+03  0.00000000000E+00 0. -1.
          1   -1    0    0  501    0 -0.00000000000E+00 -0.00000000000E+00 -0.87908549812E+03  0.87908549812E+03  0.00000000000E+00 0. -1.
         25    2    1    2    0    0  0.70275075357E+02  0.11411933619E+03 -0.80903310118E+02  0.20032115099E+03  0.12498563452E+03 0.  0.
          2    1    1    2  501    0  0.61260679656E+02 -0.90882943859E+02 -0.72107448235E+03  0.72935655852E+03  0.00000000000E+00 0. -1.
          1    1    1    2  502    0 -0.13153575501E+03 -0.23236392332E+02  0.32317921695E+03  0.34969471121E+03  0.00000000000E+00 0. -1.
         22    1    3    3    0    0  0.94432639332E+02  0.35694592940E+02 -0.39492507634E+02  0.10840334633E+03  0.00000000000E+00 0. -1.
         22    1    3    3    0    0 -0.24157563975E+02  0.78424743252E+02 -0.41410802484E+02  0.91917804661E+02  0.00000000000E+00 0. -1.
</event>
<event>
 7    1  0.5889087E-006  0.5897670E+02  0.7818608E-02  0.1460785E+00
          2   -1    0    0  502    0  0.00000000000E+00  0.00000000000E+00  0.84002511350E+03  0.84002511350E+03  0.00000000000E+00 0. -1.
          1   -1    0    0  501    0 -0.00000000000E+00 -0.00000000000E+00 -0.11817606301E+04  0.11817606301E+04  0.00000000000E+00 0. -1.
         25    2    1    2    0    0  0.70938230818E+02 -0.23329113088E+02 -0.27053332838E+00  0.14560983987E+03  0.12500268864E+03 0.  0.
          2    1    1    2  501    0 -0.13309177593E+02  0.35432453633E+02 -0.11073669147E+04  0.11080135725E+04  0.00000000000E+00 0. -1.
          1    1    1    2  502    0 -0.57629053225E+02 -0.12103340544E+02  0.76590193142E+03  0.76816233127E+03  0.00000000000E+00 0. -1.
         22    1    3    3    0    0  0.62444791150E+02  0.34678429474E+02  0.32469255330E+02  0.78461442469E+02  0.00000000000E+00 0.  1.
         22    1    3    3    0    0  0.84934396683E+01 -0.58007542563E+02 -0.32739788658E+02  0.67148397397E+02  0.00000000000E+00 0.  1.
</event>
<event>
 7    1  0.5889087E-006  0.1640498E+03  0.7818608E-02  0.1383626E+00
          2   -1    0    0  502    0  0.00000000000E+00  0.00000000000E+00  0.51290389690E+03  0.51290389690E+03  0.00000000000E+00 0. -1.
          1   -1    0    0  501    0 -0.00000000000E+00 -0.00000000000E+00 -0.23685063552E+03  0.23685063552E+03  0.00000000000E+00 0. -1.
         25    2    1    2    0    0  0.60959403833E+02  0.14783546512E+03 -0.16507532357E+02  0.20363955010E+03  0.12500077631E+03 0.  0.
          2    1    1    2  501    0 -0.40882046028E+02 -0.16204175527E+03 -0.71105921510E+02  0.18161752176E+03  0.00000000000E+00 0. -1.
          1    1    1    2  502    0 -0.20077357805E+02  0.14206290150E+02  0.36366671525E+03  0.36449746056E+03  0.00000000000E+00 0. -1.
         22    1    3    3    0    0 -0.26262992498E+02  0.62342003690E+02 -0.40958515986E+02  0.79081415205E+02  0.00000000000E+00 0.  1.
         22    1    3    3    0    0  0.87222396331E+02  0.85493461425E+02  0.24450983629E+02  0.12455813490E+03  0.00000000000E+00 0.  1.
</event>
<event>
 7    1  0.5889087E-006  0.1144204E+03  0.7818608E-02  0.1255231E+00
          2   -1    0    0  502    0  0.00000000000E+00  0.00000000000E+00  0.20455151996E+04  0.20455151996E+04  0.00000000000E+00 0. -1.
          1   -1    0    0  501    0 -0.00000000000E+00 -0.00000000000E+00 -0.35637888513E+03  0.35637888513E+03  0.00000000000E+00 0. -1.
         25    2    1    2    0    0 -0.21106375464E+02  0.64524847407E+02 -0.31062482945E+00  0.14224869013E+03  0.12500263332E+03 0.  0.
          2    1    1    2  501    0 -0.95288461326E+02 -0.57836174958E+02 -0.27240686284E+03  0.29433044851E+03  0.00000000000E+00 0. -1.
          1    1    1    2  502    0  0.11639483679E+03 -0.66886724486E+01  0.19618538021E+04  0.19653149461E+04  0.00000000000E+00 0. -1.
         22    1    3    3    0    0  0.32497326556E+02  0.79346959895E+02 -0.79481941067E+01  0.86111497882E+02  0.00000000000E+00 0. -1.
         22    1    3    3    0    0 -0.53603702021E+02 -0.14822112489E+02  0.76375692773E+01  0.56137192247E+02  0.00000000000E+00 0. -1.
</event>
<event>
 7    1  0.5889087E-006  0.5977137E+02  0.7818608E-02  0.1476609E+00
          2   -1    0    0  502    0  0.00000000000E+00  0.00000000000E+00  0.34835932101E+04  0.34835932101E+04  0.00000000000E+00 0. -1.
          1   -1    0    0  501    0 -0.00000000000E+00 -0.00000000000E+00 -0.37048913350E+02  0.37048913350E+02  0.00000000000E+00 0. -1.
         25    2    1    2    0    0 -0.23793135481E+02  0.28948262286E+02  0.21252999464E+04  0.21293028947E+04  0.12500735938E+03 0.  0.
          2    1    1    2  501    0 -0.27754729492E+02  0.18467976561E+02 -0.25998758232E+02  0.42276785557E+02  0.00000000000E+00 0. -1.
          1    1    1    2  502    0  0.51547864973E+02 -0.47416238847E+02  0.13472431086E+04  0.13490624433E+04  0.00000000000E+00 0. -1.
         22    1    3    3    0    0  0.16484968320E+02 -0.37482330352E+02  0.12163506292E+04  0.12170396594E+04  0.00000000000E+00 0.  1.
         22    1    3    3    0    0 -0.40278103801E+02  0.66430592638E+02  0.90894931717E+03  0.91226323530E+03  0.00000000000E+00 0.  1.
</event>
<event>
 7    1  0.5889087E-006  0.9354198E+02  0.7818608E-02  0.1452616E+00
          2   -1    0    0  502    0  0.00000000000E+00  0.00000000000E+00  0.43891947744E+03  0.43891947744E+03  0.00000000000E+00 0. -1.
          1   -1    0    0  501    0 -0.00000000000E+00 -0.00000000000E+00 -0.86831743674E+03  0.86831743674E+03  0.00000000000E+00 0. -1.
         25    2    1    2    0    0  0.11316670760E+03 -0.26367854302E+02 -0.10840683196E+03  0.20217944760E+03  0.12499008107E+03 0.  0.
          2    1    1    2  501    0 -0.91049681354E+02  0.14022100795E+02 -0.70963472074E+03  0.71558933801E+03  0.00000000000E+00 0. -1.
          1    1    1    2  502    0 -0.22117026244E+02  0.12345753507E+02  0.38864359341E+03  0.38946812857E+03  0.00000000000E+00 0. -1.
         22    1    3    3    0    0  0.29901852279E+02  0.48649415702E+02 -0.24316681813E+02  0.62065992559E+02  0.00000000000E+00 0. -1.
         22    1    3    3    0    0  0.83264855319E+02 -0.75017270005E+02 -0.84090150149E+02  0.14011345504E+03  0.00000000000E+00 0. -1.
</event>
<event>
 7    1  0.5889087E-006  0.8403901E+02  0.7818608E-02  0.1413070E+00
          2   -1    0    0  502    0  0.00000000000E+00  0.00000000000E+00  0.74428679423E+03  0.74428679423E+03  0.00000000000E+00 0. -1.
          1   -1    0    0  501    0 -0.00000000000E+00 -0.00000000000E+00 -0.43399053939E+03  0.43399053939E+03  0.00000000000E+00 0. -1.
         25    2    1    2    0    0  0.21930395121E+02  0.67229291202E+02  0.47516883340E+03  0.49639793020E+03  0.12499906018E+03 0.  0.
          2    1    1    2  501    0  0.36347551472E+02  0.11099778023E+02 -0.41325465083E+03  0.41499850120E+03  0.00000000000E+00 0. -1.
          1    1    1    2  502    0 -0.58277946593E+02 -0.78329069225E+02  0.24838207227E+03  0.26688090222E+03  0.00000000000E+00 0. -1.
         22    1    3    3    0    0  0.16291267253E+02 -0.18970933982E+02  0.17193173763E+02  0.30346448704E+02  0.00000000000E+00 0. -1.
         22    1    3    3    0    0  0.56391278681E+01  0.86200225184E+02  0.45797565964E+03  0.46605148150E+03  0.00000000000E+00 0. -1.
</event>
<event>
 7    1  0.5889087E-006  0.1255411E+03  0.7818608E-02  0.1383628E+00
          2   -1    0    0  502    0  0.00000000000E+00  0.00000000000E+00  0.31382781699E+04  0.31382781699E+04  0.00000000000E+00 0. -1.
          1   -1    0    0  501    0 -0.00000000000E+00 -0.00000000000E+00 -0.14767346722E+03  0.14767346722E+03  0.00000000000E+00 0. -1.
         25    2    1    2    0    0 -0.13276030208E+03 -0.42293084615E+02  0.21889325630E+04  0.21969217277E+04  0.12500123909E+03 0.  0.
          2    1    1    2  501    0  0.10833315667E+03  0.63178850853E+02 -0.11597793149E+03  0.17081721407E+03  0.00000000000E+00 0. -1.
          1    1    1    2  502    0  0.24427145405E+02 -0.20885766238E+02  0.91765007124E+03  0.91821269536E+03  0.00000000000E+00 0. -1.
         22    1    3    3    0    0 -0.12636063305E+03 -0.39158892822E+02  0.21845587282E+04  0.21885605465E+04  0.00000000000E+00 0. -1.
         22    1    3    3    0    0 -0.63996690268E+01 -0.31341917932E+01  0.43738347297E+01  0.83611812617E+01  0.00000000000E+00 0. -1.
</event>
<event>
 7    1  0.5889087E-006  0.1318746E+03  0.7818608E-02  0.1251326E+00
          2   -1    0    0  502    0  0.00000000000E+00  0.00000000000E+00  0.46527639669E+04  0.46527639669E+04  0.00000000000E+00 0. -1.
          1   -1    0    0  501    0 -0.00000000000E+00 -0.00000000000E+00 -0.11474005347E+03  0.11474005347E+03  0.00000000000E+00 0. -1.
         25    2    1    2    0    0  0.34766080388E+02  0.29517142978E+02  0.24865567046E+03  0.28201761747E+03  0.12499740811E+03 0.  0.
          2    1    1    2  501    0  0.10050127507E+03 -0.28008010448E+01 -0.70908652345E+02  0.12303002786E+03  0.00000000000E+00 0. -1.
          1    1    1    2  502    0 -0.13526735546E+03 -0.26716341933E+02  0.43602768954E+04  0.43624563751E+04  0.00000000000E+00 0. -1.
         22    1    3    3    0    0 -0.29254290037E+02  0.21474284694E+02  0.14407318254E+02  0.39045220040E+02  0.00000000000E+00 0. -1.
         22    1    3    3    0    0  0.64020370425E+02  0.80428582836E+01  0.23424835221E+03  0.24297239743E+03  0.00000000000E+00 0. -1.
</event>
<event>
 7    1  0.5889087E-006  0.7375158E+02  0.7818608E-02  0.1515417E+00
          2   -1    0    0  502    0  0.00000000000E+00  0.00000000000E+00  0.42875826078E+02  0.42875826078E+02  0.00000000000E+00 0. -1.
          1   -1    0    0  501    0 -0.00000000000E+00 -0.00000000000E+00 -0.14648866611E+04  0.14648866611E+04  0.00000000000E+00 0. -1.
         25    2    1    2    0    0 -0.24721618033E+02 -0.78817058404E+02 -0.48119307499E+03  0.50397904179E+03  0.12499924818E+03 0.  0.
          2    1    1    2  501    0  0.19828129328E+02  0.58136003055E+01 -0.92951931942E+03  0.92974895420E+03  0.00000000000E+00 0. -1.
          1    1    1    2  502    0  0.48934887049E+01  0.73003458098E+02 -0.11298440612E+02  0.74034491193E+02  0.00000000000E+00 0. -1.
         22    1    3    3    0    0  0.86623103967E+01  0.32424623859E+02 -0.99605542519E+02  0.10510783013E+03  0.00000000000E+00 0. -1.
         22    1    3    3    0    0 -0.33383928429E+02 -0.11124168226E+03 -0.38158753247E+03  0.39887121166E+03  0.00000000000E+00 0. -1.
</event>
<event>
 7    1  0.5889087E-006  0.7268501E+02  0.7818608E-02  0.1456913E+00
          2   -1    0    0  502    0  0.00000000000E+00  0.00000000000E+00  0.13807258757E+04  0.13807258757E+04  0.00000000000E+00 0. -1.
          1   -1    0    0  501    0 -0.00000000000E+00 -0.00000000000E+00 -0.27762472880E+03  0.27762472880E+03  0.00000000000E+00 0. -1.
         25    2    1    2    0    0  0.75908554577E+02  0.39429950855E+01  0.25435201790E+03  0.29342487419E+03  0.12500220765E+03 0.  0.
          2    1    1    2  501    0 -0.64606002339E+02 -0.33440383981E+02 -0.25273102654E+03  0.26299271206E+03  0.00000000000E+00 0. -1.
          1    1    1    2  502    0 -0.11302552238E+02  0.29497388895E+02  0.11014801556E+04  0.11019330183E+04  0.00000000000E+00 0. -1.
         22    1    3    3    0    0  0.54632405376E+02  0.59268220749E+02  0.10239201095E+03  0.13031325955E+03  0.00000000000E+00 0. -1.
         22    1    3    3    0    0  0.21276149200E+02 -0.55325225663E+02  0.15196000695E+03  0.16311161464E+03  0.00000000000E+00 0. -1.
</event>
<event>
 7    1  0.5889087E-006  0.1001797E+03  0.7818608E-02  0.1297107E+00
          2   -1    0    0  502    0  0.00000000000E+00  0.00000000000E+00  0.40162638745E+03  0.40162638745E+03  0.00000000000E+00 0. -1.
          1   -1    0    0  501    0 -0.00000000000E+00 -0.00000000000E+00 -0.19328244137E+04  0.19328244137E+04  0.00000000000E+00 0. -1.
         25    2    1    2    0    0  0.28590489011E+02  0.15701339030E+03 -0.36960876245E+03  0.42155156649E+03  0.12499786054E+03 0.  0.
          2    1    1    2  501    0 -0.59314133458E+02 -0.77490199502E+02 -0.15308337523E+04  0.15339409619E+04  0.00000000000E+00 0. -1.
          1    1    1    2  502    0  0.30723644447E+02 -0.79523190802E+02  0.36924448850E+03  0.37895827275E+03  0.00000000000E+00 0. -1.
         22    1    3    3    0    0 -0.46895555266E+02  0.54439635778E+02 -0.97520589802E+02  0.12113270608E+03  0.00000000000E+00 0.  1.
         22    1    3    3    0    0  0.75486044276E+02  0.10257375453E+03 -0.27208817264E+03  0.30041886041E+03  0.00000000000E+00 0.  1.
</event>
<event>
 7    1  0.5889087E-006  0.1502499E+03  0.7818608E-02  0.1314039E+00
          2   -1    0    0  502    0  0.00000000000E+00  0.00000000000E+00  0.15995162645E+04  0.15995162645E+04  0.00000000000E+00 0. -1.
          1   -1    0    0  501    0 -0.00000000000E+00 -0.00000000000E+00 -0.35779177371E+03  0.35779177371E+03  0.00000000000E+00 0. -1.
         25    2    1    2    0    0 -0.69728225355E+02  0.12246583116E+03 -0.83476784626E+02  0.20603788940E+03  0.12499333216E+03 0.  0.
          2    1    1    2  501    0 -0.43119837645E+02 -0.22622355862E+02 -0.20650612964E+03  0.21216944399E+03  0.00000000000E+00 0. -1.
          1    1    1    2  502    0  0.11284806300E+03 -0.99843475295E+02  0.15317074050E+04  0.15391007048E+04  0.00000000000E+00 0. -1.
         22    1    3    3    0    0 -0.98623914507E+02  0.76059488549E+02 -0.85933919971E+02  0.15131543514E+03  0.00000000000E+00 0. -1.
         22    1    3    3    0    0  0.28895689152E+02  0.46406342607E+02  0.24571353451E+01  0.54722454256E+02  0.00000000000E+00 0. -1.
</event>
<event>
 7    1  0.5889087E-006  0.1212334E+03  0.7818608E-02  0.1298616E+00
          2   -1    0    0  502    0  0.00000000000E+00  0.00000000000E+00  0.24456933220E+04  0.24456933220E+04  0.00000000000E+00 0. -1.
          1   -1    0    0  501    0 -0.00000000000E+00 -0.00000000000E+00 -0.18333070283E+04  0.18333070283E+04  0.00000000000E+00 0. -1.
         25    2    1    2    0    0  0.31468008341E+02 -0.15185351695E+03 -0.42694287840E+02  0.20371172700E+03  0.12500375733E+03 0.  0.
          2    1    1    2  501    0  0.28768830634E+02  0.11724663781E+03 -0.17074621709E+04  0.17117247106E+04  0.00000000000E+00 0. -1.
          1    1    1    2  502    0 -0.60236838975E+02  0.34606879134E+02  0.23625427524E+04  0.23635639128E+04  0.00000000000E+00 0. -1.
         22    1    3    3    0    0  0.43335324935E+02  0.29967391667E+00  0.54616393691E+01  0.43679167761E+02  0.00000000000E+00 0.  1.
         22    1    3    3    0    0 -0.11867316594E+02 -0.15215319086E+03 -0.48155927209E+02  0.16003255924E+03  0.00000000000E+00 0.  1.
</event>
<event>
 7    1  0.5889087E-006  0.5568181E+02  0.7818608E-02  0.1420601E+00
          2   -1    0    0  502    0  0.00000000000E+00  0.00000000000E+00  0.21924065895E+04  0.21924065895E+04  0.00000000000E+00 0. -1.
          1   -1    0    0  501    0 -0.00000000000E+00 -0.00000000000E+00 -0.11883603580E+03  0.11883603580E+03  0.00000000000E+00 0. -1.
         25    2    1    2    0    0 -0.41712650128E+02  0.65302771159E+02  0.16005401997E+03  0.21736324986E+03  0.12500038392E+03 0.  0.
          2    1    1    2  501    0  0.53031677006E+02 -0.10785361974E+02 -0.81639039798E+02  0.97947004130E+02  0.00000000000E+00 0. -1.
          1    1    1    2  502    0 -0.11319026878E+02 -0.54517409184E+02  0.19951555735E+04  0.19959323713E+04  0.00000000000E+00 0. -1.
         22    1    3    3    0    0 -0.74270811957E+02  0.76023961369E+02  0.89590334968E+02  0.13900440400E+03  0.00000000000E+00 0. -1.
         22    1    3    3    0    0  0.32558161829E+02 -0.10721190211E+02  0.70463685000E+02  0.78358845863E+02  0.00000000000E+00 0. -1.
</event>
<event>
 7    1  0.5889087E-006  0.6329248E+02  0.7818608E-02  0.1429306E+00
          2   -1    0    0  502    0  0.00000000000E+00  0.00000000000E+00  0.62971820026E+03  0.62971820026E+03  0.00000000000E+00 0. -1.
          1   -1    0    0  501    0 -0.00000000000E+00 -0.00000000000E+00 -0.16261057898E+03  0.16261057898E+03  0.00000000000E+00 0. -1.
         25    2    1    2    0    0  0.23633821284E+02 -0.27036862555E+02  0.33069372187E+02  0.13419423945E+03  0.12499984432E+03 0.  0.
          2    1    1    2  501    0 -0.66108781218E+02  0.13605089999E+02 -0.10087346281E+03  0.12137102178E+03  0.00000000000E+00 0. -1.
          1    1    1    2  502    0  0.42474959935E+02  0.13431772556E+02  0.53491171190E+03  0.53676351801E+03  0.00000000000E+00 0. -1.
         22    1    3    3    0    0  0.67113066434E+02 -0.46837757609E+02  0.15534148051E+02  0.83302154712E+02  0.00000000000E+00 0.  1.
         22    1    3    3    0    0 -0.43479245151E+02  0.19800895054E+02  0.17535224137E+02  0.50892084742E+02  0.00000000000E+00 0.  1.
</event>
<event>
 7    1  0.5889087E-006  0.6168142E+02  0.7818608E-02  0.1486550E+00
          2   -1    0    0  502    0  0.00000000000E+00  0.00000000000E+00  0.51490642210E+03  0.51490642210E+03  0.00000000000E+00 0. -1.
          1   -1    0    0  501    0 -0.00000000000E+00 -0.00000000000E+00 -0.24587307904E+03  0.24587307904E+03  0.00000000000E+00 0. -1.
         25    2    1    2    0    0 -0.42565613111E+02  0.48878748487E+02  0.16737182122E+03  0.21872154395E+03  0.12499929511E+03 0.  0.
          2    1    1    2  501    0  0.57450738656E+02 -0.22694951852E+02 -0.21513779188E+03  0.22383010902E+03  0.00000000000E+00 0. -1.
          1    1    1    2  502    0 -0.14885125545E+02 -0.26183796635E+02  0.31679931372E+03  0.31822784816E+03  0.00000000000E+00 0. -1.
         22    1    3    3    0    0  0.29802929210E+02  0.21601561496E+02  0.12547744878E+03  0.13076479726E+03  0.00000000000E+00 0. -1.
         22    1    3    3    0    0 -0.72368542321E+02  0.27277186991E+02  0.41894372438E+02  0.87956746699E+02  0.00000000000E+00 0. -1.
</event>
<event>
 7    1  0.5889087E-006  0.9873210E+02  0.7818608E-02  0.1407908E+00
          2   -1    0    0  502    0  0.00000000000E+00  0.00000000000E+00  0.67888950205E+03  0.67888950205E+03  0.00000000000E+00 0. -1.
          1   -1    0    0  501    0 -0.00000000000E+00 -0.00000000000E+00 -0.41093218279E+04  0.41093218279E+04  0.00000000000E+00 0. -1.
         25    2    1    2    0    0  0.95973978594E+01  0.86296654880E+02 -0.16055026175E+03  0.22122396214E+03  0.12499772873E+03 0.  0.
          2    1    1    2  501    0  0.22500320424E+02 -0.96489959272E+02 -0.39173707245E+04  0.39186234789E+04  0.00000000000E+00 0. -1.
          1    1    1    2  502    0 -0.32097718283E+02  0.10193304392E+02  0.64748866042E+03  0.64836388884E+03  0.00000000000E+00 0. -1.
         22    1    3    3    0    0 -0.51638889395E+02  0.71176859400E+02 -0.10687641299E+03  0.13840262955E+03  0.00000000000E+00 0.  1.
         22    1    3    3    0    0  0.61236287255E+02  0.15119795480E+02 -0.53673848761E+02  0.82821332596E+02  0.00000000000E+00 0.  1.
</event>
<event>
 7    1  0.5889087E-006  0.7233524E+02  0.7818608E-02  0.1389630E+00
          2   -1    0    0  502    0  0.00000000000E+00  0.00000000000E+00  0.18014019274E+04  0.18014019274E+04  0.00000000000E+00 0. -1.
          1   -1    0    0  501    0 -0.00000000000E+00 -0.00000000000E+00 -0.14881079831E+03  0.14881079831E+03  0.00000000000E+00 0. -1.
         25    2    1    2    0    0  0.60374693225E+00  0.26814617440E+02  0.45207859328E+03  0.46980829112E+03  0.12500155072E+03 0.  0.
          2    1    1    2  501    0  0.39173358373E+02 -0.62050930978E+02 -0.12975932154E+03  0.14907163234E+03  0.00000000000E+00 0. -1.
          1    1    1    2  502    0 -0.39777105305E+02  0.35236313538E+02  0.13302718574E+04  0.13313328023E+04  0.00000000000E+00 0. -1.
         22    1    3    3    0    0 -0.45446370223E+02  0.54591279390E+02  0.20539990831E+03  0.21733546118E+03  0.00000000000E+00 0. -1.
         22    1    3    3    0    0  0.46050117155E+02 -0.27776661950E+02  0.24667868497E+03  0.25247282994E+03  0.00000000000E+00 0. -1.
</event>
<event>
 7    1  0.5889087E-006  0.4173117E+02  0.7818608E-02  0.1568866E+00
          2   -1    0    0  502    0  0.00000000000E+00  0.00000000000E+00  0.62585957829E+03  0.62585957829E+03  0.00000000000E+00 0. -1.
          1   -1    0    0  501    0 -0.00000000000E+00 -0.00000000000E+00 -0.67414844818E+02  0.67414844818E+02  0.00000000000E+00 0. -1.
         25    2    1    2    0    0 -0.38842798296E+02  0.23907176546E+02  0.21498336666E+03  0.25282906229E+03  0.12499748288E+03 0.  0.
          2    1    1    2  501    0 -0.30602061181E+01 -0.25628231291E+02 -0.43843481165E+02  0.50876536254E+02  0.00000000000E+00 0. -1.
          1    1    1    2  502    0  0.41903004414E+02  0.17210547452E+01  0.38730484798E+03  0.38956882457E+03  0.00000000000E+00 0. -1.
         22    1    3    3    0    0  0.78683203975E+01  0.66406916476E+02  0.83589619916E+02  0.10704678220E+03  0.00000000000E+00 0. -1.
         22    1    3    3    0    0 -0.46711118694E+02 -0.42499739931E+02  0.13139374675E+03  0.14578228009E+03  0.00000000000E+00 0. -1.
</event>
<event>
 7    1  0.5889087E-006  0.4463145E+02  0.7818608E-02  0.1517189E+00
          2   -1    0    0  502    0  0.00000000000E+00  0.00000000000E+00  0.47134746221E+03  0.47134746221E+03  0.00000000000E+00 0. -1.
          1   -1    0    0  501    0 -0.00000000000E+00 -0.00000000000E+00 -0.12183223518E+04  0.12183223518E+04  0.00000000000E+00 0. -1.
         25    2    1    2    0    0 -0.21942540389E+02  0.67874686375E+02 -0.36205262532E+02  0.14840381320E+03  0.12499769041E+03 0.  0.
          2    1    1    2  501    0 -0.22921251803E+01 -0.44399514846E+02 -0.11248926050E+04  0.11257708220E+04  0.00000000000E+00 0. -1.
          1    1    1    2  502    0  0.24234665570E+02 -0.23475171530E+02  0.41412297800E+03  0.41549517880E+03  0.00000000000E+00 0. -1.
         22    1    3    3    0    0 -0.63700262407E+01  0.30148559476E+02 -0.81680334604E+02  0.87299426881E+02  0.00000000000E+00 0. -1.
         22    1    3    3    0    0 -0.15572514149E+02  0.37726126900E+02  0.45475072071E+02  0.61104386321E+02  0.00000000000E+00 0. -1.
</event>
<event>
 7    1  0.5889087E-006  0.7071024E+02  0.7818608E-02  0.1499525E+00
          2   -1    0    0  502    0  0.00000000000E+00  0.00000000000E+00  0.64522479867E+03  0.64522479867E+03  0.00000000000E+00 0. -1.
          1   -1    0    0  501    0 -0.00000000000E+00 -0.00000000000E+00 -0.73126176582E+03  0.73126176582E+03  0.00000000000E+00 0. -1.
         25    2    1    2    0    0 -0.33322249566E+02  0.46839844167E+02  0.42046282991E+02  0.14386718669E+03  0.12500213668E+03 0.  0.
          2    1    1    2  501    0  0.56932896684E+02 -0.42469862632E+02 -0.67823488676E+03  0.68194399006E+03  0.00000000000E+00 0. -1.
          1    1    1    2  502    0 -0.23610647118E+02 -0.43699815350E+01  0.55015163662E+03  0.55067538775E+03  0.00000000000E+00 0. -1.
         22    1    3    3    0    0  0.20536589396E+02 -0.33435255839E+02  0.22534025139E+02  0.45248758281E+02  0.00000000000E+00 0.  1.
         22    1    3    3    0    0 -0.53858838962E+02  0.80275100006E+02  0.19512257852E+02  0.98618428409E+02  0.00000000000E+00 0.  1.
</event>
<event>
 7    1  0.5889087E-006  0.9383901E+02  0.7818608E-02  0.1387377E+00
          2   -1    0    0  502    0  0.00000000000E+00  0.00000000000E+00  0.15385480322E+03  0.15385480322E+03  0.00000000000E+00 0. -1.
          1   -1    0    0  501    0 -0.00000000000E+00 -0.00000000000E+00 -0.17068256351E+04  0.17068256351E+04  0.00000000000E+00 0. -1.
         25    2    1    2    0    0 -0.10661014984E+03 -0.24420893368E+02 -0.11871683386E+02  0.16651776694E+03  0.12500050304E+03 0.  0.
          2    1    1    2  501    0  0.92520598583E+02 -0.14839841598E+02 -0.16104824467E+04  0.16132061223E+04  0.00000000000E+00 0. -1.
          1    1    1    2  502    0  0.14089551254E+02  0.39260734966E+02  0.69383298190E+02  0.80956549040E+02  0.00000000000E+00 0. -1.
         22    1    3    3    0    0 -0.83391304232E+02 -0.73830753835E+02 -0.10967064487E+02  0.11191678309E+03  0.00000000000E+00 0.  1.
         22    1    3    3    0    0 -0.23218845604E+02  0.49409860467E+02 -0.90461889973E+00  0.54600983855E+02  0.00000000000E+00 0.  1.
</event>
<event>
 7    1  0.5889087E-006  0.7037257E+02  0.7818608E-02  0.1402738E+00
          2   -1    0    0  502    0  0.00000000000E+00  0.00000000000E+00  0.64952499763E+03  0.64952499763E+03  0.00000000000E+00 0. -1.
          1   -1    0    0  501    0 -0.00000000000E+00 -0.00000000000E+00 -0.88298904986E+03  0.88298904986E+03  0.00000000000E+00 0. -1.
         25    2    1    2    0    0  0.30762316145E+02 -0.10871243103E+02 -0.16228985762E+03  0.20743696529E+03  0.12501037022E+03 0.  0.
          2    1    1    2  501    0 -0.46819289757E+02  0.57385535513E+02 -0.69519008290E+03  0.69912402115E+03  0.00000000000E+00 0. -1.
          1    1    1    2  502    0  0.16056973613E+02 -0.46514292410E+02  0.62401588829E+03  0.62595306105E+03  0.00000000000E+00 0. -1.
         22    1    3    3    0    0  0.75318438810E+02 -0.90321628388E+01 -0.63054879260E+02  0.98642612439E+02  0.00000000000E+00 0.  1.
         22    1    3    3    0    0 -0.44556122665E+02 -0.18390802643E+01 -0.99234978357E+02  0.10879435285E+03  0.00000000000E+00 0.  1.
</event>
<event>
 7    1  0.5889087E-006  0.1398775E+03  0.7818608E-02  0.1398509E+00
          2   -1    0    0  502    0  0.00000000000E+00  0.00000000000E+00  0.38509113524E+03  0.38509113524E+03  0.00000000000E+00 0. -1.
          1   -1    0    0  501    0 -0.00000000000E+00 -0.00000000000E+00 -0.43713356297E+03  0.43713356297E+03  0.00000000000E+00 0. -1.
         25    2    1    2    0    0 -0.14472202301E+03  0.49448831877E+02 -0.13178417202E+02  0.19796181550E+03  0.12500223517E+03 0.  0.
          2    1    1    2  501    0  0.21798968305E+02  0.13420218503E+02 -0.31473311363E+03  0.31577243404E+03  0.00000000000E+00 0. -1.
          1    1    1    2  502    0  0.12292305471E+03 -0.62869050380E+02  0.27586910311E+03  0.30849044867E+03  0.00000000000E+00 0. -1.
         22    1    3    3    0    0  0.16802353924E+02  0.29400447066E+02  0.48261000196E+01  0.34205213440E+02  0.00000000000E+00 0. -1.
         22    1    3    3    0    0 -0.16152437693E+03  0.20048384811E+02 -0.18004517221E+02  0.16375660206E+03  0.00000000000E+00 0. -1.
</event>
<event>
 7    1  0.5889087E-006  0.2538592E+03  0.7818608E-02  0.1296710E+00
          2   -1    0    0  502    0  0.00000000000E+00  0.00000000000E+00  0.11739125749E+03  0.11739125749E+03  0.00000000000E+00 0. -1.
          1   -1    0    0  501    0 -0.00000000000E+00 -0.00000000000E+00 -0.16920199967E+04  0.16920199967E+04  0.00000000000E+00 0. -1.
         25    2    1    2    0    0  0.55160039317E+02 -0.23798520667E+03 -0.13383541245E+04  0.13661977218E+04  0.12499945589E+03 0.  0.
          2    1    1    2  501    0  0.33744102534E+02 -0.12305349546E+01 -0.17835252191E+03  0.18152079976E+03  0.00000000000E+00 0. -1.
          1    1    1    2  502    0 -0.88904141851E+02  0.23921574163E+03 -0.57922092800E+02  0.26169273264E+03  0.00000000000E+00 0. -1.
         22    1    3    3    0    0  0.84392148060E+02 -0.16511135444E+03 -0.10920561971E+04  0.11076870188E+04  0.00000000000E+00 0.  1.
         22    1    3    3    0    0 -0.29232108743E+02 -0.72873852233E+02 -0.24629792735E+03  0.25851070295E+03  0.00000000000E+00 0.  1.
</event>
<event>
 7    1  0.5889087E-006  0.6676394E+02  0.7818608E-02  0.1505977E+00
          2   -1    0    0  502    0  0.00000000000E+00  0.00000000000E+00  0.98514532324E+03  0.98514532324E+03  0.00000000000E+00 0. -1.
          1   -1    0    0  501    0 -0.00000000000E+00 -0.00000000000E+00 -0.83603327907E+02  0.83603327907E+02  0.00000000000E+00 0. -1.
         25    2    1    2    0    0 -0.53729355285E+02  0.66790592714E+02  0.31909448236E+03  0.35326165802E+03  0.12499873384E+03 0.  0.
          2    1    1    2  501    0  0.48657359409E+01 -0.23840715069E+02 -0.62602352101E+02  0.67164794125E+02  0.00000000000E+00 0. -1.
          1    1    1    2  502    0  0.48863619345E+02 -0.42949877645E+02  0.64504986507E+03  0.64832219900E+03  0.00000000000E+00 0. -1.
         22    1    3    3    0    0 -0.86140818859E+02  0.58264098325E+02  0.16108931669E+03  0.19174126781E+03  0.00000000000E+00 0. -1.
         22    1    3    3    0    0  0.32411463574E+02  0.85264943894E+01  0.15800516567E+03  0.16152039022E+03  0.00000000000E+00 0. -1.
</event>
<event>
 7    1  0.1123425E-005  0.1380596E+03  0.7818608E-02  0.1340700E+00
          2   -1    0    0  502    0  0.00000000000E+00  0.00000000000E+00  0.17017658492E+04  0.17017658492E+04  0.00000000000E+00 0. -1.
          1   -1    0    0  501    0 -0.00000000000E+00 -0.00000000000E+00 -0.16066142880E+04  0.16066142880E+04  0.00000000000E+00 0. -1.
         25    2    1    2    0    0 -0.15644464326E+03 -0.28896650330E+02 -0.59109534078E+03  0.62476300039E+03  0.12500064784E+03 0.  0.
          2    1    1    2  501    0  0.18726478452E+02  0.37453176047E+02 -0.99541923461E+03  0.99629959050E+03  0.00000000000E+00 0. -1.
          1    1    1    2  502    0  0.13771816481E+03 -0.85565257172E+01  0.16816661366E+04  0.16873175463E+04  0.00000000000E+00 0. -1.
         22    1    3    3    0    0 -0.28661631128E+02  0.27110143286E+02 -0.29287788302E+03  0.29552310118E+03  0.00000000000E+00 0. -1.
         22    1    3    3    0    0 -0.12778301214E+03 -0.56006793616E+02 -0.29821745776E+03  0.32923989921E+03  0.00000000000E+00 0. -1.
</event>
<event>
 7    1  0.5889087E-006  0.8733463E+02  0.7818608E-02  0.1322917E+00
          2   -1    0    0  502    0  0.00000000000E+00  0.00000000000E+00  0.10593681400E+04  0.10593681400E+04  0.00000000000E+00 0. -1.
          1   -1    0    0  501    0 -0.00000000000E+00 -0.00000000000E+00 -0.44065606791E+03  0.44065606791E+03  0.00000000000E+00 0. -1.
         25    2    1    2    0    0  0.10340462637E+03  0.12292316724E+03 -0.13782016454E+02  0.20400501334E+03  0.12500191876E+03 0.  0.
          2    1    1    2  501    0 -0.52481437729E+02 -0.64673459568E+02 -0.32494997316E+03  0.33545408440E+03  0.00000000000E+00 0. -1.
          1    1    1    2  502    0 -0.50923188646E+02 -0.58249707668E+02  0.95744406169E+03  0.96056511016E+03  0.00000000000E+00 0. -1.
         22    1    3    3    0    0  0.11594940603E+03  0.80610634652E+02 -0.46928513534E+02  0.14881070042E+03  0.00000000000E+00 0. -1.
         22    1    3    3    0    0 -0.12544779654E+02  0.42312532584E+02  0.33146497080E+02  0.55194312922E+02  0.00000000000E+00 0. -1.
</event>
<event>
 7    1  0.5889087E-006  0.1432287E+03  0.7818608E-02  0.1278829E+00
          2   -1    0    0  502    0  0.00000000000E+00  0.00000000000E+00  0.75788240614E+03  0.75788240614E+03  0.00000000000E+00 0. -1.
          1   -1    0    0  501    0 -0.00000000000E+00 -0.00000000000E+00 -0.28856149668E+03  0.28856149668E+03  0.00000000000E+00 0. -1.
         25    2    1    2    0    0 -0.49629928785E+02  0.73300360402E+02  0.95821701205E+02  0.18067291607E+03  0.12499932604E+03 0.  0.
          2    1    1    2  501    0  0.11443690688E+03 -0.10180981922E+03 -0.21999699999E+03  0.26806664274E+03  0.00000000000E+00 0. -1.
          1    1    1    2  502    0 -0.64806978095E+02  0.28509458819E+02  0.59349620825E+03  0.59770434402E+03  0.00000000000E+00 0. -1.
         22    1    3    3    0    0  0.91829558771E+01 -0.30723433809E+02  0.31556936669E+02  0.44989957942E+02  0.00000000000E+00 0. -1.
         22    1    3    3    0    0 -0.58812884662E+02  0.10402379421E+03  0.64264764536E+02  0.13568295812E+03  0.00000000000E+00 0. -1.
</event>
<event>
 7    1  0.5889087E-006  0.2779231E+02  0.7818608E-02  0.1644729E+00
          2   -1    0    0  502    0  0.00000000000E+00  0.00000000000E+00  0.89800525173E+02  0.89800525173E+02  0.00000000000E+00 0. -1.
          1   -1    0    0  501    0 -0.00000000000E+00 -0.00000000000E+00 -0.30044288435E+03  0.30044288435E+03  0.00000000000E+00 0. -1.
         25    2    1    2    0    0 -0.15119956744E+02  0.22377531478E+02  0.34364622545E+02  0.13242064488E+03  0.12499973160E+03 0.  0.
          2    1    1    2  501    0 -0.92017926812E+01 -0.26352535431E+02 -0.22312960724E+03  0.22486874113E+03  0.00000000000E+00 0. -1.
          1    1    1    2  502    0  0.24321749425E+02  0.39750039528E+01 -0.21877374484E+02  0.32954023515E+02  0.00000000000E+00 0. -1.
         22    1    3    3    0    0  0.17927603501E+02  0.42036117723E+02 -0.31952462138E+02  0.55761940400E+02  0.00000000000E+00 0. -1.
         22    1    3    3    0    0 -0.33047560244E+02 -0.19658586245E+02  0.66317084682E+02  0.76658704476E+02  0.00000000000E+00 0. -1.
</event>
<event>
 7    1  0.5889087E-006  0.1402042E+03  0.7818608E-02  0.1380100E+00
          2   -1    0    0  502    0  0.00000000000E+00  0.00000000000E+00  0.40095518368E+03  0.40095518368E+03  0.00000000000E+00 0. -1.
          1   -1    0    0  501    0 -0.00000000000E+00 -0.00000000000E+00 -0.56984559196E+03  0.56984559196E+03  0.00000000000E+00 0. -1.
         25    2    1    2    0    0  0.15578963025E+03  0.40503217240E+02 -0.21611096769E+03  0.29705239717E+03  0.12500102724E+03 0.  0.
          2    1    1    2  501    0 -0.13070884669E+03 -0.24754711154E+02 -0.29847864789E+03  0.32678295790E+03  0.00000000000E+00 0. -1.
          1    1    1    2  502    0 -0.25080783559E+02 -0.15748506085E+02  0.34569920729E+03  0.34696542057E+03  0.00000000000E+00 0. -1.
         22    1    3    3    0    0 -0.27685153929E+01  0.45092494270E+02 -0.47319905294E+02  0.65423017005E+02  0.00000000000E+00 0. -1.
         22    1    3    3    0    0  0.15855814564E+03 -0.45892770304E+01 -0.16879106239E+03  0.23162938017E+03  0.00000000000E+00 0. -1.
</event>
<event>
 7    1  0.5889087E-006  0.2513144E+03  0.7818608E-02  0.1165539E+00
          2   -1    0    0  502    0  0.00000000000E+00  0.00000000000E+00  0.26828760677E+04  0.26828760677E+04  0.00000000000E+00 0. -1.
          1   -1    0    0  501    0 -0.00000000000E+00 -0.00000000000E+00 -0.13776829147E+04  0.13776829147E+04  0.00000000000E+00 0. -1.
         25    2    1    2    0    0  0.22673445640E+03 -0.20553000715E+03  0.23885736663E+03  0.40783475531E+03  0.12500099394E+03 0.  0.
          2    1    1    2  501    0 -0.13011701065E+03 -0.24064650201E+02 -0.12832082069E+04  0.12900127310E+04  0.00000000000E+00 0. -1.
          1    1    1    2  502    0 -0.96617445743E+02  0.22959465735E+03  0.23495439932E+04  0.23627114961E+04  0.00000000000E+00 0. -1.
         22    1    3    3    0    0  0.13199353129E+03 -0.54261077810E+02  0.58946340184E+02  0.15440604874E+03  0.00000000000E+00 0.  1.
         22    1    3    3    0    0  0.94740925106E+02 -0.15126892934E+03  0.17991102645E+03  0.25342870657E+03  0.00000000000E+00 0.  1.
</event>
<event>
 7    1  0.5889087E-006  0.1202499E+03  0.7818608E-02  0.1275110E+00
          2   -1    0    0  502    0  0.00000000000E+00  0.00000000000E+00  0.73497064907E+03  0.73497064907E+03  0.00000000000E+00 0. -1.
          1   -1    0    0  501    0 -0.00000000000E+00 -0.00000000000E+00 -0.43426453772E+03  0.43426453772E+03  0.00000000000E+00 0. -1.
         25    2    1    2    0    0 -0.98891877647E+01  0.36552075476E+02  0.13844444453E+03  0.19032938801E+03  0.12499824583E+03 0.  0.
          2    1    1    2  501    0  0.23575984394E+02 -0.12285657789E+03 -0.39525666698E+03  0.41458099156E+03  0.00000000000E+00 0. -1.
          1    1    1    2  502    0 -0.13686796629E+02  0.86304502417E+02  0.55751833378E+03  0.56432480722E+03  0.00000000000E+00 0. -1.
         22    1    3    3    0    0  0.24955025251E+02 -0.39568729442E+02  0.53414171075E+02  0.71003600659E+02  0.00000000000E+00 0.  1.
         22    1    3    3    0    0 -0.34844213016E+02  0.76120804918E+02  0.85030273460E+02  0.11932578735E+03  0.00000000000E+00 0.  1.
</event>
<event>
 7    1  0.1228986E-005  0.6411448E+02  0.7818608E-02  0.1399749E+00
          2   -1    0    0  502    0  0.00000000000E+00  0.00000000000E+00  0.23971209552E+04  0.23971209552E+04  0.00000000000E+00 0. -1.
          1   -1    0    0  501    0 -0.00000000000E+00 -0.00000000000E+00 -0.18883502855E+04  0.18883502855E+04  0.00000000000E+00 0. -1.
         25    2    1    2    0    0  0.65010958116E+02 -0.97483569079E+02 -0.44145994867E+03  0.47353972804E+03  0.12499406722E+03 0.  0.
          2    1    1    2  501    0 -0.39481722741E+02  0.38723544652E+02 -0.14298848885E+04  0.14309539174E+04  0.00000000000E+00 0. -1.
          1    1    1    2  502    0 -0.25529235375E+02  0.58760024427E+02  0.23801155069E+04  0.23809775952E+04  0.00000000000E+00 0. -1.
         22    1    3    3    0    0  0.59591338039E+00 -0.42331554175E+02 -0.33389367573E+03  0.33656693582E+03  0.00000000000E+00 0. -1.
         22    1    3    3    0    0  0.64415044736E+02 -0.55152014904E+02 -0.10756627294E+03  0.13697279223E+03  0.00000000000E+00 0. -1.
</event>
<event>
 7    1  0.5889087E-006  0.1380457E+03  0.7818608E-02  0.1246623E+00
          2   -1    0    0  502    0  0.00000000000E+00  0.00000000000E+00  0.11255478740E+04  0.11255478740E+04  0.00000000000E+00 0. -1.
          1   -1    0    0  501    0 -0.00000000000E+00 -0.00000000000E+00 -0.27342886229E+03  0.27342886229E+03  0.00000000000E+00 0. -1.
         25    2    1    2    0    0 -0.51741519891E+02 -0.66020330662E+02 -0.38759981436E+02  0.15546163930E+03  0.12502046310E+03 0.  0.
          2    1    1    2  501    0  0.13044829841E+03  0.12879206843E+03 -0.12550249892E+03  0.22215992592E+03  0.00000000000E+00 0. -1.
          1    1    1    2  502    0 -0.78706778517E+02 -0.62771737772E+02  0.10163814921E+04  0.10213551711E+04  0.00000000000E+00 0. -1.
         22    1    3    3    0    0  0.41176938035E+02 -0.11270394040E+02 -0.11872200828E+02  0.44311524012E+02  0.00000000000E+00 0. -1.
         22    1    3    3    0    0 -0.92918457926E+02 -0.54749936622E+02 -0.26887780608E+02  0.11115011529E+03  0.00000000000E+00 0. -1.
</event>
<event>
 7    1  0.5889087E-006  0.1934449E+03  0.7818608E-02  0.1216767E+00
          2   -1    0    0  502    0  0.00000000000E+00  0.00000000000E+00  0.86850337249E+03  0.86850337249E+03  0.00000000000E+00 0. -1.
          1   -1    0    0  501    0 -0.00000000000E+00 -0.00000000000E+00 -0.62829423845E+03  0.62829423845E+03  0.00000000000E+00 0. -1.
         25    2    1    2    0    0  0.93340263065E+02  0.73749235090E+02  0.33407490062E+03  0.37600836882E+03  0.12499959926E+03 0.  0.
          2    1    1    2  501    0 -0.18929011696E+03 -0.55342815353E+02 -0.58639160976E+03  0.61866686963E+03  0.00000000000E+00 0. -1.
          1    1    1    2  502    0  0.95949853891E+02 -0.18406419737E+02  0.49252584318E+03  0.50212237248E+03  0.00000000000E+00 0. -1.
         22    1    3    3    0    0 -0.31228720291E+02  0.13971852834E+02  0.73300908752E+02  0.80891710741E+02  0.00000000000E+00 0.  1.
         22    1    3    3    0    0  0.12456898336E+03  0.59777382256E+02  0.26077399186E+03  0.29511665808E+03  0.00000000000E+00 0.  1.
</event>
<event>
 7    1  0.5889087E-006  0.8664534E+02  0.7818608E-02  0.1389874E+00
          2   -1    0    0  502    0  0.00000000000E+00  0.00000000000E+00  0.17191625601E+04  0.17191625601E+04  0.00000000000E+00 0. -1.
          1   -1    0    0  501    0 -0.00000000000E+00 -0.00000000000E+00 -0.31417070187E+03  0.31417070187E+03  0.00000000000E+00 0. -1.
         25    2    1    2    0    0 -0.11172726348E+03  0.11115126466E+02  0.10832770721E+03  0.19991782757E+03  0.12500287272E+03 0.  0.
          2    1    1    2  501    0  0.76786791387E+02 -0.38309459244E+02 -0.26119343691E+03  0.27492878621E+03  0.00000000000E+00 0. -1.
          1    1    1    2  502    0  0.34940472096E+02  0.27194332778E+02  0.15578575880E+04  0.15584866482E+04  0.00000000000E+00 0. -1.
         22    1    3    3    0    0 -0.12323585449E+03  0.20936047307E+02  0.12543124354E+03  0.17708300529E+03  0.00000000000E+00 0.  1.
         22    1    3    3    0    0  0.11508591009E+02 -0.98209208411E+01 -0.17103536329E+02  0.22834822271E+02  0.00000000000E+00 0.  1.
</event>
<event>
 7    1  0.5889087E-006  0.8270068E+02  0.7818608E-02  0.1338346E+00
          2   -1    0    0  502    0  0.00000000000E+00  0.00000000000E+00  0.19766017457E+04  0.19766017457E+04  0.00000000000E+00 0. -1.
          1   -1    0    0  501    0 -0.00000000000E+00 -0.00000000000E+00 -0.29242517454E+03  0.29242517454E+03  0.00000000000E+00 0. -1.
         25    2    1    2    0    0  0.54490239877E+01 -0.10373863866E+03  0.26172585571E+03  0.30808537057E+03  0.12499910000E+03 0.  0.
          2    1    1    2  501    0 -0.59712333282E+02  0.57418296447E+02 -0.26210052624E+03  0.27488017275E+03  0.00000000000E+00 0. -1.
          1    1    1    2  502    0  0.54263309295E+02  0.46320342210E+02  0.16845512417E+04  0.16860613769E+04  0.00000000000E+00 0. -1.
         22    1    3    3    0    0  0.59331191920E+02 -0.58130426755E+02  0.19041329630E+03  0.20774157084E+03  0.00000000000E+00 0. -1.
         22    1    3    3    0    0 -0.53882167932E+02 -0.45608211903E+02  0.71312559407E+02  0.10034379972E+03  0.00000000000E+00 0. -1.
</event>
<event>
 7    1  0.5889087E-006  0.3605935E+02  0.7818608E-02  0.1603661E+00
          2   -1    0    0  502    0  0.00000000000E+00  0.00000000000E+00  0.79074573975E+03  0.79074573975E+03  0.00000000000E+00 0. -1.
          1   -1    0    0  501    0 -0.00000000000E+00 -0.00000000000E+00 -0.94195464798E+02  0.94195464798E+02  0.00000000000E+00 0. -1.
         25    2    1    2    0    0 -0.60694779722E+01 -0.21614148338E+02  0.58789495481E+03  0.60146362871E+03  0.12503602998E+03 0.  0.
          2    1    1    2  501    0 -0.15334856742E+02  0.32769679383E+02 -0.82877133815E+02  0.90430243987E+02  0.00000000000E+00 0. -1.
          1    1    1    2  502    0  0.21404334714E+02 -0.11155531045E+02  0.19153245395E+03  0.19304733185E+03  0.00000000000E+00 0. -1.
         22    1    3    3    0    0 -0.64851240972E+02 -0.18335622920E+02  0.34650700996E+03  0.35299998084E+03  0.00000000000E+00 0. -1.
         22    1    3    3    0    0  0.58781763000E+02 -0.32785254182E+01  0.24138794486E+03  0.24846364787E+03  0.00000000000E+00 0. -1.
</event>
<event>
 7    1  0.5889087E-006  0.1027690E+03  0.7818608E-02  0.1312630E+00
          2   -1    0    0  502    0  0.00000000000E+00  0.00000000000E+00  0.20433029844E+03  0.20433029844E+03  0.00000000000E+00 0. -1.
          1   -1    0    0  501    0 -0.00000000000E+00 -0.00000000000E+00 -0.85589634521E+03  0.85589634521E+03  0.00000000000E+00 0. -1.
         25    2    1    2    0    0 -0.47037604796E+02 -0.31791802311E+02 -0.24600361134E+03  0.28171983740E+03  0.12500014014E+03 0.  0.
          2    1    1    2  501    0  0.63463431777E+02  0.10199814017E+03 -0.57865726921E+03  0.59099531554E+03  0.00000000000E+00 0. -1.
          1    1    1    2  502    0 -0.16425826981E+02 -0.70206337863E+02  0.17309483378E+03  0.18751149071E+03  0.00000000000E+00 0. -1.
         22    1    3    3    0    0  0.32818188596E+02 -0.45653246174E+02 -0.10275180965E+03  0.11712893227E+03  0.00000000000E+00 0. -1.
         22    1    3    3    0    0 -0.79855793392E+02  0.13861443862E+02 -0.14325180169E+03  0.16459090513E+03  0.00000000000E+00 0. -1.
</event>
<event>
 7    1  0.5889087E-006  0.4768592E+02  0.7818608E-02  0.1486526E+00
          2   -1    0    0  502    0  0.00000000000E+00  0.00000000000E+00  0.20610574499E+04  0.20610574499E+04  0.00000000000E+00 0. -1.
          1   -1    0    0  501    0 -0.00000000000E+00 -0.00000000000E+00 -0.40337906876E+03  0.40337906876E+03  0.00000000000E+00 0. -1.
         25    2    1    2    0    0 -0.53662726693E+02  0.72370554960E+01 -0.20214451223E+02  0.13771832426E+03  0.12500259833E+03 0.  0.
          2    1    1    2  501    0  0.24352247739E+02  0.30418247101E+02 -0.32295714844E+03  0.32529927982E+03  0.00000000000E+00 0. -1.
          1    1    1    2  502    0  0.29310478954E+02 -0.37655302597E+02  0.20008499808E+04  0.20014189146E+04  0.00000000000E+00 0. -1.
         22    1    3    3    0    0 -0.45562233043E+02 -0.10178488391E+02  0.47935831090E+02  0.66913097433E+02  0.00000000000E+00 0.  1.
         22    1    3    3    0    0 -0.81004936501E+01  0.17415543887E+02 -0.68150282312E+02  0.70805226823E+02  0.00000000000E+00 0.  1.
</event>
<event>
 7    1  0.5889087E-006  0.5534192E+02  0.7818608E-02  0.1466708E+00
          2   -1    0    0  502    0  0.00000000000E+00  0.00000000000E+00  0.12629329301E+03  0.12629329301E+03  0.00000000000E+00 0. -1.
          1   -1    0    0  501    0 -0.00000000000E+00 -0.00000000000E+00 -0.39025179862E+03  0.39025179862E+03  0.00000000000E+00 0. -1.
         25    2    1    2    0    0  0.71199066114E+01  0.17981652006E+02 -0.14074763289E+03  0.18923538044E+03  0.12500440059E+03 0.  0.
          2    1    1    2  501    0  0.58541208888E+00  0.38641214906E+02 -0.21540369547E+03  0.21884295333E+03  0.00000000000E+00 0. -1.
          1    1    1    2  502    0 -0.77053187003E+01 -0.56622866912E+02  0.92192822753E+02  0.10846675786E+03  0.00000000000E+00 0. -1.
         22    1    3    3    0    0 -0.46278861409E+02  0.31798507301E+01 -0.12235022998E+03  0.13084885648E+03  0.00000000000E+00 0. -1.
         22    1    3    3    0    0  0.53398768020E+02  0.14801801276E+02 -0.18397402909E+02  0.58386523966E+02  0.00000000000E+00 0. -1.
</event>
<event>
 7    1  0.5889087E-006  0.1282294E+03  0.7818608E-02  0.1372037E+00
          2   -1    0    0  502    0  0.00000000000E+00  0.00000000000E+00  0.41316491045E+03  0.41316491045E+03  0.00000000000E+00 0. -1.
          1   -1    0    0  501    0 -0.00000000000E+00 -0.00000000000E+00 -0.84130964873E+02  0.84130964873E+02  0.00000000000E+00 0. -1.
         25    2    1    2    0    0  0.69329564091E+01 -0.10696020806E+03  0.24870682753E+03  0.29828920320E+03  0.12503123887E+03 0.  0.
          2    1    1    2  501    0 -0.31383110780E+02  0.13143505260E+03  0.30803515297E+02  0.13859628151E+03  0.00000000000E+00 0. -1.
          1    1    1    2  502    0  0.24450154371E+02 -0.24474844543E+02  0.49523602757E+02  0.60410390614E+02  0.00000000000E+00 0. -1.
         22    1    3    3    0    0  0.36068378299E+02 -0.11723017427E+03  0.14417902247E+03  0.18929192321E+03  0.00000000000E+00 0. -1.
         22    1    3    3    0    0 -0.29135421890E+02  0.10269966211E+02  0.10452780506E+03  0.10899727999E+03  0.00000000000E+00 0. -1.
</event>
<event>
 7    1  0.5889087E-006  0.7646944E+02  0.7818608E-02  0.1354817E+00
          2   -1    0    0  502    0  0.00000000000E+00  0.00000000000E+00  0.22506637468E+03  0.22506637468E+03  0.00000000000E+00 0. -1.
          1   -1    0    0  501    0 -0.00000000000E+00 -0.00000000000E+00 -0.17024433739E+04  0.17024433739E+04  0.00000000000E+00 0. -1.
         25    2    1    2    0    0  0.40480351379E+01  0.27593856455E+01 -0.49071478082E+03  0.50640991057E+03  0.12500400236E+03 0.  0.
          2    1    1    2  501    0  0.26790713295E+02 -0.72734721270E+02 -0.11958571721E+04  0.11983665791E+04  0.00000000000E+00 0. -1.
          1    1    1    2  502    0 -0.30838748433E+02  0.69975335625E+02  0.20919495363E+03  0.22273325891E+03  0.00000000000E+00 0. -1.
         22    1    3    3    0    0  0.59045234628E+02 -0.11067277219E+02 -0.34227193432E+03  0.34750381492E+03  0.00000000000E+00 0.  1.
         22    1    3    3    0    0 -0.54997199491E+02  0.13826662865E+02 -0.14844284650E+03  0.15890609565E+03  0.00000000000E+00 0.  1.
</event>
<event>
 7    1  0.7997808E-006  0.1084814E+03  0.7818608E-02  0.1269791E+00
          2   -1    0    0  502    0  0.00000000000E+00  0.00000000000E+00  0.11980514878E+04  0.11980514878E+04  0.00000000000E+00 0. -1.
          1   -1    0    0  501    0 -0.00000000000E+00 -0.00000000000E+00 -0.18756463913E+04  0.18756463913E+04  0.00000000000E+00 0. -1.
         25    2    1    2    0    0  0.39637317882E+01 -0.55348659424E+01 -0.18269526896E+03  0.22147035941E+03  0.12500085153E+03 0.  0.
          2    1    1    2  501    0 -0.11021890700E+03 -0.16329734357E+02 -0.16692062135E+04  0.16729208741E+04  0.00000000000E+00 0. -1.
          1    1    1    2  502    0  0.10625517522E+03  0.21864600300E+02  0.11743065790E+04  0.11793066456E+04  0.00000000000E+00 0. -1.
         22    1    3    3    0    0 -0.32839405888E+02 -0.22775975095E+02 -0.63053864725E+01  0.40458985642E+02  0.00000000000E+00 0.  1.
         22    1    3    3    0    0  0.36803137676E+02  0.17241109152E+02 -0.17638988249E+03  0.18101137376E+03  0.00000000000E+00 0.  1.
</event>
<event>
 7    1  0.5889087E-006  0.2100502E+03  0.7818608E-02  0.1189705E+00
          2   -1    0    0  502    0  0.00000000000E+00  0.00000000000E+00  0.16617013515E+04  0.16617013515E+04  0.00000000000E+00 0. -1.
          1   -1    0    0  501    0 -0.00000000000E+00 -0.00000000000E+00 -0.10162874692E+04  0.10162874692E+04  0.00000000000E+00 0. -1.
         25    2    1    2    0    0  0.31857461571E+03 -0.45133363045E+02 -0.12299886633E+02  0.34540241177E+03  0.12499893043E+03 0.  0.
          2    1    1    2  501    0 -0.20104959132E+03  0.18412511943E+02 -0.82278369223E+03  0.84719121984E+03  0.00000000000E+00 0. -1.
          1    1    1    2  502    0 -0.11752502439E+03  0.26720851102E+02  0.14804974612E+04  0.14853951891E+04  0.00000000000E+00 0. -1.
         22    1    3    3    0    0  0.74311550508E+02 -0.66766557245E+02 -0.53726996250E+00  0.99901293107E+02  0.00000000000E+00 0. -1.
         22    1    3    3    0    0  0.24426306520E+03  0.21633194200E+02 -0.11762616670E+02  0.24550111866E+03  0.00000000000E+00 0. -1.
</event>
<event>
 7    1  0.5889087E-006  0.7587772E+02  0.7818608E-02  0.1428565E+00
          2   -1    0    0  502    0  0.00000000000E+00  0.00000000000E+00  0.19770988040E+04  0.19770988040E+04  0.00000000000E+00 0. -1.
          1   -1    0    0  501    0 -0.00000000000E+00 -0.00000000000E+00 -0.24737355634E+03  0.24737355634E+03  0.00000000000E+00 0. -1.
         25    2    1    2    0    0  0.71030268229E+02  0.42975785787E+02  0.68287860251E+03  0.69917090769E+03  0.12499822092E+03 0.  0.
          2    1    1    2  501    0 -0.30656686827E+02  0.21368204180E+02 -0.23663826145E+03  0.23957065634E+03  0.00000000000E+00 0. -1.
          1    1    1    2  502    0 -0.40373581401E+02 -0.64343989967E+02  0.12834849066E+04  0.12857307963E+04  0.00000000000E+00 0. -1.
         22    1    3    3    0    0  0.93866753325E+02  0.68202069588E+02  0.52732063827E+03  0.53993476015E+03  0.00000000000E+00 0. -1.
         22    1    3    3    0    0 -0.22836485097E+02 -0.25226283801E+02  0.15555796424E+03  0.15923614755E+03  0.00000000000E+00 0. -1.
</event>
<event>
 7    1  0.5889087E-006  0.5925162E+02  0.7818608E-02  0.1446631E+00
          2   -1    0    0  502    0  0.00000000000E+00  0.00000000000E+00  0.28583276450E+03  0.28583276450E+03  0.00000000000E+00 0. -1.
          1   -1    0    0  501    0 -0.00000000000E+00 -0.00000000000E+00 -0.26404398350E+04  0.26404398350E+04  0.00000000000E+00 0. -1.
         25    2    1    2    0    0 -0.31035216025E+02 -0.40716185818E+01 -0.48476383709E+03  0.50159953797E+03  0.12500542399E+03 0.  0.
          2    1    1    2  501    0  0.41861142078E+02  0.44436946095E+02 -0.21452474755E+04  0.21461159634E+04  0.00000000000E+00 0. -1.
          1    1    1    2  502    0 -0.10825926053E+02 -0.40365327513E+02  0.27540424209E+03  0.27855709810E+03  0.00000000000E+00 0. -1.
         22    1    3    3    0    0 -0.39229503250E+02 -0.33794282321E+02 -0.77712501286E+02  0.93382226890E+02  0.00000000000E+00 0. -1.
         22    1    3    3    0    0  0.81942872251E+01  0.29722663739E+02 -0.40705133580E+03  0.40821731108E+03  0.00000000000E+00 0. -1.
</event>
<event>
 7    1  0.5889087E-006  0.1020160E+03  0.7818608E-02  0.1294802E+00
          2   -1    0    0  502    0  0.00000000000E+00  0.00000000000E+00  0.75229823354E+03  0.75229823354E+03  0.00000000000E+00 0. -1.
          1   -1    0    0  501    0 -0.00000000000E+00 -0.00000000000E+00 -0.56410509774E+03  0.56410509774E+03  0.00000000000E+00 0. -1.
         25    2    1    2    0    0  0.48374825721E+02  0.99790000434E+02 -0.14206562487E+03  0.21934351438E+03  0.12502306819E+03 0.  0.
          2    1    1    2  501    0 -0.85425226326E+02 -0.41718381967E+01 -0.37487549771E+03  0.38450814336E+03  0.00000000000E+00 0. -1.
          1    1    1    2  502    0  0.37050400605E+02 -0.95618162237E+02  0.70513425838E+03  0.71255167355E+03  0.00000000000E+00 0. -1.
         22    1    3    3    0    0 -0.30878473382E+02 -0.84154126792E+01 -0.37319670596E+02  0.49163574955E+02  0.00000000000E+00 0. -1.
         22    1    3    3    0    0  0.79253299103E+02  0.10820541311E+03 -0.10474595428E+03  0.17017993943E+03  0.00000000000E+00 0. -1.
</event>
<event>
 7    1  0.5889087E-006  0.3636188E+02  0.7818608E-02  0.1560327E+00
          2   -1    0    0  502    0  0.00000000000E+00  0.00000000000E+00  0.10207037631E+04  0.10207037631E+04  0.00000000000E+00 0. -1.
          1   -1    0    0  501    0 -0.00000000000E+00 -0.00000000000E+00 -0.67821445741E+03  0.67821445741E+03  0.00000000000E+00 0. -1.
         25    2    1    2    0    0  0.28256175316E+02  0.15093331972E+02  0.17601604355E+03  0.21825027505E+03  0.12500125944E+03 0.  0.
          2    1    1    2  501    0  0.48701044045E+01 -0.30877155898E+02 -0.65631643829E+03  0.65706041110E+03  0.00000000000E+00 0. -1.
          1    1    1    2  502    0 -0.33126279720E+02  0.15783823926E+02  0.82278970040E+03  0.82360753432E+03  0.00000000000E+00 0. -1.
         22    1    3    3    0    0  0.13145971696E+02 -0.43661820843E+02  0.18059510161E+02  0.49044032036E+02  0.00000000000E+00 0. -1.
         22    1    3    3    0    0  0.15110203620E+02  0.58755152814E+02  0.15795653339E+03  0.16920624302E+03  0.00000000000E+00 0. -1.
</event>
<event>
 7    1  0.5889087E-006  0.5744047E+02  0.7818608E-02  0.1435626E+00
          2   -1    0    0  502    0  0.00000000000E+00  0.00000000000E+00  0.15374138012E+03  0.15374138012E+03  0.00000000000E+00 0. -1.
          1   -1    0    0  501    0 -0.00000000000E+00 -0.00000000000E+00 -0.29777518737E+03  0.29777518737E+03  0.00000000000E+00 0. -1.
         25    2    1    2    0    0 -0.43138511337E+02 -0.55258896817E+02 -0.78658167802E+02  0.16348262793E+03  0.12499994174E+03 0.  0.
          2    1    1    2  501    0  0.56825459824E+02  0.10506572312E+02 -0.16669555629E+03  0.17642825577E+03  0.00000000000E+00 0. -1.
          1    1    1    2  502    0 -0.13686948487E+02  0.44752324505E+02  0.10131991685E+03  0.11160568380E+03  0.00000000000E+00 0. -1.
         22    1    3    3    0    0  0.65010591775E+01 -0.54142492798E+02  0.15795985510E+02  0.56773113840E+02  0.00000000000E+00 0.  1.
         22    1    3    3    0    0 -0.49639570514E+02 -0.11164040191E+01 -0.94454153311E+02  0.10670951409E+03  0.00000000000E+00 0.  1.
</event>
<event>
 7    1  0.5889087E-006  0.8463436E+02  0.7818608E-02  0.1327881E+00
          2   -1    0    0  502    0  0.00000000000E+00  0.00000000000E+00  0.30349688027E+03  0.30349688027E+03  0.00000000000E+00 0. -1.
          1   -1    0    0  501    0 -0.00000000000E+00 -0.00000000000E+00 -0.61371811547E+03  0.61371811547E+03  0.00000000000E+00 0. -1.
         25    2    1    2    0    0  0.41493532077E+02  0.97326610036E+02 -0.12876111456E+02  0.16426985526E+03  0.12499843549E+03 0.  0.
          2    1    1    2  501    0 -0.79243574962E+02 -0.30899871512E+02 -0.51515188734E+03  0.52212624265E+03  0.00000000000E+00 0. -1.
          1    1    1    2  502    0  0.37750042884E+02 -0.66426738523E+02  0.21780676359E+03  0.23081889783E+03  0.00000000000E+00 0. -1.
         22    1    3    3    0    0  0.17430666118E+01  0.60417964032E+02 -0.65197499640E+02  0.88904907728E+02  0.00000000000E+00 0. -1.
         22    1    3    3    0    0  0.39750465465E+02  0.36908646004E+02  0.52321388184E+02  0.75364947529E+02  0.00000000000E+00 0. -1.
</event>
<event>
 7    1  0.5889087E-006  0.6573891E+02  0.7818608E-02  0.1391273E+00
          2   -1    0    0  502    0  0.00000000000E+00  0.00000000000E+00  0.26255068010E+04  0.26255068010E+04  0.00000000000E+00 0. -1.
          1   -1    0    0  501    0 -0.00000000000E+00 -0.00000000000E+00 -0.12682689012E+04  0.12682689012E+04  0.00000000000E+00 0. -1.
         25    2    1    2    0    0  0.17658027306E+02  0.69490760757E+02  0.14132102022E+03  0.20183604738E+03  0.12500155002E+03 0.  0.
          2    1    1    2  501    0  0.41466427949E+02 -0.40130151283E+02 -0.12368946405E+04  0.12382399789E+04  0.00000000000E+00 0. -1.
          1    1    1    2  502    0 -0.59124455255E+02 -0.29360609474E+02  0.24528115201E+04  0.24536996759E+04  0.00000000000E+00 0. -1.
         22    1    3    3    0    0  0.38069563286E+01  0.20050663821E+02 -0.22370359762E+02  0.30281265364E+02  0.00000000000E+00 0.  1.
         22    1    3    3    0    0  0.13851070977E+02  0.49440096937E+02  0.16369137998E+03  0.17155478202E+03  0.00000000000E+00 0.  1.
</event>
<event>
 7    1  0.5889087E-006  0.1927321E+03  0.7818608E-02  0.1275390E+00
          2   -1    0    0  502    0  0.00000000000E+00  0.00000000000E+00  0.21127961922E+04  0.21127961922E+04  0.00000000000E+00 0. -1.
          1   -1    0    0  501    0 -0.00000000000E+00 -0.00000000000E+00 -0.18790073622E+04  0.18790073622E+04  0.00000000000E+00 0. -1.
         25    2    1    2    0    0 -0.10842212251E+03  0.11724543885E+03 -0.18131878032E+03  0.27203535893E+03  0.12499954732E+03 0.  0.
          2    1    1    2  501    0 -0.53257187634E+02 -0.10963074101E+02 -0.16473538796E+04  0.16482509887E+04  0.00000000000E+00 0. -1.
          1    1    1    2  502    0  0.16167931015E+03 -0.10628236475E+03  0.20624614899E+04  0.20715172067E+04  0.00000000000E+00 0. -1.
         22    1    3    3    0    0 -0.11316949108E+02  0.26172722546E+02 -0.12374732899E+03  0.12699010266E+03  0.00000000000E+00 0.  1.
         22    1    3    3    0    0 -0.97105173405E+02  0.91072716304E+02 -0.57571451334E+02  0.14504525627E+03  0.00000000000E+00 0.  1.
</event>
<event>
 7    1  0.5889087E-006  0.1824382E+03  0.7818608E-02  0.1291817E+00
          2   -1    0    0  502    0  0.00000000000E+00  0.00000000000E+00  0.76175049712E+03  0.76175049712E+03  0.00000000000E+00 0. -1.
          1   -1    0    0  501    0 -0.00000000000E+00 -0.00000000000E+00 -0.24747593906E+04  0.24747593906E+04  0.00000000000E+00 0. -1.
         25    2    1    2    0    0  0.10355770212E+02 -0.14778864856E+03  0.18297967229E+03  0.26656438698E+03  0.12500514115E+03 0.  0.
          2    1    1    2  501    0  0.44396182570E+01 -0.48972805368E+02 -0.24145818336E+04  0.24150824990E+04  0.00000000000E+00 0. -1.
          1    1    1    2  502    0 -0.14795388469E+02  0.19676145393E+03  0.51859326782E+03  0.55486300174E+03  0.00000000000E+00 0. -1.
         22    1    3    3    0    0 -0.51708945862E+02 -0.70820135186E+02  0.12253063761E+03  0.15067535891E+03  0.00000000000E+00 0.  1.
         22    1    3    3    0    0  0.62064716074E+02 -0.76968513376E+02  0.60449034685E+02  0.11588902807E+03  0.00000000000E+00 0.  1.
</event>
<event>
 7    1  0.5889087E-006  0.1357577E+03  0.7818608E-02  0.1275508E+00
          2   -1    0    0  502    0  0.00000000000E+00  0.00000000000E+00  0.12661876725E+03  0.12661876725E+03  0.00000000000E+00 0. -1.
          1   -1    0    0  501    0 -0.00000000000E+00 -0.00000000000E+00 -0.16208823355E+04  0.16208823355E+04  0.00000000000E+00 0. -1.
         25    2    1    2    0    0 -0.17567476578E+02  0.19185962693E+03 -0.12398573387E+03  0.26099124940E+03  0.12500094953E+03 0.  0.
          2    1    1    2  501    0  0.52112704727E+02 -0.12292505462E+03 -0.13981577141E+04  0.14045181724E+04  0.00000000000E+00 0. -1.
          1    1    1    2  502    0 -0.34545228148E+02 -0.68934572311E+02  0.27879879756E+02  0.81991680936E+02  0.00000000000E+00 0. -1.
         22    1    3    3    0    0 -0.82149144038E+01  0.11127814149E+02  0.23676000274E+02  0.27420176064E+02  0.00000000000E+00 0.  1.
         22    1    3    3    0    0 -0.93525621745E+01  0.18073181278E+03 -0.14766173414E+03  0.23357107334E+03  0.00000000000E+00 0.  1.
</event>
<event>
 7    1  0.5889087E-006  0.1048438E+03  0.7818608E-02  0.1452226E+00
          2   -1    0    0  502    0  0.00000000000E+00  0.00000000000E+00  0.16813311681E+04  0.16813311681E+04  0.00000000000E+00 0. -1.
          1   -1    0    0  501    0 -0.00000000000E+00 -0.00000000000E+00 -0.24949674042E+03  0.24949674042E+03  0.00000000000E+00 0. -1.
         25    2    1    2    0    0  0.10696297974E+03  0.34468243450E+02  0.50692479173E+03  0.53406588885E+03  0.12499796126E+03 0.  0.
          2    1    1    2  501    0 -0.10403371657E+03 -0.11994531895E+02 -0.22418785052E+03  0.24744105419E+03  0.00000000000E+00 0. -1.
          1    1    1    2  502    0 -0.29292631661E+01 -0.22473711555E+02  0.11490974864E+04  0.11493209654E+04  0.00000000000E+00 0. -1.
         22    1    3    3    0    0  0.12687568982E+03  0.44926832501E+02  0.48223953231E+03  0.50067037806E+03  0.00000000000E+00 0. -1.
         22    1    3    3    0    0 -0.19912710087E+02 -0.10458589051E+02  0.24685259421E+02  0.33395510786E+02  0.00000000000E+00 0. -1.
</event>
<event>
 7    1  0.5889087E-006  0.5543400E+02  0.7818608E-02  0.1421449E+00
          2   -1    0    0  502    0  0.00000000000E+00  0.00000000000E+00  0.64706984785E+03  0.64706984785E+03  0.00000000000E+00 0. -1.
          1   -1    0    0  501    0 -0.00000000000E+00 -0.00000000000E+00 -0.12646166845E+04  0.12646166845E+04  0.00000000000E+00 0. -1.
         25    2    1    2    0    0 -0.26660083467E+01 -0.51141001507E+02  0.57925296612E+02  0.14697823150E+03  0.12499900364E+03 0.  0.
          2    1    1    2  501    0 -0.46952731114E+02  0.29818029334E+02 -0.12181151865E+04  0.12193843863E+04  0.00000000000E+00 0. -1.
          1    1    1    2  502    0  0.49618739461E+02  0.21322972173E+02  0.54264305332E+03  0.54532391454E+03  0.00000000000E+00 0. -1.
         22    1    3    3    0    0  0.57643122386E+02 -0.26653814080E+01  0.25088158482E+02  0.62922567593E+02  0.00000000000E+00 0. -1.
         22    1    3    3    0    0 -0.60309130732E+02 -0.48475620099E+02  0.32837138130E+02  0.84055663903E+02  0.00000000000E+00 0. -1.
</event>
<event>
 7    1  0.5889087E-006  0.1267386E+03  0.7818608E-02  0.1397633E+00
          2   -1    0    0  502    0  0.00000000000E+00  0.00000000000E+00  0.26098839625E+04  0.26098839625E+04  0.00000000000E+00 0. -1.
          1   -1    0    0  501    0 -0.00000000000E+00 -0.00000000000E+00 -0.22821619348E+03  0.22821619348E+03  0.00000000000E+00 0. -1.
         25    2    1    2    0    0 -0.15131594922E+03 -0.47235320763E+01  0.61517130693E+03  0.64574052915E+03  0.12500506339E+03 0.  0.
          2    1    1    2  501    0  0.27688592569E+02  0.65372441815E+01 -0.21004091268E+03  0.21195890810E+03  0.00000000000E+00 0. -1.
          1    1    1    2  502    0  0.12362735665E+03 -0.18137121052E+01  0.19765373747E+04  0.19804007187E+04  0.00000000000E+00 0. -1.
         22    1    3    3    0    0  0.10483208396E+02  0.11545751901E+02  0.87234237186E+01  0.17868972176E+02  0.00000000000E+00 0. -1.
         22    1    3    3    0    0 -0.16179915761E+03 -0.16269283978E+02  0.60644788322E+03  0.62787155698E+03  0.00000000000E+00 0. -1.
</event>
<event>
 7    1  0.5889087E-006  0.1053201E+03  0.7818608E-02  0.1328747E+00
          2   -1    0    0  502    0  0.00000000000E+00  0.00000000000E+00  0.78390807965E+03  0.78390807965E+03  0.00000000000E+00 0. -1.
          1   -1    0    0  501    0 -0.00000000000E+00 -0.00000000000E+00 -0.15841689178E+03  0.15841689178E+03  0.00000000000E+00 0. -1.
         25    2    1    2    0    0  0.46694124145E+02  0.76203096204E+02  0.17814002506E+03  0.23525670637E+03  0.12499838504E+03 0.  0.
          2    1    1    2  501    0 -0.98968153897E+02 -0.44898865273E+02 -0.10514923407E+03  0.15121826945E+03  0.00000000000E+00 0. -1.
          1    1    1    2  502    0  0.52274029752E+02 -0.31304230931E+02  0.55250039689E+03  0.55584999561E+03  0.00000000000E+00 0. -1.
         22    1    3    3    0    0 -0.24600179021E+02  0.13530582129E+02  0.12153535483E+03  0.12473607311E+03  0.00000000000E+00 0.  1.
         22    1    3    3    0    0  0.71294303166E+02  0.62672514075E+02  0.56604670229E+02  0.11052063326E+03  0.00000000000E+00 0.  1.
</event>
<event>
 7    1  0.5889087E-006  0.6116236E+02  0.7818608E-02  0.1465851E+00
          2   -1    0    0  502    0  0.00000000000E+00  0.00000000000E+00  0.58489720580E+03  0.58489720580E+03  0.00000000000E+00 0. -1.
          1   -1    0    0  501    0 -0.00000000000E+00 -0.00000000000E+00 -0.95998641109E+02  0.95998641109E+02  0.00000000000E+00 0. -1.
         25    2    1    2    0    0  0.78209556237E+02  0.36882748622E+02  0.46635971185E+02  0.15898717886E+03  0.12499974960E+03 0.  0.
          2    1    1    2  501    0 -0.55738538875E+02 -0.98087907265E+01 -0.18700625177E+02  0.59604617887E+02  0.00000000000E+00 0. -1.
          1    1    1    2  502    0 -0.22471017362E+02 -0.27073957895E+02  0.46096321868E+03  0.46230405016E+03  0.00000000000E+00 0. -1.
         22    1    3    3    0    0 -0.27944671302E+02 -0.82421958463E+01  0.31071953757E+02  0.42594656435E+02  0.00000000000E+00 0.  1.
         22    1    3    3    0    0  0.10615422754E+03  0.45124944468E+02  0.15564017428E+02  0.11639252242E+03  0.00000000000E+00 0.  1.
</event>
<event>
 7    1  0.7895836E-006  0.1459207E+03  0.7818608E-02  0.1281380E+00
          2   -1    0    0  502    0  0.00000000000E+00  0.00000000000E+00  0.17514889199E+04  0.17514889199E+04  0.00000000000E+00 0. -1.
          1   -1    0    0  501    0 -0.00000000000E+00 -0.00000000000E+00 -0.12633224118E+04  0.12633224118E+04  0.00000000000E+00 0. -1.
         25    2    1    2    0    0 -0.30793997159E+02  0.14275425683E+03 -0.19843179951E+03  0.27627332754E+03  0.12499889740E+03 0.  0.
          2    1    1    2  501    0  0.92721827690E+02 -0.11508520208E+03 -0.10199703908E+04  0.10306219187E+04  0.00000000000E+00 0. -1.
          1    1    1    2  502    0 -0.61927830532E+02 -0.27669054747E+02  0.17065686984E+04  0.17079160855E+04  0.00000000000E+00 0. -1.
         22    1    3    3    0    0 -0.52241766159E+02  0.90044578922E+02 -0.19277362761E+03  0.21908651220E+03  0.00000000000E+00 0. -1.
         22    1    3    3    0    0  0.21447769000E+02  0.52709677904E+02 -0.56581718970E+01  0.57186815343E+02  0.00000000000E+00 0. -1.
</event>
<event>
 7    1  0.5889087E-006  0.4478166E+02  0.7818608E-02  0.1485239E+00
          2   -1    0    0  502    0  0.00000000000E+00  0.00000000000E+00  0.62532076238E+03  0.62532076238E+03  0.00000000000E+00 0. -1.
          1   -1    0    0  501    0 -0.00000000000E+00 -0.00000000000E+00 -0.23414573043E+04  0.23414573043E+04  0.00000000000E+00 0. -1.
         25    2    1    2    0    0 -0.70431536903E+00  0.68977369308E+02  0.14113713140E+03  0.20074848361E+03  0.12498756048E+03 0.  0.
          2    1    1    2  501    0 -0.25812523326E+02 -0.36576492743E+02 -0.23104698522E+04  0.23109035169E+04  0.00000000000E+00 0. -1.
          1    1    1    2  502    0  0.26516838695E+02 -0.32400876565E+02  0.45319617892E+03  0.45512606619E+03  0.00000000000E+00 0. -1.
         22    1    3    3    0    0 -0.50922831542E+01  0.24120987729E+02 -0.21049087761E+02  0.32416315218E+02  0.00000000000E+00 0. -1.
         22    1    3    3    0    0  0.43879677851E+01  0.44856381579E+02  0.16218621916E+03  0.16833216840E+03  0.00000000000E+00 0. -1.
</event>
<event>
 7    1  0.5889087E-006  0.1004166E+03  0.7818608E-02  0.1360928E+00
          2   -1    0    0  502    0  0.00000000000E+00  0.00000000000E+00  0.20853338663E+03  0.20853338663E+03  0.00000000000E+00 0. -1.
          1   -1    0    0  501    0 -0.00000000000E+00 -0.00000000000E+00 -0.14001047180E+04  0.14001047180E+04  0.00000000000E+00 0. -1.
         25    2    1    2    0    0 -0.62831951973E+02  0.46850115566E+02 -0.36952207806E+03  0.39788708664E+03  0.12499912009E+03 0.  0.
          2    1    1    2  501    0  0.18887315703E+02  0.44623404271E+02 -0.10025276064E+04  0.10036979528E+04  0.00000000000E+00 0. -1.
          1    1    1    2  502    0  0.43944636270E+02 -0.91473519837E+02  0.18047835306E+03  0.20705306520E+03  0.00000000000E+00 0. -1.
         22    1    3    3    0    0  0.76815717287E+01 -0.98466573536E+01 -0.23754248614E+03  0.23787054447E+03  0.00000000000E+00 0. -1.
         22    1    3    3    0    0 -0.70513523702E+02  0.56696772920E+02 -0.13197959193E+03  0.16001654217E+03  0.00000000000E+00 0. -1.
</event>
<event>
 7    1  0.5889087E-006  0.1603616E+03  0.7818608E-02  0.1382038E+00
          2   -1    0    0  502    0  0.00000000000E+00  0.00000000000E+00  0.25626384550E+04  0.25626384550E+04  0.00000000000E+00 0. -1.
          1   -1    0    0  501    0 -0.00000000000E+00 -0.00000000000E+00 -0.43973859261E+02  0.43973859261E+02  0.00000000000E+00 0. -1.
         25    2    1    2    0    0 -0.64518126091E+02 -0.12397043840E+03  0.58189328128E+03  0.61135587503E+03  0.12499982777E+03 0.  0.
          2    1    1    2  501    0 -0.11159106894E+02 -0.22914666009E+02 -0.19455096303E+02  0.32064128822E+02  0.00000000000E+00 0. -1.
          1    1    1    2  502    0  0.75677232986E+02  0.14688510441E+03  0.19562264108E+04  0.19631923104E+04  0.00000000000E+00 0. -1.
         22    1    3    3    0    0 -0.73158727941E+02 -0.12136102791E+02  0.19889573512E+03  0.21227104822E+03  0.00000000000E+00 0. -1.
         22    1    3    3    0    0  0.86406018492E+01 -0.11183433561E+03  0.38299754616E+03  0.39908482681E+03  0.00000000000E+00 0. -1.
</event>
<event>
 7    1  0.5889087E-006  0.6831803E+02  0.7818608E-02  0.1374575E+00
          2   -1    0    0  502    0  0.00000000000E+00  0.00000000000E+00  0.15887187143E+04  0.15887187143E+04  0.00000000000E+00 0. -1.
          1   -1    0    0  501    0 -0.00000000000E+00 -0.00000000000E+00 -0.27102879359E+03  0.27102879359E+03  0.00000000000E+00 0. -1.
         25    2    1    2    0    0  0.62092594322E+02  0.55507046679E+02  0.37432252030E+02  0.15478288672E+03  0.12498018254E+03 0.  0.
          2    1    1    2  501    0  0.53901896944E-01 -0.68978593084E+02 -0.20605407741E+03  0.21729319370E+03  0.00000000000E+00 0. -1.
          1    1    1    2  502    0 -0.62146496219E+02  0.13471546405E+02  0.14863117461E+04  0.14876714275E+04  0.00000000000E+00 0. -1.
         22    1    3    3    0    0  0.32756128253E+02  0.80823492500E+02 -0.16115178500E+02  0.88685398213E+02  0.00000000000E+00 0. -1.
         22    1    3    3    0    0  0.29336466069E+02 -0.25316445821E+02  0.53547430531E+02  0.66097488506E+02  0.00000000000E+00 0. -1.
</event>
<event>
 7    1  0.5889087E-006  0.1705518E+03  0.7818608E-02  0.1328708E+00
          2   -1    0    0  502    0  0.00000000000E+00  0.00000000000E+00  0.15510137430E+04  0.15510137430E+04  0.00000000000E+00 0. -1.
          1   -1    0    0  501    0 -0.00000000000E+00 -0.00000000000E+00 -0.57370122849E+03  0.57370122849E+03  0.00000000000E+00 0. -1.
         25    2    1    2    0    0  0.15845983784E+03 -0.40519083279E+02 -0.19749057460E+03  0.28526621053E+03  0.12499186973E+03 0.  0.
          2    1    1    2  501    0 -0.15718608839E+03  0.78136428150E+02 -0.30888765945E+03  0.35528066926E+03  0.00000000000E+00 0. -1.
          1    1    1    2  502    0 -0.12737494430E+01 -0.37617344871E+02  0.14836907486E+04  0.14841680917E+04  0.00000000000E+00 0. -1.
         22    1    3    3    0    0  0.15122189201E+03 -0.25036866144E+01 -0.10252221760E+03  0.18271599320E+03  0.00000000000E+00 0. -1.
         22    1    3    3    0    0  0.72379458235E+01 -0.38015396664E+02 -0.94968356997E+02  0.10255021733E+03  0.00000000000E+00 0. -1.
</event>
<event>
 7    1  0.5889087E-006  0.2280211E+03  0.7818608E-02  0.1265136E+00
          2   -1    0    0  502    0  0.00000000000E+00  0.00000000000E+00  0.10071026226E+04  0.10071026226E+04  0.00000000000E+00 0. -1.
          1   -1    0    0  501    0 -0.00000000000E+00 -0.00000000000E+00 -0.58997407790E+03  0.58997407790E+03  0.00000000000E+00 0. -1.
         25    2    1    2    0    0 -0.41475676408E+02 -0.21023939112E+03 -0.55734380060E+02  0.25426799504E+03  0.12500023548E+03 0.  0.
          2    1    1    2  501    0 -0.36294438835E+01  0.23349504193E+03 -0.40284245850E+03  0.46563414162E+03  0.00000000000E+00 0. -1.
          1    1    1    2  502    0  0.45105120291E+02 -0.23255650811E+02  0.87570538324E+03  0.87717456382E+03  0.00000000000E+00 0. -1.
         22    1    3    3    0    0 -0.12620724124E+02 -0.18037007335E+03 -0.88557017009E+02  0.20133303578E+03  0.00000000000E+00 0.  1.
         22    1    3    3    0    0 -0.28854952284E+02 -0.29869317773E+02  0.32822636948E+02  0.52934959260E+02  0.00000000000E+00 0.  1.
</event>
<event>
 7    1  0.5889087E-006  0.9583266E+02  0.7818608E-02  0.1420595E+00
          2   -1    0    0  502    0  0.00000000000E+00  0.00000000000E+00  0.32342673571E+04  0.32342673571E+04  0.00000000000E+00 0. -1.
          1   -1    0    0  501    0 -0.00000000000E+00 -0.00000000000E+00 -0.14011017043E+02  0.14011017043E+02  0.00000000000E+00 0. -1.
         25    2    1    2    0    0 -0.82988278544E+02  0.36016854565E+02  0.10699918768E+04  0.10810606121E+04  0.12500064933E+03 0.  0.
          2    1    1    2  501    0  0.10560670520E+02  0.29618912986E+02  0.26267670007E+02  0.40973140664E+02  0.00000000000E+00 0. -1.
          1    1    1    2  502    0  0.72427608024E+02 -0.65635767551E+02  0.21239967933E+04  0.21262446214E+04  0.00000000000E+00 0. -1.
         22    1    3    3    0    0 -0.78681700758E+02  0.13597250190E+02  0.10414740459E+04  0.10445304608E+04  0.00000000000E+00 0. -1.
         22    1    3    3    0    0 -0.43065777861E+01  0.22419604375E+02  0.28517830943E+02  0.36530151303E+02  0.00000000000E+00 0. -1.
</event>
<event>
 7    1  0.5889087E-006  0.5075395E+02  0.7818608E-02  0.1492546E+00
          2   -1    0    0  502    0  0.00000000000E+00  0.00000000000E+00  0.36080383478E+04  0.36080383478E+04  0.00000000000E+00 0. -1.
          1   -1    0    0  501    0 -0.00000000000E+00 -0.00000000000E+00 -0.35582752811E+01  0.35582752811E+01  0.00000000000E+00 0. -1.
         25    2    1    2    0    0 -0.25217799455E+02 -0.36661334842E+02  0.18697332430E+04  0.18744354110E+04  0.12500287581E+03 0.  0.
          2    1    1    2  501    0 -0.28186024970E+02  0.20927263031E+02  0.78421192540E+03  0.78499729062E+03  0.00000000000E+00 0. -1.
          1    1    1    2  502    0  0.53403824425E+02  0.15734071811E+02  0.95053490413E+03  0.95216392153E+03  0.00000000000E+00 0. -1.
         22    1    3    3    0    0 -0.38603244675E+02 -0.59764516821E+01  0.17404425870E+04  0.17408809055E+04  0.00000000000E+00 0. -1.
         22    1    3    3    0    0  0.13385445220E+02 -0.30684883160E+02  0.12929065599E+03  0.13355450544E+03  0.00000000000E+00 0. -1.
</event>
<event>
 7    1  0.5889087E-006  0.9351527E+02  0.7818608E-02  0.1391257E+00
          2   -1    0    0  502    0  0.00000000000E+00  0.00000000000E+00  0.11533746883E+04  0.11533746883E+04  0.00000000000E+00 0. -1.
          1   -1    0    0  501    0 -0.00000000000E+00 -0.00000000000E+00 -0.29865696572E+03  0.29865696572E+03  0.00000000000E+00 0. -1.
         25    2    1    2    0    0 -0.21501013517E+02  0.12527905204E+03  0.32407522958E+03  0.36987415784E+03  0.12500001498E+03 0.  0.
          2    1    1    2  501    0 -0.27733607913E+01 -0.92771612574E+02 -0.26741795855E+03  0.28306647308E+03  0.00000000000E+00 0. -1.
          1    1    1    2  502    0  0.24274374308E+02 -0.32507439466E+02  0.79806045159E+03  0.79909102314E+03  0.00000000000E+00 0. -1.
         22    1    3    3    0    0 -0.20481119522E+02  0.15062038467E+03  0.26344770910E+03  0.30415567062E+03  0.00000000000E+00 0.  1.
         22    1    3    3    0    0 -0.10198939944E+01 -0.25341332633E+02  0.60627520476E+02  0.65718487220E+02  0.00000000000E+00 0.  1.
</event>
<event>
 7    1  0.5889087E-006  0.1461221E+03  0.7818608E-02  0.1328048E+00
          2   -1    0    0  502    0  0.00000000000E+00  0.00000000000E+00  0.33138068134E+03  0.33138068134E+03  0.00000000000E+00 0. -1.
          1   -1    0    0  501    0 -0.00000000000E+00 -0.00000000000E+00 -0.88813872717E+03  0.88813872717E+03  0.00000000000E+00 0. -1.
         25    2    1    2    0    0 -0.72374417346E+02  0.82758688140E+02 -0.10103104760E+03  0.19472916090E+03  0.12500046710E+03 0.  0.
          2    1    1    2  501    0 -0.12312656304E+02  0.42438079239E+02 -0.71945937759E+03  0.72081508591E+03  0.00000000000E+00 0. -1.
          1    1    1    2  502    0  0.84687073650E+02 -0.12519676738E+03  0.26373237937E+03  0.30397516170E+03  0.00000000000E+00 0. -1.
         22    1    3    3    0    0 -0.68343614231E+02  0.10722804362E+03 -0.11022533302E+03  0.16828050090E+03  0.00000000000E+00 0. -1.
         22    1    3    3    0    0 -0.40308031151E+01 -0.24469355476E+02  0.91942854179E+01  0.26448659995E+02  0.00000000000E+00 0. -1.
</event>
<event>
 7    1  0.5889087E-006  0.5225118E+02  0.7818608E-02  0.1465083E+00
          2   -1    0    0  502    0  0.00000000000E+00  0.00000000000E+00  0.11863721791E+04  0.11863721791E+04  0.00000000000E+00 0. -1.
          1   -1    0    0  501    0 -0.00000000000E+00 -0.00000000000E+00 -0.41158700530E+03  0.41158700530E+03  0.00000000000E+00 0. -1.
         25    2    1    2    0    0  0.32216850345E+02 -0.74415724248E+01 -0.96762225600E+02  0.16149792586E+03  0.12500139722E+03 0.  0.
          2    1    1    2  501    0 -0.44255937050E+02 -0.32183247486E+02 -0.27943075687E+03  0.28473829611E+03  0.00000000000E+00 0. -1.
          1    1    1    2  502    0  0.12039086705E+02  0.39624819911E+02  0.11509781563E+04  0.11517229624E+04  0.00000000000E+00 0. -1.
         22    1    3    3    0    0 -0.44488965973E+02  0.13254442891E+02 -0.18487101312E+02  0.49967201889E+02  0.00000000000E+00 0.  1.
         22    1    3    3    0    0  0.76705816318E+02 -0.20696015316E+02 -0.78275124288E+02  0.11153072397E+03  0.00000000000E+00 0.  1.
</event>
<event>
 7    1  0.5889087E-006  0.5264652E+02  0.7818608E-02  0.1487083E+00
          2   -1    0    0  502    0  0.00000000000E+00  0.00000000000E+00  0.11387805644E+04  0.11387805644E+04  0.00000000000E+00 0. -1.
          1   -1    0    0  501    0 -0.00000000000E+00 -0.00000000000E+00 -0.36217284063E+03  0.36217284063E+03  0.00000000000E+00 0. -1.
         25    2    1    2    0    0 -0.49130572526E+02  0.47299669459E+02  0.36165595247E+03  0.38867850062E+03  0.12499950799E+03 0.  0.
          2    1    1    2  501    0 -0.16209003306E+01 -0.35119316997E+02 -0.34688017401E+03  0.34865720825E+03  0.00000000000E+00 0. -1.
          1    1    1    2  502    0  0.50751472857E+02 -0.12180352462E+02  0.76183194531E+03  0.76361769615E+03  0.00000000000E+00 0. -1.
         22    1    3    3    0    0 -0.79587694701E+02  0.17685528860E+01  0.14731753174E+03  0.16745084081E+03  0.00000000000E+00 0. -1.
         22    1    3    3    0    0  0.30457122175E+02  0.45531116573E+02  0.21433842072E+03  0.22122765981E+03  0.00000000000E+00 0. -1.
</event>
<event>
 7    1  0.5889087E-006  0.1085799E+03  0.7818608E-02  0.1342665E+00
          2   -1    0    0  502    0  0.00000000000E+00  0.00000000000E+00  0.29944904355E+03  0.29944904355E+03  0.00000000000E+00 0. -1.
          1   -1    0    0  501    0 -0.00000000000E+00 -0.00000000000E+00 -0.33822276503E+03  0.33822276503E+03  0.00000000000E+00 0. -1.
         25    2    1    2    0    0  0.39153862405E+02  0.48411808954E+02 -0.60471638858E+02  0.15218333846E+03  0.12500488476E+03 0.  0.
          2    1    1    2  501    0  0.38748980325E+02  0.35194458850E+02 -0.21573056688E+03  0.22199056489E+03  0.00000000000E+00 0. -1.
          1    1    1    2  502    0 -0.77902842730E+02 -0.83606267804E+02  0.23742848426E+03  0.26349790523E+03  0.00000000000E+00 0. -1.
         22    1    3    3    0    0  0.66304136385E+02  0.73387744343E+02 -0.59206036457E+02  0.11527078673E+03  0.00000000000E+00 0. -1.
         22    1    3    3    0    0 -0.27150273980E+02 -0.24975935389E+02 -0.12656024005E+01  0.36912551730E+02  0.00000000000E+00 0. -1.
</event>
<event>
 7    1  0.5889087E-006  0.1174693E+03  0.7818608E-02  0.1310881E+00
          2   -1    0    0  502    0  0.00000000000E+00  0.00000000000E+00  0.28310660289E+03  0.28310660289E+03  0.00000000000E+00 0. -1.
          1   -1    0    0  501    0 -0.00000000000E+00 -0.00000000000E+00 -0.79480212375E+03  0.79480212375E+03  0.00000000000E+00 0. -1.
         25    2    1    2    0    0  0.88216050573E+02 -0.58057202874E+02  0.63363411585E+02  0.17548069865E+03  0.12500337310E+03 0.  0.
          2    1    1    2  501    0  0.39049433804E+02  0.50815085642E+02 -0.71226731619E+03  0.71514457344E+03  0.00000000000E+00 0. -1.
          1    1    1    2  502    0 -0.12726548438E+03  0.72421172325E+01  0.13720838374E+03  0.18728345454E+03  0.00000000000E+00 0. -1.
         22    1    3    3    0    0  0.17671062817E+02  0.26281817761E+02 -0.20036642489E+02  0.37476225105E+02  0.00000000000E+00 0. -1.
         22    1    3    3    0    0  0.70544987756E+02 -0.84339020635E+02  0.83400054074E+02  0.13800447355E+03  0.00000000000E+00 0. -1.
</event>
<event>
 7    1  0.5889087E-006  0.2951357E+02  0.7818608E-02  0.1658071E+00
          2   -1    0    0  502    0  0.00000000000E+00  0.00000000000E+00  0.15016768726E+04  0.15016768726E+04  0.00000000000E+00 0. -1.
          1   -1    0    0  501    0 -0.00000000000E+00 -0.00000000000E+00 -0.82304003367E+03  0.82304003367E+03  0.00000000000E+00 0. -1.
         25    2    1    2    0    0  0.16179358672E+02  0.31707008455E+01 -0.16796757195E+03  0.21002026410E+03  0.12499432432E+03 0.  0.
          2    1    1    2  501    0 -0.16704123253E+02 -0.24690196538E+02 -0.63361743525E+03  0.63431828587E+03  0.00000000000E+00 0. -1.
          1    1    1    2  502    0  0.52476458168E+00  0.21519495692E+02  0.14802218461E+04  0.14803783563E+04  0.00000000000E+00 0. -1.
         22    1    3    3    0    0  0.12278496246E+02  0.24541248487E+02 -0.18206620174E+03  0.18412261177E+03  0.00000000000E+00 0.  1.
         22    1    3    3    0    0  0.39008624259E+01 -0.21370547641E+02  0.14098629792E+02  0.25897652329E+02  0.00000000000E+00 0.  1.
</event>
<event>
 7    1  0.5889087E-006  0.3240687E+02  0.7818608E-02  0.1640761E+00
          2   -1    0    0  502    0  0.00000000000E+00  0.00000000000E+00  0.23504111962E+04  0.23504111962E+04  0.00000000000E+00 0. -1.
          1   -1    0    0  501    0 -0.00000000000E+00 -0.00000000000E+00 -0.45497743291E+03  0.45497743291E+03  0.00000000000E+00 0. -1.
         25    2    1    2    0    0 -0.74457888067E+01  0.12656143197E+02  0.41576324942E+03  0.43439608064E+03  0.12500103030E+03 0.  0.
          2    1    1    2  501    0  0.81080380611E+01  0.20040554770E+02 -0.44525986816E+03  0.44578438096E+03  0.00000000000E+00 0. -1.
          1    1    1    2  502    0 -0.66224925438E+00 -0.32696697967E+02  0.19249303820E+04  0.19252081675E+04  0.00000000000E+00 0. -1.
         22    1    3    3    0    0  0.20605655811E+02 -0.23549437726E+01  0.39683354830E+03  0.39737514249E+03  0.00000000000E+00 0.  1.
         22    1    3    3    0    0 -0.28051444618E+02  0.15011086969E+02  0.18929701118E+02  0.37020938151E+02  0.00000000000E+00 0.  1.
</event>
<event>
 7    1  0.5889087E-006  0.7179817E+02  0.7818608E-02  0.1438150E+00
          2   -1    0    0  502    0  0.00000000000E+00  0.00000000000E+00  0.34845951059E+02  0.34845951059E+02  0.00000000000E+00 0. -1.
          1   -1    0    0  501    0 -0.00000000000E+00 -0.00000000000E+00 -0.20016934058E+04  0.20016934058E+04  0.00000000000E+00 0. -1.
         25    2    1    2    0    0 -0.57863308824E+02  0.34569429656E+02 -0.96127819490E+03  0.97171225531E+03  0.12500292463E+03 0.  0.
          2    1    1    2  501    0 -0.14540716714E+02 -0.33737371748E+02 -0.99010377948E+03  0.99078511133E+03  0.00000000000E+00 0. -1.
          1    1    1    2  502    0  0.72404025538E+02 -0.83205790868E+00 -0.15465480386E+02  0.74041990236E+02  0.00000000000E+00 0. -1.
         22    1    3    3    0    0 -0.18149508520E+02  0.77090653893E+02 -0.67121520507E+03  0.67587145604E+03  0.00000000000E+00 0.  1.
         22    1    3    3    0    0 -0.39713800304E+02 -0.42521224237E+02 -0.29006298983E+03  0.29584079927E+03  0.00000000000E+00 0.  1.
</event>
<event>
 7    1  0.5889087E-006  0.1430596E+03  0.7818608E-02  0.1294487E+00
          2   -1    0    0  502    0  0.00000000000E+00  0.00000000000E+00  0.33345238251E+02  0.33345238251E+02  0.00000000000E+00 0. -1.
          1   -1    0    0  501    0 -0.00000000000E+00 -0.00000000000E+00 -0.23628083420E+04  0.23628083420E+04  0.00000000000E+00 0. -1.
         25    2    1    2    0    0 -0.11384374872E+03 -0.13939726499E+03 -0.51768886900E+03  0.56215562524E+03  0.12500074121E+03 0.  0.
          2    1    1    2  501    0  0.45229356956E+02  0.41180293945E+02 -0.14798295063E+04  0.14810931365E+04  0.00000000000E+00 0. -1.
          1    1    1    2  502    0  0.68614391765E+02  0.98216971043E+02 -0.33194472840E+03  0.35290481843E+03  0.00000000000E+00 0. -1.
         22    1    3    3    0    0  0.19975073860E+02 -0.28468660310E+02 -0.35953272828E+02  0.50021055792E+02  0.00000000000E+00 0. -1.
         22    1    3    3    0    0 -0.13381882258E+03 -0.11092860468E+03 -0.48173559617E+03  0.51213456945E+03  0.00000000000E+00 0. -1.
</event>
<event>
 7    1  0.5889087E-006  0.5342886E+02  0.7818608E-02  0.1464096E+00
          2   -1    0    0  502    0  0.00000000000E+00  0.00000000000E+00  0.27291220591E+04  0.27291220591E+04  0.00000000000E+00 0. -1.
          1   -1    0    0  501    0 -0.00000000000E+00 -0.00000000000E+00 -0.22173776180E+02  0.22173776180E+02  0.00000000000E+00 0. -1.
         25    2    1    2    0    0 -0.15258907667E+01  0.83183233775E+02  0.13578635432E+04  0.13661405635E+04  0.12499943361E+03 0.  0.
          2    1    1    2  501    0  0.19416819449E+02 -0.35872222610E+02  0.61297270321E+01  0.41248064028E+02  0.00000000000E+00 0. -1.
          1    1    1    2  502    0 -0.17890928683E+02 -0.47311011164E+02  0.13429550126E+04  0.13439072077E+04  0.00000000000E+00 0. -1.
         22    1    3    3    0    0 -0.57126278569E+02  0.48789937975E+02  0.47973759204E+03  0.48558421203E+03  0.00000000000E+00 0.  1.
         22    1    3    3    0    0  0.55600387802E+02  0.34393295800E+02  0.87812595120E+03  0.88055635145E+03  0.00000000000E+00 0.  1.
</event>
<event>
 7    1  0.5889087E-006  0.5980020E+02  0.7818608E-02  0.1510555E+00
          2   -1    0    0  502    0  0.00000000000E+00  0.00000000000E+00  0.19261902419E+04  0.19261902419E+04  0.00000000000E+00 0. -1.
          1   -1    0    0  501    0 -0.00000000000E+00 -0.00000000000E+00 -0.16996399805E+03  0.16996399805E+03  0.00000000000E+00 0. -1.
         25    2    1    2    0    0 -0.64118623978E+01 -0.73963911199E+02  0.14022150469E+03  0.20198668851E+03  0.12499911927E+03 0.  0.
          2    1    1    2  501    0  0.20833889919E+02  0.16106336167E+02 -0.13732352094E+03  0.13982565729E+03  0.00000000000E+00 0. -1.
          1    1    1    2  502    0 -0.14422027521E+02  0.57857575032E+02  0.17533282601E+04  0.17543418941E+04  0.00000000000E+00 0. -1.
         22    1    3    3    0    0 -0.63370424317E+02 -0.26296968477E+02  0.86066970997E+02  0.11006754620E+03  0.00000000000E+00 0.  1.
         22    1    3    3    0    0  0.56958561919E+02 -0.47666942722E+02  0.54154533696E+02  0.91919142316E+02  0.00000000000E+00 0.  1.
</event>
<event>
 7    1  0.5889087E-006  0.2617289E+03  0.7818608E-02  0.1180104E+00
          2   -1    0    0  502    0  0.00000000000E+00  0.00000000000E+00  0.79599283759E+03  0.79599283759E+03  0.00000000000E+00 0. -1.
          1   -1    0    0  501    0 -0.00000000000E+00 -0.00000000000E+00 -0.22249428078E+03  0.22249428078E+03  0.00000000000E+00 0. -1.
         25    2    1    2    0    0 -0.30077223667E+02 -0.20114005700E+03  0.12706982823E+03  0.27043242228E+03  0.12499996742E+03 0.  0.
          2    1    1    2  501    0  0.48064408796E+02  0.30727680796E+03  0.23790142592E+02  0.31192177703E+03  0.00000000000E+00 0. -1.
          1    1    1    2  502    0 -0.17987185129E+02 -0.10613675096E+03  0.42263858598E+03  0.43613291907E+03  0.00000000000E+00 0. -1.
         22    1    3    3    0    0  0.19244586407E+02 -0.16939989463E+03  0.12560428561E+03  0.21176192993E+03  0.00000000000E+00 0.  1.
         22    1    3    3    0    0 -0.49321810074E+02 -0.31740162377E+02  0.14655426262E+01  0.58670492344E+02  0.00000000000E+00 0.  1.
</event>
<event>
 7    1  0.5889087E-006  0.7788890E+02  0.7818608E-02  0.1362837E+00
          2   -1    0    0  502    0  0.00000000000E+00  0.00000000000E+00  0.50291974422E+02  0.50291974422E+02  0.00000000000E+00 0. -1.
          1   -1    0    0  501    0 -0.00000000000E+00 -0.00000000000E+00 -0.77540889113E+03  0.77540889113E+03  0.00000000000E+00 0. -1.
         25    2    1    2    0    0  0.98112552823E+02  0.43518277715E+02 -0.40412183680E+03  0.43641631105E+03  0.12499929621E+03 0.  0.
          2    1    1    2  501    0 -0.22918072364E+02 -0.57047921238E+02 -0.30511812449E+03  0.31125033855E+03  0.00000000000E+00 0. -1.
          1    1    1    2  502    0 -0.75194480459E+02  0.13529643523E+02 -0.15876955416E+02  0.78034215948E+02  0.00000000000E+00 0. -1.
         22    1    3    3    0    0  0.38316458924E+02 -0.42325974280E+02 -0.10486455724E+03  0.11939939065E+03  0.00000000000E+00 0.  1.
         22    1    3    3    0    0  0.59796093899E+02  0.85844251995E+02 -0.29925727957E+03  0.31701692040E+03  0.00000000000E+00 0.  1.
</event>
<event>
 7    1  0.5889087E-006  0.8934836E+02  0.7818608E-02  0.1343541E+00
          2   -1    0    0  502    0  0.00000000000E+00  0.00000000000E+00  0.61182444170E+02  0.61182444170E+02  0.00000000000E+00 0. -1.
          1   -1    0    0  501    0 -0.00000000000E+00 -0.00000000000E+00 -0.70060592693E+03  0.70060592693E+03  0.00000000000E+00 0. -1.
         25    2    1    2    0    0 -0.30348068631E+02  0.35746761548E+02 -0.15727388626E+03  0.20629668628E+03  0.12499764494E+03 0.  0.
          2    1    1    2  501    0 -0.45278976975E+02  0.43998063694E+02 -0.42862132157E+03  0.43324618021E+03  0.00000000000E+00 0. -1.
          1    1    1    2  502    0  0.75627045606E+02 -0.79744825243E+02 -0.53528274937E+02  0.12224550461E+03  0.00000000000E+00 0. -1.
         22    1    3    3    0    0  0.27422984657E+02  0.49697266206E+02 -0.12805451875E+03  0.14007068975E+03  0.00000000000E+00 0. -1.
         22    1    3    3    0    0 -0.57771053288E+02 -0.13950504658E+02 -0.29219367506E+02  0.66225996525E+02  0.00000000000E+00 0. -1.
</event>
<event>
 7    1  0.5889087E-006  0.4524526E+02  0.7818608E-02  0.1508247E+00
          2   -1    0    0  502    0  0.00000000000E+00  0.00000000000E+00  0.12436601313E+04  0.12436601313E+04  0.00000000000E+00 0. -1.
          1   -1    0    0  501    0 -0.00000000000E+00 -0.00000000000E+00 -0.71842247108E+03  0.71842247108E+03  0.00000000000E+00 0. -1.
         25    2    1    2    0    0  0.29572406224E+02 -0.72353248802E+01  0.57709625114E+03  0.59126387964E+03  0.12500406050E+03 0.  0.
          2    1    1    2  501    0 -0.35938045241E+02 -0.27541130132E+02 -0.71014333587E+03  0.71158528261E+03  0.00000000000E+00 0. -1.
          1    1    1    2  502    0  0.63656390176E+01  0.34776455012E+02  0.65828474497E+03  0.65923344017E+03  0.00000000000E+00 0. -1.
         22    1    3    3    0    0 -0.21397156321E+02  0.24140610036E+02  0.44583732096E+03  0.44700282338E+03  0.00000000000E+00 0.  1.
         22    1    3    3    0    0  0.50969562545E+02 -0.31375934916E+02  0.13125893019E+03  0.14426105625E+03  0.00000000000E+00 0.  1.
</event>
<event>
 7    1  0.5889087E-006  0.7708158E+02  0.7818608E-02  0.1481414E+00
          2   -1    0    0  502    0  0.00000000000E+00  0.00000000000E+00  0.70448084805E+03  0.70448084805E+03  0.00000000000E+00 0. -1.
          1   -1    0    0  501    0 -0.00000000000E+00 -0.00000000000E+00 -0.55990923569E+02  0.55990923569E+02  0.00000000000E+00 0. -1.
         25    2    1    2    0    0  0.35008903324E+02  0.49054818860E+02  0.15769306461E+03  0.21005935670E+03  0.12500332855E+03 0.  0.
          2    1    1    2  501    0 -0.36648614082E+02 -0.73988047643E+02  0.28361539784E+02  0.87302514552E+02  0.00000000000E+00 0. -1.
          1    1    1    2  502    0  0.16397107580E+01  0.24933228783E+02  0.46243532009E+03  0.46310990036E+03  0.00000000000E+00 0. -1.
         22    1    3    3    0    0  0.66902065729E+02  0.72407147366E+02  0.10297663456E+03  0.14255829914E+03  0.00000000000E+00 0.  1.
         22    1    3    3    0    0 -0.31893162405E+02 -0.23352328506E+02  0.54716430048E+02  0.67501057562E+02  0.00000000000E+00 0.  1.
</event>
<event>
 7    1  0.5889087E-006  0.1067008E+03  0.7818608E-02  0.1333878E+00
          2   -1    0    0  502    0  0.00000000000E+00  0.00000000000E+00  0.17165356529E+04  0.17165356529E+04  0.00000000000E+00 0. -1.
          1   -1    0    0  501    0 -0.00000000000E+00 -0.00000000000E+00 -0.46255936319E+03  0.46255936319E+03  0.00000000000E+00 0. -1.
         25    2    1    2    0    0  0.34998994487E+01 -0.10565158476E+03 -0.32999810615E+02  0.16699859602E+03  0.12500014765E+03 0.  0.
          2    1    1    2  501    0  0.52937711786E+02  0.94687521897E+02 -0.35393083151E+03  0.37018260578E+03  0.00000000000E+00 0. -1.
          1    1    1    2  502    0 -0.56437611234E+02  0.10964062865E+02  0.16409069318E+04  0.16419138143E+04  0.00000000000E+00 0. -1.
         22    1    3    3    0    0  0.33025680892E+02 -0.65154431989E+01 -0.51885976234E+02  0.61849018814E+02  0.00000000000E+00 0.  1.
         22    1    3    3    0    0 -0.29525781444E+02 -0.99136141563E+02  0.18886165619E+02  0.10514957720E+03  0.00000000000E+00 0.  1.
</event>
<event>
 7    1  0.5889087E-006  0.5661015E+02  0.7818608E-02  0.1527476E+00
          2   -1    0    0  502    0  0.00000000000E+00  0.00000000000E+00  0.26962374230E+03  0.26962374230E+03  0.00000000000E+00 0. -1.
          1   -1    0    0  501    0 -0.00000000000E+00 -0.00000000000E+00 -0.77105988910E+02  0.77105988910E+02  0.00000000000E+00 0. -1.
         25    2    1    2    0    0 -0.56497054075E+02 -0.52073067107E+02  0.12936687135E+03  0.19561331555E+03  0.12500104152E+03 0.  0.
          2    1    1    2  501    0  0.20922820964E+02  0.13385248934E+02 -0.33140620739E+02  0.41415336158E+02  0.00000000000E+00 0. -1.
          1    1    1    2  502    0  0.35574233110E+02  0.38687818172E+02  0.96291502776E+02  0.10970107950E+03  0.00000000000E+00 0. -1.
         22    1    3    3    0    0  0.37251627223E+02  0.48954972336E+00  0.20038469776E+02  0.42302052677E+02  0.00000000000E+00 0.  1.
         22    1    3    3    0    0 -0.93748681298E+02 -0.52562616830E+02  0.10932840157E+03  0.15331126287E+03  0.00000000000E+00 0.  1.
</event>
<event>
 7    1  0.5889087E-006  0.1793998E+03  0.7818608E-02  0.1277994E+00
          2   -1    0    0  502    0  0.00000000000E+00  0.00000000000E+00  0.45457284091E+03  0.45457284091E+03  0.00000000000E+00 0. -1.
          1   -1    0    0  501    0 -0.00000000000E+00 -0.00000000000E+00 -0.28320223761E+03  0.28320223761E+03  0.00000000000E+00 0. -1.
         25    2    1    2    0    0  0.18289110036E+03  0.23739592388E+02 -0.88184741908E+02  0.23961561728E+03  0.12500548987E+03 0.  0.
          2    1    1    2  501    0 -0.61441822160E+01 -0.56645184573E+02 -0.89169420208E+02  0.10581877627E+03  0.00000000000E+00 0. -1.
          1    1    1    2  502    0 -0.17674691815E+03  0.32905592186E+02  0.34872476542E+03  0.39234068498E+03  0.00000000000E+00 0. -1.
         22    1    3    3    0    0  0.69389214351E+02  0.29699869189E+02 -0.10006366438E+03  0.12533827120E+03  0.00000000000E+00 0. -1.
         22    1    3    3    0    0  0.11350188601E+03 -0.59602768008E+01  0.11878922470E+02  0.11427734608E+03  0.00000000000E+00 0. -1.
</event>
<event>
 7    1  0.5889087E-006  0.7971393E+02  0.7818608E-02  0.1436568E+00
          2   -1    0    0  502    0  0.00000000000E+00  0.00000000000E+00  0.13478454848E+04  0.13478454848E+04  0.00000000000E+00 0. -1.
          1   -1    0    0  501    0 -0.00000000000E+00 -0.00000000000E+00 -0.38553883309E+02  0.38553883309E+02  0.00000000000E+00 0. -1.
         25    2    1    2    0    0  0.39916490676E+02 -0.63976059516E+02  0.19594237777E+03  0.24434310365E+03  0.12499549782E+03 0.  0.
          2    1    1    2  501    0 -0.29565535759E+02 -0.15718721566E+02  0.88458060295E+01  0.34633039091E+02  0.00000000000E+00 0. -1.
          1    1    1    2  502    0 -0.10350954917E+02  0.79694781082E+02  0.11045034176E+04  0.11074232253E+04  0.00000000000E+00 0. -1.
         22    1    3    3    0    0  0.50580425262E+01 -0.97165395914E+02  0.12085358392E+03  0.15515246277E+03  0.00000000000E+00 0. -1.
         22    1    3    3    0    0  0.34858448150E+02  0.33189336398E+02  0.75088793851E+02  0.89190640876E+02  0.00000000000E+00 0. -1.
</event>
<event>
 7    1  0.5889087E-006  0.2457772E+02  0.7818608E-02  0.1668380E+00
          2   -1    0    0  502    0  0.00000000000E+00  0.00000000000E+00  0.57886408090E+03  0.57886408090E+03  0.00000000000E+00 0. -1.
          1   -1    0    0  501    0 -0.00000000000E+00 -0.00000000000E+00 -0.27375451958E+03  0.27375451958E+03  0.00000000000E+00 0. -1.
         25    2    1    2    0    0 -0.45395859381E+02 -0.10425530728E+02  0.29286455170E+03  0.32181018750E+03  0.12499070124E+03 0.  0.
          2    1    1    2  501    0  0.24449512814E+02 -0.21089914536E+01 -0.25814999789E+03  0.25931380204E+03  0.00000000000E+00 0. -1.
          1    1    1    2  502    0  0.20946346568E+02  0.12534522182E+02  0.27039500751E+03  0.27149461094E+03  0.00000000000E+00 0. -1.
         22    1    3    3    0    0 -0.64064552717E+02 -0.41078450594E+02  0.26683229349E+03  0.27747284348E+03  0.00000000000E+00 0.  1.
         22    1    3    3    0    0  0.18668693336E+02  0.30652919865E+02  0.26032258203E+02  0.44337344015E+02  0.00000000000E+00 0.  1.
</event>
<event>
 7    1  0.5889087E-006  0.7344689E+02  0.7818608E-02  0.1378722E+00
          2   -1    0    0  502    0  0.00000000000E+00  0.00000000000E+00  0.37372930640E+03  0.37372930640E+03  0.00000000000E+00 0. -1.
          1   -1    0    0  501    0 -0.00000000000E+00 -0.00000000000E+00 -0.24325849353E+03  0.24325849353E+03  0.00000000000E+00 0. -1.
         25    2    1    2    0    0 -0.39484405940E+02  0.10191435004E+03 -0.70391786022E+02  0.18035000936E+03  0.12500227710E+03 0.  0.
          2    1    1    2  501    0 -0.15927059767E+02 -0.54909222475E+02 -0.10646071621E+03  0.12084112728E+03  0.00000000000E+00 0. -1.
          1    1    1    2  502    0  0.55411465707E+02 -0.47005127561E+02  0.30732331510E+03  0.31579666330E+03  0.00000000000E+00 0. -1.
         22    1    3    3    0    0 -0.63214295483E+02  0.12073101216E+02 -0.57942264538E+02  0.86597418820E+02  0.00000000000E+00 0.  1.
         22    1    3    3    0    0  0.23729889543E+02  0.89841248820E+02 -0.12449521484E+02  0.93752590537E+02  0.00000000000E+00 0.  1.
</event>
<event>
 7    1  0.5889087E-006  0.7188030E+02  0.7818608E-02  0.1412981E+00
          2   -1    0    0  502    0  0.00000000000E+00  0.00000000000E+00  0.10570295899E+03  0.10570295899E+03  0.00000000000E+00 0. -1.
          1   -1    0    0  501    0 -0.00000000000E+00 -0.00000000000E+00 -0.25859664540E+03  0.25859664540E+03  0.00000000000E+00 0. -1.
         25    2    1    2    0    0  0.15964178500E+02  0.75032514864E+02  0.11474894175E+02  0.14710904118E+03  0.12499865406E+03 0.  0.
          2    1    1    2  501    0  0.27788426088E+02 -0.67111139082E+02 -0.15581141075E+03  0.17191072490E+03  0.00000000000E+00 0. -1.
          1    1    1    2  502    0 -0.43752604589E+02 -0.79213757821E+01 -0.85571698368E+01  0.45279838319E+02  0.00000000000E+00 0. -1.
         22    1    3    3    0    0 -0.53058506291E+02  0.21095178699E+02  0.16297544041E+02  0.59378629118E+02  0.00000000000E+00 0.  1.
         22    1    3    3    0    0  0.69022684791E+02  0.53937336165E+02 -0.48226498663E+01  0.87730412059E+02  0.00000000000E+00 0.  1.
</event>
<event>
 7    1  0.5889087E-006  0.1314191E+03  0.7818608E-02  0.1295474E+00
          2   -1    0    0  502    0  0.00000000000E+00  0.00000000000E+00  0.76250156532E+03  0.76250156532E+03  0.00000000000E+00 0. -1.
          1   -1    0    0  501    0 -0.00000000000E+00 -0.00000000000E+00 -0.23083002962E+04  0.23083002962E+04  0.00000000000E+00 0. -1.
         25    2    1    2    0    0 -0.97394219638E+02 -0.66285371437E+02  0.68895601809E+02  0.18507029371E+03  0.12500010072E+03 0.  0.
          2    1    1    2  501    0  0.37356319971E+02 -0.54384341283E+02 -0.22425762853E+04  0.22435466446E+04  0.00000000000E+00 0. -1.
          1    1    1    2  502    0  0.60037899667E+02  0.12066971272E+03  0.62788195269E+03  0.64218492311E+03  0.00000000000E+00 0. -1.
         22    1    3    3    0    0 -0.10809881726E+02  0.23387492836E+01 -0.32981803649E+02  0.34786817375E+02  0.00000000000E+00 0. -1.
         22    1    3    3    0    0 -0.86584337912E+02 -0.68624120721E+02  0.10187740546E+03  0.15028347633E+03  0.00000000000E+00 0. -1.
</event>
<event>
 7    1  0.5889087E-006  0.5794562E+02  0.7818608E-02  0.1544478E+00
          2   -1    0    0  502    0  0.00000000000E+00  0.00000000000E+00  0.37658842702E+03  0.37658842702E+03  0.00000000000E+00 0. -1.
          1   -1    0    0  501    0 -0.00000000000E+00 -0.00000000000E+00 -0.83955014691E+02  0.83955014691E+02  0.00000000000E+00 0. -1.
         25    2    1    2    0    0 -0.11951570138E+02  0.63453040051E+02  0.12799118973E+03  0.19020001056E+03  0.12500068419E+03 0.  0.
          2    1    1    2  501    0  0.28876763333E+02 -0.49855965145E+02 -0.36388349939E+02  0.68143941275E+02  0.00000000000E+00 0. -1.
          1    1    1    2  502    0 -0.16925193195E+02 -0.13597074906E+02  0.20103057254E+03  0.20219948987E+03  0.00000000000E+00 0. -1.
         22    1    3    3    0    0 -0.60101425916E+02 -0.11082767363E+01  0.52426524807E+02  0.79761834093E+02  0.00000000000E+00 0.  1.
         22    1    3    3    0    0  0.48149855778E+02  0.64561316787E+02  0.75564664925E+02  0.11043817647E+03  0.00000000000E+00 0.  1.
</event>
<event>
 7    1  0.5889087E-006  0.4679793E+02  0.7818608E-02  0.1536431E+00
          2   -1    0    0  502    0  0.00000000000E+00  0.00000000000E+00  0.11161075033E+02  0.11161075033E+02  0.00000000000E+00 0. -1.
          1   -1    0    0  501    0 -0.00000000000E+00 -0.00000000000E+00 -0.12995986016E+04  0.12995986016E+04  0.00000000000E+00 0. -1.
         25    2    1    2    0    0 -0.14827815196E+02  0.30061502088E+02 -0.60867401350E+03  0.62228018760E+03  0.12500007667E+03 0.  0.
          2    1    1    2  501    0 -0.61922731777E+01 -0.49049815322E+02 -0.62379325036E+03  0.62574934904E+03  0.00000000000E+00 0. -1.
          1    1    1    2  502    0  0.21020088374E+02  0.18988313234E+02 -0.55970262684E+02  0.62730139962E+02  0.00000000000E+00 0. -1.
         22    1    3    3    0    0 -0.51454467130E+02 -0.19049858540E+02 -0.15369815482E+03  0.16319798434E+03  0.00000000000E+00 0.  1.
         22    1    3    3    0    0  0.36626651934E+02  0.49111360628E+02 -0.45497585867E+03  0.45908220326E+03  0.00000000000E+00 0.  1.
</event>
<event>
 7    1  0.5889087E-006  0.1778988E+03  0.7818608E-02  0.1394431E+00
          2   -1    0    0  502    0  0.00000000000E+00  0.00000000000E+00  0.39487955103E+03  0.39487955103E+03  0.00000000000E+00 0. -1.
          1   -1    0    0  501    0 -0.00000000000E+00 -0.00000000000E+00 -0.24991464495E+03  0.24991464495E+03  0.00000000000E+00 0. -1.
         25    2    1    2    0    0 -0.17604081992E+03  0.70148545961E+00  0.85225566629E+02  0.23212059655E+03  0.12500284706E+03 0.  0.
          2    1    1    2  501    0 -0.18110051249E+01  0.20712641795E+02 -0.14163491506E+03  0.14315286387E+03  0.00000000000E+00 0. -1.
          1    1    1    2  502    0  0.17785182505E+03 -0.21414127255E+02  0.20137425451E+03  0.26952073556E+03  0.00000000000E+00 0. -1.
         22    1    3    3    0    0 -0.13094888567E+03  0.56687911324E+02  0.68648307365E+02  0.15834683468E+03  0.00000000000E+00 0. -1.
         22    1    3    3    0    0 -0.45091934251E+02 -0.55986425865E+02  0.16577259264E+02  0.73773761869E+02  0.00000000000E+00 0. -1.
</event>
<event>
 7    1  0.5889087E-006  0.7104857E+02  0.7818608E-02  0.1358503E+00
          2   -1    0    0  502    0  0.00000000000E+00  0.00000000000E+00  0.11526575322E+04  0.11526575322E+04  0.00000000000E+00 0. -1.
          1   -1    0    0  501    0 -0.00000000000E+00 -0.00000000000E+00 -0.83083599973E+03  0.83083599973E+03  0.00000000000E+00 0. -1.
         25    2    1    2    0    0  0.40100046229E+02  0.59660465802E+02  0.78044354231E+03  0.79365104285E+03  0.12498988037E+03 0.  0.
          2    1    1    2  501    0  0.42159237602E+02 -0.57188273154E+02 -0.81804178940E+03  0.82112134859E+03  0.00000000000E+00 0. -1.
          1    1    1    2  502    0 -0.82259283831E+02 -0.24721926475E+01  0.35941977954E+03  0.36872114048E+03  0.00000000000E+00 0. -1.
         22    1    3    3    0    0  0.21196478680E+02 -0.12802867962E+02  0.27554471357E+02  0.37046633156E+02  0.00000000000E+00 0.  1.
         22    1    3    3    0    0  0.18903567549E+02  0.72463333763E+02  0.75288907095E+03  0.75660440969E+03  0.00000000000E+00 0.  1.
</event>
<event>
 7    1  0.5889087E-006  0.1416772E+03  0.7818608E-02  0.1237756E+00
          2   -1    0    0  502    0  0.00000000000E+00  0.00000000000E+00  0.76905190031E+03  0.76905190031E+03  0.00000000000E+00 0. -1.
          1   -1    0    0  501    0 -0.00000000000E+00 -0.00000000000E+00 -0.57691309093E+03  0.57691309093E+03  0.00000000000E+00 0. -1.
         25    2    1    2    0    0 -0.34184486827E+02  0.18002489912E+03  0.21313667881E+03  0.30761971015E+03  0.12500039510E+03 0.  0.
          2    1    1    2  501    0  0.10253947754E+03 -0.97315096654E+02 -0.51436861428E+03  0.53344132184E+03  0.00000000000E+00 0. -1.
          1    1    1    2  502    0 -0.68354990713E+02 -0.82709802463E+02  0.49337074485E+03  0.50490395924E+03  0.00000000000E+00 0. -1.
         22    1    3    3    0    0 -0.19045923625E+02 -0.76572054016E+01 -0.32466027536E+01  0.20782695464E+02  0.00000000000E+00 0. -1.
         22    1    3    3    0    0 -0.15138563202E+02  0.18768210452E+03  0.21638328156E+03  0.28683701468E+03  0.00000000000E+00 0. -1.
</event>
<event>
 7    1  0.5889087E-006  0.4522214E+02  0.7818608E-02  0.1513918E+00
          2   -1    0    0  502    0  0.00000000000E+00  0.00000000000E+00  0.88478229174E+03  0.88478229174E+03  0.00000000000E+00 0. -1.
          1   -1    0    0  501    0 -0.00000000000E+00 -0.00000000000E+00 -0.80252508659E+03  0.80252508659E+03  0.00000000000E+00 0. -1.
         25    2    1    2    0    0  0.12023795417E+02  0.30887767130E+02  0.11676975278E+03  0.17423845801E+03  0.12500095709E+03 0.  0.
          2    1    1    2  501    0  0.20679265541E+02 -0.40336029816E+02 -0.77273437103E+03  0.77406268189E+03  0.00000000000E+00 0. -1.
          1    1    1    2  502    0 -0.32703060958E+02  0.94482626857E+01  0.73822182341E+03  0.73900623842E+03  0.00000000000E+00 0. -1.
         22    1    3    3    0    0  0.34926855248E+02  0.72219319029E+01 -0.14796266654E+02  0.38613093956E+02  0.00000000000E+00 0.  1.
         22    1    3    3    0    0 -0.22903059831E+02  0.23665835227E+02  0.13156601943E+03  0.13562536406E+03  0.00000000000E+00 0.  1.
</event>
<event>
 7    1  0.5889087E-006  0.9420264E+02  0.7818608E-02  0.1423159E+00
          2   -1    0    0  502    0  0.00000000000E+00  0.00000000000E+00  0.41266183283E+03  0.41266183283E+03  0.00000000000E+00 0. -1.
          1   -1    0    0  501    0 -0.00000000000E+00 -0.00000000000E+00 -0.18870050645E+04  0.18870050645E+04  0.00000000000E+00 0. -1.
         25    2    1    2    0    0 -0.11801785746E+03  0.19999901342E+02  0.13280902256E+03  0.21815509345E+03  0.12500079037E+03 0.  0.
          2    1    1    2  501    0  0.88716288188E+02 -0.31192259575E+02 -0.18420903043E+04  0.18444891505E+04  0.00000000000E+00 0. -1.
          1    1    1    2  502    0  0.29301569275E+02  0.11192358233E+02  0.23493805010E+03  0.23702265341E+03  0.00000000000E+00 0. -1.
         22    1    3    3    0    0 -0.94743362842E+02 -0.42573877556E-01  0.15402061373E+03  0.18082769718E+03  0.00000000000E+00 0. -1.
         22    1    3    3    0    0 -0.23274494621E+02  0.20042475220E+02 -0.21211591164E+02  0.37327396273E+02  0.00000000000E+00 0. -1.
</event>
<event>
 7    1  0.5889087E-006  0.1167130E+03  0.7818608E-02  0.1293424E+00
          2   -1    0    0  502    0  0.00000000000E+00  0.00000000000E+00  0.15191206566E+04  0.15191206566E+04  0.00000000000E+00 0. -1.
          1   -1    0    0  501    0 -0.00000000000E+00 -0.00000000000E+00 -0.68720889578E+02  0.68720889578E+02  0.00000000000E+00 0. -1.
         25    2    1    2    0    0 -0.72600211120E+01 -0.13333953683E+03  0.20522564037E+03  0.27490958324E+03  0.12500230199E+03 0.  0.
          2    1    1    2  501    0 -0.60431958537E+02  0.99405611452E+02  0.70936104238E+02  0.13625501123E+03  0.00000000000E+00 0. -1.
          1    1    1    2  502    0  0.67691979649E+02  0.33933925375E+02  0.11742380224E+04  0.11766769517E+04  0.00000000000E+00 0. -1.
         22    1    3    3    0    0  0.15510394421E+02 -0.39651336226E+02 -0.57340654986E+01  0.42961381574E+02  0.00000000000E+00 0.  1.
         22    1    3    3    0    0 -0.22770415533E+02 -0.93688200601E+02  0.21095970587E+03  0.23194820167E+03  0.00000000000E+00 0.  1.
</event>
<event>
 7    1  0.5889087E-006  0.1076393E+03  0.7818608E-02  0.1360905E+00
          2   -1    0    0  502    0  0.00000000000E+00  0.00000000000E+00  0.60951711457E+03  0.60951711457E+03  0.00000000000E+00 0. -1.
          1   -1    0    0  501    0 -0.00000000000E+00 -0.00000000000E+00 -0.31257472831E+03  0.31257472831E+03  0.00000000000E+00 0. -1.
         25    2    1    2    0    0  0.93722452332E+02 -0.23901512100E+02  0.82068622465E+02  0.17808619694E+03  0.12499701755E+03 0.  0.
          2    1    1    2  501    0 -0.85301440572E+02  0.68323606093E+02 -0.25214057564E+03  0.27480778883E+03  0.00000000000E+00 0. -1.
          1    1    1    2  502    0 -0.84210117599E+01 -0.44422093993E+02  0.46701433944E+03  0.46919785711E+03  0.00000000000E+00 0. -1.
         22    1    3    3    0    0  0.11434091896E+03 -0.75480766282E+01  0.28011858969E+02  0.11796390742E+03  0.00000000000E+00 0. -1.
         22    1    3    3    0    0 -0.20618466632E+02 -0.16353435472E+02  0.54056763497E+02  0.60122289525E+02  0.00000000000E+00 0. -1.
</event>
<event>
 7    1  0.5889087E-006  0.9237641E+02  0.7818608E-02  0.1455060E+00
          2   -1    0    0  502    0  0.00000000000E+00  0.00000000000E+00  0.10466600765E+04  0.10466600765E+04  0.00000000000E+00 0. -1.
          1   -1    0    0  501    0 -0.00000000000E+00 -0.00000000000E+00 -0.60190589548E+02  0.60190589548E+02  0.00000000000E+00 0. -1.
         25    2    1    2    0    0 -0.40934476202E+02  0.10126930370E+03  0.55441930794E+03  0.57873736484E+03  0.12500026092E+03 0.  0.
          2    1    1    2  501    0 -0.13252316652E+01 -0.25158955846E+02 -0.40453277104E+02  0.47657076355E+02  0.00000000000E+00 0. -1.
          1    1    1    2  502    0  0.42259707867E+02 -0.76110347856E+02  0.47250345612E+03  0.48045622486E+03  0.00000000000E+00 0. -1.
         22    1    3    3    0    0 -0.75534576777E+02  0.87033238082E+02  0.49713599119E+03  0.51031798964E+03  0.00000000000E+00 0.  1.
         22    1    3    3    0    0  0.34600100575E+02  0.14236065620E+02  0.57283316757E+02  0.68419375201E+02  0.00000000000E+00 0.  1.
</event>
<event>
 7    1  0.5889087E-006  0.7581157E+02  0.7818608E-02  0.1480435E+00
          2   -1    0    0  502    0  0.00000000000E+00  0.00000000000E+00  0.11565224203E+03  0.11565224203E+03  0.00000000000E+00 0. -1.
          1   -1    0    0  501    0 -0.00000000000E+00 -0.00000000000E+00 -0.40247006241E+03  0.40247006241E+03  0.00000000000E+00 0. -1.
         25    2    1    2    0    0  0.73208452293E+02 -0.44344567852E+02 -0.15266207301E+03  0.21507300261E+03  0.12499907892E+03 0.  0.
          2    1    1    2  501    0 -0.49996317693E+02  0.55097154594E+02 -0.21011485996E+03  0.22289814401E+03  0.00000000000E+00 0. -1.
          1    1    1    2  502    0 -0.23212134600E+02 -0.10752586743E+02  0.75959112588E+02  0.80151157818E+02  0.00000000000E+00 0. -1.
         22    1    3    3    0    0  0.78382780986E+02 -0.81108404519E+02 -0.12745828177E+03  0.17020002124E+03  0.00000000000E+00 0.  1.
         22    1    3    3    0    0 -0.51743286934E+01  0.36763836668E+02 -0.25203791241E+02  0.44872981368E+02  0.00000000000E+00 0.  1.
</event>
<event>
 7    1  0.5889087E-006  0.3399547E+02  0.7818608E-02  0.1598832E+00
          2   -1    0    0  502    0  0.00000000000E+00  0.00000000000E+00  0.40203167726E+03  0.40203167726E+03  0.00000000000E+00 0. -1.
          1   -1    0    0  501    0 -0.00000000000E+00 -0.00000000000E+00 -0.40561476389E+03  0.40561476389E+03  0.00000000000E+00 0. -1.
         25    2    1    2    0    0 -0.32460027316E+02  0.47662374316E+02  0.66090343936E+02  0.15270567820E+03  0.12500294115E+03 0.  0.
          2    1    1    2  501    0  0.20728410662E+02 -0.16277549858E+02 -0.36086585621E+03  0.36182701919E+03  0.00000000000E+00 0. -1.
          1    1    1    2  502    0  0.11731616654E+02 -0.31384824459E+02  0.29119242564E+03  0.29311374377E+03  0.00000000000E+00 0. -1.
         22    1    3    3    0    0 -0.23385985832E+02  0.90706493523E+02  0.44881042181E+02  0.10386953474E+03  0.00000000000E+00 0.  1.
         22    1    3    3    0    0 -0.90740414842E+01 -0.43044119206E+02  0.21209301756E+02  0.48836143460E+02  0.00000000000E+00 0.  1.
</event>
<event>
 7    1  0.5889087E-006  0.1057549E+03  0.7818608E-02  0.1391354E+00
          2   -1    0    0  502    0  0.00000000000E+00  0.00000000000E+00  0.13000643225E+04  0.13000643225E+04  0.00000000000E+00 0. -1.
          1   -1    0    0  501    0 -0.00000000000E+00 -0.00000000000E+00 -0.17144864867E+04  0.17144864867E+04  0.00000000000E+00 0. -1.
         25    2    1    2    0    0  0.85835340041E+01 -0.71840420453E+02 -0.68868400961E+02  0.16002123582E+03  0.12501686364E+03 0.  0.
          2    1    1    2  501    0  0.17323703023E+02 -0.31383246850E+02 -0.15975830857E+04  0.15979852110E+04  0.00000000000E+00 0. -1.
          1    1    1    2  502    0 -0.25907237028E+02  0.10322366730E+03  0.12520293225E+04  0.12565443624E+04  0.00000000000E+00 0. -1.
         22    1    3    3    0    0 -0.31337663949E+02 -0.55983900350E+02  0.14914452495E+02  0.65868711642E+02  0.00000000000E+00 0.  1.
         22    1    3    3    0    0  0.39921197953E+02 -0.15856520103E+02 -0.83782853456E+02  0.94152524177E+02  0.00000000000E+00 0.  1.
</event>
<event>
 7    1  0.5889087E-006  0.7841553E+02  0.7818608E-02  0.1349264E+00
          2   -1    0    0  502    0  0.00000000000E+00  0.00000000000E+00  0.87125828748E+03  0.87125828748E+03  0.00000000000E+00 0. -1.
          1   -1    0    0  501    0 -0.00000000000E+00 -0.00000000000E+00 -0.62095574806E+03  0.62095574806E+03  0.00000000000E+00 0. -1.
         25    2    1    2    0    0  0.16786535543E+02 -0.25259688971E+02  0.21568441477E+03  0.25112757535E+03  0.12500181064E+03 0.  0.
          2    1    1    2  501    0 -0.29676501396E+02 -0.61727861493E+02 -0.59824002492E+03  0.60214794780E+03  0.00000000000E+00 0. -1.
          1    1    1    2  502    0  0.12889965853E+02  0.86987550464E+02  0.63285814957E+03  0.63893851240E+03  0.00000000000E+00 0. -1.
         22    1    3    3    0    0 -0.77255730043E+01 -0.24728770136E+02  0.22380528272E+03  0.22529980276E+03  0.00000000000E+00 0.  1.
         22    1    3    3    0    0  0.24512108547E+02 -0.53091883467E+00 -0.81208679549E+01  0.25827772582E+02  0.00000000000E+00 0.  1.
</event>
<event>
 7    1  0.5889087E-006  0.6777881E+02  0.7818608E-02  0.1370177E+00
          2   -1    0    0  502    0  0.00000000000E+00  0.00000000000E+00  0.13195543079E+04  0.13195543079E+04  0.00000000000E+00 0. -1.
          1   -1    0    0  501    0 -0.00000000000E+00 -0.00000000000E+00 -0.35199919288E+03  0.35199919288E+03  0.00000000000E+00 0. -1.
         25    2    1    2    0    0 -0.95846548627E+01  0.64176302317E+02  0.17115167617E+03  0.22164943605E+03  0.12500045142E+03 0.  0.
          2    1    1    2  501    0 -0.54125657133E+02 -0.40796810708E+02 -0.32219594645E+03  0.32924792244E+03  0.00000000000E+00 0. -1.
          1    1    1    2  502    0  0.63710311995E+02 -0.23379491609E+02  0.11185993853E+04  0.11206561423E+04  0.00000000000E+00 0. -1.
         22    1    3    3    0    0  0.42681380064E+02  0.74798659084E+02  0.12037840480E+03  0.14801182368E+03  0.00000000000E+00 0. -1.
         22    1    3    3    0    0 -0.52266034927E+02 -0.10622356766E+02  0.50773271372E+02  0.73637612373E+02  0.00000000000E+00 0. -1.
</event>
<event>
 7    1  0.5889087E-006  0.1892174E+03  0.7818608E-02  0.1280617E+00
          2   -1    0    0  502    0  0.00000000000E+00  0.00000000000E+00  0.15597326081E+04  0.15597326081E+04  0.00000000000E+00 0. -1.
          1   -1    0    0  501    0 -0.00000000000E+00 -0.00000000000E+00 -0.95140078569E+03  0.95140078569E+03  0.00000000000E+00 0. -1.
         25    2    1    2    0    0  0.15198279312E+03 -0.31344082240E+02 -0.29531034330E+03  0.35625455093E+03  0.12501154067E+03 0.  0.
          2    1    1    2  501    0  0.20261054825E+02 -0.48636824683E+02 -0.61859832819E+03  0.62083809701E+03  0.00000000000E+00 0. -1.
          1    1    1    2  502    0 -0.17224384795E+03  0.79980906923E+02  0.15222404939E+04  0.15340407459E+04  0.00000000000E+00 0. -1.
         22    1    3    3    0    0  0.10547191663E+03  0.40961561333E+02 -0.16089104839E+03  0.19669291842E+03  0.00000000000E+00 0. -1.
         22    1    3    3    0    0  0.46510876487E+02 -0.72305643573E+02 -0.13441929491E+03  0.15956163250E+03  0.00000000000E+00 0. -1.
</event>
<event>
 7    1  0.5889087E-006  0.7932806E+02  0.7818608E-02  0.1459215E+00
          2   -1    0    0  502    0  0.00000000000E+00  0.00000000000E+00  0.19033100099E+04  0.19033100099E+04  0.00000000000E+00 0. -1.
          1   -1    0    0  501    0 -0.00000000000E+00 -0.00000000000E+00 -0.65871813627E+03  0.65871813627E+03  0.00000000000E+00 0. -1.
         25    2    1    2    0    0  0.54843206480E+02 -0.35871003773E+02  0.22833507644E+03  0.26843388171E+03  0.12500134203E+03 0.  0.
          2    1    1    2  501    0  0.23012432923E+02  0.16748779416E+02 -0.63738004815E+03  0.63801521883E+03  0.00000000000E+00 0. -1.
          1    1    1    2  502    0 -0.77855639403E+02  0.19122224357E+02  0.16536368454E+04  0.16555790457E+04  0.00000000000E+00 0. -1.
         22    1    3    3    0    0 -0.13356161229E+02  0.38080300479E+02  0.71713948606E+02  0.82288436320E+02  0.00000000000E+00 0. -1.
         22    1    3    3    0    0  0.68199367709E+02 -0.73951304252E+02  0.15662112783E+03  0.18614544539E+03  0.00000000000E+00 0. -1.
</event>
<event>
 7    1  0.5889087E-006  0.1722937E+03  0.7818608E-02  0.1340208E+00
          2   -1    0    0  502    0  0.00000000000E+00  0.00000000000E+00  0.46923491944E+03  0.46923491944E+03  0.00000000000E+00 0. -1.
          1   -1    0    0  501    0 -0.00000000000E+00 -0.00000000000E+00 -0.19141088015E+04  0.19141088015E+04  0.00000000000E+00 0. -1.
         25    2    1    2    0    0  0.16650012597E+02  0.14636553699E+03 -0.10628688241E+03  0.22050628252E+03  0.12500410361E+03 0.  0.
          2    1    1    2  501    0  0.22531420397E+01 -0.17426095570E+03 -0.17456772814E+04  0.17543549037E+04  0.00000000000E+00 0. -1.
          1    1    1    2  502    0 -0.18903154637E+02  0.27895418708E+02  0.40709028177E+03  0.40848253470E+03  0.00000000000E+00 0. -1.
         22    1    3    3    0    0  0.24925497126E+02  0.12776812610E+03 -0.13353958656E+03  0.18649073873E+03  0.00000000000E+00 0. -1.
         22    1    3    3    0    0 -0.82754845282E+01  0.18597410894E+02  0.27252704146E+02  0.34015543791E+02  0.00000000000E+00 0. -1.
</event>
<event>
 7    1  0.7002295E-006  0.5506066E+02  0.7818608E-02  0.1448026E+00
          2   -1    0    0  502    0  0.00000000000E+00  0.00000000000E+00  0.30766460015E+04  0.30766460015E+04  0.00000000000E+00 0. -1.
          1   -1    0    0  501    0 -0.00000000000E+00 -0.00000000000E+00 -0.38686627965E+03  0.38686627965E+03  0.00000000000E+00 0. -1.
         25    2    1    2    0    0  0.67970766219E+02  0.68195779739E+02  0.33489880341E+02  0.16129962856E+03  0.12500123461E+03 0.  0.
          2    1    1    2  501    0 -0.29896648315E+02 -0.45139385256E+02 -0.32052472013E+03  0.32506533173E+03  0.00000000000E+00 0. -1.
          1    1    1    2  502    0 -0.38074117903E+02 -0.23056394483E+02  0.29768145616E+04  0.29771473208E+04  0.00000000000E+00 0. -1.
         22    1    3    3    0    0 -0.21814883286E+02 -0.19259992293E+02  0.19837644818E+02  0.35218866930E+02  0.00000000000E+00 0.  1.
         22    1    3    3    0    0  0.89785649505E+02  0.87455772031E+02  0.13652235523E+02  0.12608076163E+03  0.00000000000E+00 0.  1.
</event>
<event>
 7    1  0.5889087E-006  0.4695687E+02  0.7818608E-02  0.1477815E+00
          2   -1    0    0  502    0  0.00000000000E+00  0.00000000000E+00  0.57733007490E+03  0.57733007490E+03  0.00000000000E+00 0. -1.
          1   -1    0    0  501    0 -0.00000000000E+00 -0.00000000000E+00 -0.64924037349E+03  0.64924037349E+03  0.00000000000E+00 0. -1.
         25    2    1    2    0    0 -0.33811434008E+02 -0.27634726340E+01  0.30810046025E+02  0.13313769832E+03  0.12500215170E+03 0.  0.
          2    1    1    2  501    0  0.20435013121E+02  0.42654360013E+02 -0.59624497590E+03  0.59811792773E+03  0.00000000000E+00 0. -1.
          1    1    1    2  502    0  0.13376420886E+02 -0.39890887379E+02  0.49352463129E+03  0.49531482233E+03  0.00000000000E+00 0. -1.
         22    1    3    3    0    0 -0.16762450903E+02 -0.50907782124E+02  0.54850512792E+02  0.76688726646E+02  0.00000000000E+00 0.  1.
         22    1    3    3    0    0 -0.17048983105E+02  0.48144309490E+02 -0.24040466768E+02  0.56448971678E+02  0.00000000000E+00 0.  1.
</event>
<event>
 7    1  0.5889087E-006  0.1826190E+03  0.7818608E-02  0.1240869E+00
          2   -1    0    0  502    0  0.00000000000E+00  0.00000000000E+00  0.20354817917E+04  0.20354817917E+04  0.00000000000E+00 0. -1.
          1   -1    0    0  501    0 -0.00000000000E+00 -0.00000000000E+00 -0.15713558353E+03  0.15713558353E+03  0.00000000000E+00 0. -1.
         25    2    1    2    0    0  0.24291026474E+03 -0.75009443572E+02  0.30643111725E+03  0.41732053526E+03  0.12499834475E+03 0.  0.
          2    1    1    2  501    0 -0.69633927010E+02  0.40690548620E+02 -0.80215311595E+02  0.11375016814E+03  0.00000000000E+00 0. -1.
          1    1    1    2  502    0 -0.17327633773E+03  0.34318894953E+02  0.16521304025E+04  0.16615466718E+04  0.00000000000E+00 0. -1.
         22    1    3    3    0    0  0.14305089603E+03 -0.10377608091E+03  0.21972473370E+03  0.28197870917E+03  0.00000000000E+00 0.  1.
         22    1    3    3    0    0  0.99859368709E+02  0.28766637333E+02  0.86706383549E+02  0.13534182609E+03  0.00000000000E+00 0.  1.
</event>
<event>
 7    1  0.6825446E-006  0.1309413E+03  0.7818608E-02  0.1248356E+00
          2   -1    0    0  502    0  0.00000000000E+00  0.00000000000E+00  0.10484262906E+04  0.10484262906E+04  0.00000000000E+00 0. -1.
          1   -1    0    0  501    0 -0.00000000000E+00 -0.00000000000E+00 -0.15567860846E+04  0.15567860846E+04  0.00000000000E+00 0. -1.
         25    2    1    2    0    0  0.19352980451E+03  0.37979268022E+02 -0.40118290692E+03  0.46418641718E+03  0.12500038021E+03 0.  0.
          2    1    1    2  501    0 -0.97690056568E+02 -0.79144100248E+02 -0.11178935207E+04  0.11249413582E+04  0.00000000000E+00 0. -1.
          1    1    1    2  502    0 -0.95839747940E+02  0.41164832226E+02  0.10107166335E+04  0.10160845998E+04  0.00000000000E+00 0. -1.
         22    1    3    3    0    0  0.13600340936E+03 -0.28626604930E+02 -0.19007134617E+03  0.23546449095E+03  0.00000000000E+00 0. -1.
         22    1    3    3    0    0  0.57526395149E+02  0.66605872952E+02 -0.21111156076E+03  0.22872192622E+03  0.00000000000E+00 0. -1.
</event>
<event>
 7    1  0.5889087E-006  0.1264355E+03  0.7818608E-02  0.1268149E+00
          2   -1    0    0  502    0  0.00000000000E+00  0.00000000000E+00  0.10975110876E+04  0.10975110876E+04  0.00000000000E+00 0. -1.
          1   -1    0    0  501    0 -0.00000000000E+00 -0.00000000000E+00 -0.10335039242E+04  0.10335039242E+04  0.00000000000E+00 0. -1.
         25    2    1    2    0    0 -0.39604014203E+01  0.70890487065E+02  0.78596633360E+02  0.16384180521E+03  0.12500224167E+03 0.  0.
          2    1    1    2  501    0  0.90272209718E+02 -0.92093861696E+02 -0.98464533660E+03  0.99305427349E+03  0.00000000000E+00 0. -1.
          1    1    1    2  502    0 -0.86311808297E+02  0.21203374631E+02  0.97005586665E+03  0.97411893307E+03  0.00000000000E+00 0. -1.
         22    1    3    3    0    0 -0.49133065978E+01  0.93819284513E+00 -0.32320386912E+02  0.32705170810E+02  0.00000000000E+00 0. -1.
         22    1    3    3    0    0  0.95290517755E+00  0.69952294220E+02  0.11091702027E+03  0.13113663440E+03  0.00000000000E+00 0. -1.
</event>
<event>
 7    1  0.5889087E-006  0.5996053E+02  0.7818608E-02  0.1424320E+00
          2   -1    0    0  502    0  0.00000000000E+00  0.00000000000E+00  0.63723539304E+03  0.63723539304E+03  0.00000000000E+00 0. -1.
          1   -1    0    0  501    0 -0.00000000000E+00 -0.00000000000E+00 -0.32925640904E+03  0.32925640904E+03  0.00000000000E+00 0. -1.
         25    2    1    2    0    0  0.99837660487E+02  0.34620308286E+02  0.19308026886E+03  0.25312445160E+03  0.12500349426E+03 0.  0.
          2    1    1    2  501    0 -0.46975281684E+02 -0.13379565611E+02 -0.29525914252E+03  0.29927186821E+03  0.00000000000E+00 0. -1.
          1    1    1    2  502    0 -0.52862378803E+02 -0.21240742675E+02  0.41015785765E+03  0.41409548227E+03  0.00000000000E+00 0. -1.
         22    1    3    3    0    0  0.12733882317E+02  0.67044591529E+02  0.10396214753E+03  0.12435938698E+03  0.00000000000E+00 0. -1.
         22    1    3    3    0    0  0.87103778170E+02 -0.32424283244E+02  0.89118121337E+02  0.12876506462E+03  0.00000000000E+00 0. -1.
</event>
<event>
 7    1  0.5889087E-006  0.9249885E+02  0.7818608E-02  0.1334546E+00
          2   -1    0    0  502    0  0.00000000000E+00  0.00000000000E+00  0.32258210113E+04  0.32258210113E+04  0.00000000000E+00 0. -1.
          1   -1    0    0  501    0 -0.00000000000E+00 -0.00000000000E+00 -0.41103121907E+03  0.41103121907E+03  0.00000000000E+00 0. -1.
         25    2    1    2    0    0 -0.29225820537E+02  0.13241043950E+03  0.75733692474E+03  0.77946818307E+03  0.12499903107E+03 0.  0.
          2    1    1    2  501    0  0.56980164148E+02 -0.72602035689E+02 -0.39419237450E+03  0.40485234692E+03  0.00000000000E+00 0. -1.
          1    1    1    2  502    0 -0.27754343611E+02 -0.59808403811E+02  0.24516452420E+04  0.24525317004E+04  0.00000000000E+00 0. -1.
         22    1    3    3    0    0  0.29272315128E+02  0.40207463806E+02  0.46061257515E+03  0.46328981531E+03  0.00000000000E+00 0. -1.
         22    1    3    3    0    0 -0.58498135665E+02  0.92202975694E+02  0.29672434959E+03  0.31617836776E+03  0.00000000000E+00 0. -1.
</event>
<event>
 7    1  0.5889087E-006  0.8399224E+02  0.7818608E-02  0.1377051E+00
          2   -1    0    0  502    0  0.00000000000E+00  0.00000000000E+00  0.12550501574E+04  0.12550501574E+04  0.00000000000E+00 0. -1.
          1   -1    0    0  501    0 -0.00000000000E+00 -0.00000000000E+00 -0.86902522732E+02  0.86902522732E+02  0.00000000000E+00 0. -1.
         25    2    1    2    0    0  0.44064775570E+02 -0.66673628953E+02  0.12869655836E+03  0.19640551846E+03  0.12500098521E+03 0.  0.
          2    1    1    2  501    0 -0.47315233361E+02 -0.18165588050E+02 -0.38880697672E+02  0.63878232197E+02  0.00000000000E+00 0. -1.
          1    1    1    2  502    0  0.32504577911E+01  0.84839217003E+02  0.10783317740E+04  0.10816689295E+04  0.00000000000E+00 0. -1.
         22    1    3    3    0    0  0.86341494537E+02 -0.55640332088E+02  0.75027928989E+02  0.12720019796E+03  0.00000000000E+00 0. -1.
         22    1    3    3    0    0 -0.42276718967E+02 -0.11033296865E+02  0.53668629372E+02  0.69205320496E+02  0.00000000000E+00 0. -1.
</event>
<event>
 7    1  0.5889087E-006  0.7634548E+02  0.7818608E-02  0.1364514E+00
          2   -1    0    0  502    0  0.00000000000E+00  0.00000000000E+00  0.14745240623E+04  0.14745240623E+04  0.00000000000E+00 0. -1.
          1   -1    0    0  501    0 -0.00000000000E+00 -0.00000000000E+00 -0.11231109394E+03  0.11231109394E+03  0.00000000000E+00 0. -1.
         25    2    1    2    0    0  0.21315269008E+02 -0.59547085008E+02  0.64481790190E+01  0.14023063739E+03  0.12499142621E+03 0.  0.
          2    1    1    2  501    0 -0.81173596513E+02  0.43980322377E+02  0.29426330181E+01  0.92369262292E+02  0.00000000000E+00 0. -1.
          1    1    1    2  502    0  0.59858327505E+02  0.15566762630E+02  0.13528221563E+04  0.13542352566E+04  0.00000000000E+00 0. -1.
         22    1    3    3    0    0 -0.32633495581E+02 -0.75613019577E+02  0.13662088685E+02  0.83480096015E+02  0.00000000000E+00 0. -1.
         22    1    3    3    0    0  0.53948764588E+02  0.16065934570E+02 -0.72139096661E+01  0.56750541380E+02  0.00000000000E+00 0. -1.
</event>
<event>
 7    1  0.5889087E-006  0.9053197E+02  0.7818608E-02  0.1471278E+00
          2   -1    0    0  502    0  0.00000000000E+00  0.00000000000E+00  0.13783110736E+04  0.13783110736E+04  0.00000000000E+00 0. -1.
          1   -1    0    0  501    0 -0.00000000000E+00 -0.00000000000E+00 -0.29087998879E+02  0.29087998879E+02  0.00000000000E+00 0. -1.
         25    2    1    2    0    0  0.51526233621E+02  0.70049064509E+02  0.91717835217E+03  0.92973257678E+03  0.12499884181E+03 0.  0.
          2    1    1    2  501    0 -0.33897342772E+02 -0.84605739924E+02  0.70055971481E+02  0.11495651445E+03  0.00000000000E+00 0. -1.
          1    1    1    2  502    0 -0.17628890849E+02  0.14556675414E+02  0.36198875111E+03  0.36270998129E+03  0.00000000000E+00 0. -1.
         22    1    3    3    0    0 -0.46892196308E+01 -0.93649256176E+01  0.54331425687E+03  0.54341519332E+03  0.00000000000E+00 0.  1.
         22    1    3    3    0    0  0.56215453252E+02  0.79413990127E+02  0.37386409530E+03  0.38631738346E+03  0.00000000000E+00 0.  1.
</event>
<event>
 7    1  0.5889087E-006  0.8845626E+02  0.7818608E-02  0.1447874E+00
          2   -1    0    0  502    0  0.00000000000E+00  0.00000000000E+00  0.20880802806E+04  0.20880802806E+04  0.00000000000E+00 0. -1.
          1   -1    0    0  501    0 -0.00000000000E+00 -0.00000000000E+00 -0.68229989526E+03  0.68229989526E+03  0.00000000000E+00 0. -1.
         25    2    1    2    0    0  0.67316115939E+02 -0.85857713693E+02  0.13334503334E+04  0.13437327134E+04  0.12499922750E+03 0.  0.
          2    1    1    2  501    0 -0.40553918585E+02  0.78566845273E+02 -0.67401389009E+03  0.67978827110E+03  0.00000000000E+00 0. -1.
          1    1    1    2  502    0 -0.26762197354E+02  0.72908684203E+01  0.74634394198E+03  0.74685919134E+03  0.00000000000E+00 0. -1.
         22    1    3    3    0    0  0.29180518757E+02 -0.10380413491E+03  0.64142713654E+03  0.65042722313E+03  0.00000000000E+00 0.  1.
         22    1    3    3    0    0  0.38135597182E+02  0.17946421215E+02  0.69202319691E+03  0.69330549029E+03  0.00000000000E+00 0.  1.
</event>
<event>
 7    1  0.5889087E-006  0.4569902E+02  0.7818608E-02  0.1544472E+00
          2   -1    0    0  502    0  0.00000000000E+00  0.00000000000E+00  0.23226160648E+04  0.23226160648E+04  0.00000000000E+00 0. -1.
          1   -1    0    0  501    0 -0.00000000000E+00 -0.00000000000E+00 -0.37738239790E+02  0.37738239790E+02  0.00000000000E+00 0. -1.
         25    2    1    2    0    0  0.44943524461E+02  0.28862959542E+02  0.75135715804E+03  0.76355474205E+03  0.12500109737E+03 0.  0.
          2    1    1    2  501    0 -0.20221707205E+02 -0.40975378761E+02 -0.14955460660E+02  0.48078736573E+02  0.00000000000E+00 0. -1.
          1    1    1    2  502    0 -0.24721817256E+02  0.12112419219E+02  0.15484761277E+04  0.15487208260E+04  0.00000000000E+00 0. -1.
         22    1    3    3    0    0 -0.15491347691E+02  0.34342321297E+02  0.69946688978E+02  0.79447568776E+02  0.00000000000E+00 0. -1.
         22    1    3    3    0    0  0.60434872152E+02 -0.54793617545E+01  0.68141046906E+03  0.68410717327E+03  0.00000000000E+00 0. -1.
</event>
<event>
 7    1  0.5889087E-006  0.8686439E+02  0.7818608E-02  0.1313593E+00
          2   -1    0    0  502    0  0.00000000000E+00  0.00000000000E+00  0.20170941414E+04  0.20170941414E+04  0.00000000000E+00 0. -1.
          1   -1    0    0  501    0 -0.00000000000E+00 -0.00000000000E+00 -0.58300808000E+02  0.58300808000E+02  0.00000000000E+00 0. -1.
         25    2    1    2    0    0 -0.12365941000E+03  0.30250124571E+02  0.90096244626E+03  0.91845942746E+03  0.12501068196E+03 0.  0.
          2    1    1    2  501    0  0.49478198710E+02 -0.70852002327E+02 -0.88842056563E+01  0.86873629437E+02  0.00000000000E+00 0. -1.
          1    1    1    2  502    0  0.74181211286E+02  0.40601877756E+02  0.10667150928E+04  0.10700618925E+04  0.00000000000E+00 0. -1.
         22    1    3    3    0    0 -0.13570503833E+03  0.36228586589E+02  0.56392566458E+03  0.58115447437E+03  0.00000000000E+00 0.  1.
         22    1    3    3    0    0  0.12045628338E+02 -0.59784620183E+01  0.33703678168E+03  0.33730495308E+03  0.00000000000E+00 0.  1.
</event>
<event>
 7    1  0.5889087E-006  0.1002731E+03  0.7818608E-02  0.1299324E+00
          2   -1    0    0  502    0  0.00000000000E+00  0.00000000000E+00  0.60861613075E+03  0.60861613075E+03  0.00000000000E+00 0. -1.
          1   -1    0    0  501    0 -0.00000000000E+00 -0.00000000000E+00 -0.31335265792E+03  0.31335265792E+03  0.00000000000E+00 0. -1.
         25    2    1    2    0    0 -0.62481778303E+02  0.72616622867E+02  0.23901432436E+03  0.28623670605E+03  0.12500583229E+03 0.  0.
          2    1    1    2  501    0  0.74415918392E+02  0.37752179346E+02 -0.27447229930E+03  0.28687627828E+03  0.00000000000E+00 0. -1.
          1    1    1    2  502    0 -0.11934140089E+02 -0.11036880221E+03  0.33072144777E+03  0.34885580433E+03  0.00000000000E+00 0. -1.
         22    1    3    3    0    0 -0.19614443404E+02 -0.30085213173E+02  0.11072123712E+03  0.11640033845E+03  0.00000000000E+00 0.  1.
         22    1    3    3    0    0 -0.42867334899E+02  0.10270183604E+03  0.12829308724E+03  0.16983636760E+03  0.00000000000E+00 0.  1.
</event>
<event>
 7    1  0.5889087E-006  0.2811646E+02  0.7818608E-02  0.1677325E+00
          2   -1    0    0  502    0  0.00000000000E+00  0.00000000000E+00  0.14953175402E+04  0.14953175402E+04  0.00000000000E+00 0. -1.
          1   -1    0    0  501    0 -0.00000000000E+00 -0.00000000000E+00 -0.27695897514E+03  0.27695897514E+03  0.00000000000E+00 0. -1.
         25    2    1    2    0    0  0.18416923737E+01 -0.82917515985E+01 -0.11020152016E+03  0.16685780135E+03  0.12500002339E+03 0.  0.
          2    1    1    2  501    0 -0.51705056562E+01 -0.19646685175E+02 -0.13754823590E+03  0.13904043860E+03  0.00000000000E+00 0. -1.
          1    1    1    2  502    0  0.33288132825E+01  0.27938436774E+02  0.14661083211E+04  0.14663782753E+04  0.00000000000E+00 0. -1.
         22    1    3    3    0    0 -0.44746547308E+02  0.85822158423E+01  0.50871194073E+00  0.45564972430E+02  0.00000000000E+00 0.  1.
         22    1    3    3    0    0  0.46588239682E+02 -0.16873967441E+02 -0.11071023210E+03  0.12129282892E+03  0.00000000000E+00 0.  1.
</event>
<event>
 7    1  0.5889087E-006  0.9538281E+02  0.7818608E-02  0.1328020E+00
          2   -1    0    0  502    0  0.00000000000E+00  0.00000000000E+00  0.24400639024E+03  0.24400639024E+03  0.00000000000E+00 0. -1.
          1   -1    0    0  501    0 -0.00000000000E+00 -0.00000000000E+00 -0.22878209020E+03  0.22878209020E+03  0.00000000000E+00 0. -1.
         25    2    1    2    0    0  0.13019465376E+03 -0.15459115512E+02  0.10407921517E+03  0.20891859029E+03  0.12499944886E+03 0.  0.
          2    1    1    2  501    0 -0.60208245795E+02 -0.30979167389E+02 -0.14691264970E+03  0.16176547319E+03  0.00000000000E+00 0. -1.
          1    1    1    2  502    0 -0.69986407966E+02  0.46438282901E+02  0.58057734572E+02  0.10210441696E+03  0.00000000000E+00 0. -1.
         22    1    3    3    0    0  0.96031783505E+02  0.43047741828E+02  0.31999662158E+02  0.10999631766E+03  0.00000000000E+00 0.  1.
         22    1    3    3    0    0  0.34162870255E+02 -0.58506857340E+02  0.72079553011E+02  0.98922272630E+02  0.00000000000E+00 0.  1.
</event>
<event>
 7    1  0.5889087E-006  0.1491580E+03  0.7818608E-02  0.1296269E+00
          2   -1    0    0  502    0  0.00000000000E+00  0.00000000000E+00  0.15571455341E+04  0.15571455341E+04  0.00000000000E+00 0. -1.
          1   -1    0    0  501    0 -0.00000000000E+00 -0.00000000000E+00 -0.32659933915E+03  0.32659933915E+03  0.00000000000E+00 0. -1.
         25    2    1    2    0    0 -0.19386119926E+02  0.19378773020E+03 -0.42625361262E+02  0.23531139490E+03  0.12500010051E+03 0.  0.
          2    1    1    2  501    0  0.95782912777E+01 -0.13692293270E+03 -0.16187131485E+03  0.21223090193E+03  0.00000000000E+00 0. -1.
          1    1    1    2  502    0  0.98078286484E+01 -0.56864797499E+02  0.14350428710E+04  0.14362025764E+04  0.00000000000E+00 0. -1.
         22    1    3    3    0    0  0.20111078438E+02 -0.79794393017E+01  0.88377340816E+01  0.23371616787E+02  0.00000000000E+00 0.  1.
         22    1    3    3    0    0 -0.39497198365E+02  0.20176716950E+03 -0.51463095343E+02  0.21193977812E+03  0.00000000000E+00 0.  1.
</event>
<event>
 7    1  0.5889087E-006  0.1437433E+03  0.7818608E-02  0.1324839E+00
          2   -1    0    0  502    0  0.00000000000E+00  0.00000000000E+00  0.79319052610E+03  0.79319052610E+03  0.00000000000E+00 0. -1.
          1   -1    0    0  501    0 -0.00000000000E+00 -0.00000000000E+00 -0.38671803294E+03  0.38671803294E+03  0.00000000000E+00 0. -1.
         25    2    1    2    0    0 -0.94969771193E+02 -0.39534794037E+02  0.13204573667E+03  0.20891109289E+03  0.12500204310E+03 0.  0.
          2    1    1    2  501    0  0.14102347776E+03  0.43363937429E+02 -0.33174113580E+03  0.36307056275E+03  0.00000000000E+00 0. -1.
          1    1    1    2  502    0 -0.46053706564E+02 -0.38291433921E+01  0.60616789230E+03  0.60792690341E+03  0.00000000000E+00 0. -1.
         22    1    3    3    0    0  0.22214514007E+02  0.19772890928E+02  0.32924893563E+02  0.44367786336E+02  0.00000000000E+00 0. -1.
         22    1    3    3    0    0 -0.11718428520E+03 -0.59307684965E+02  0.99120843106E+02  0.16454330655E+03  0.00000000000E+00 0. -1.
</event>
<event>
 7    1  0.5889087E-006  0.9055002E+02  0.7818608E-02  0.1413366E+00
          2   -1    0    0  502    0  0.00000000000E+00  0.00000000000E+00  0.31128756398E+03  0.31128756398E+03  0.00000000000E+00 0. -1.
          1   -1    0    0  501    0 -0.00000000000E+00 -0.00000000000E+00 -0.41612216518E+03  0.41612216518E+03  0.00000000000E+00 0. -1.
         25    2    1    2    0    0  0.92406342219E+02  0.36858785896E+02 -0.10485944326E+03  0.19109514185E+03  0.12499739285E+03 0.  0.
          2    1    1    2  501    0 -0.66432924776E+02 -0.60603087803E+02 -0.25938437362E+03  0.27452927170E+03  0.00000000000E+00 0. -1.
          1    1    1    2  502    0 -0.25973417443E+02  0.23744301907E+02  0.25940921568E+03  0.26178531561E+03  0.00000000000E+00 0. -1.
         22    1    3    3    0    0  0.88177451484E+02  0.10509957959E+02 -0.63424475645E+01  0.89027797949E+02  0.00000000000E+00 0. -1.
         22    1    3    3    0    0  0.42288907344E+01  0.26348827937E+02 -0.98516995694E+02  0.10206734390E+03  0.00000000000E+00 0. -1.
</event>
<event>
 7    1  0.5889087E-006  0.4736858E+02  0.7818608E-02  0.1466484E+00
          2   -1    0    0  502    0  0.00000000000E+00  0.00000000000E+00  0.15143130413E+03  0.15143130413E+03  0.00000000000E+00 0. -1.
          1   -1    0    0  501    0 -0.00000000000E+00 -0.00000000000E+00 -0.12973684125E+04  0.12973684125E+04  0.00000000000E+00 0. -1.
         25    2    1    2    0    0 -0.58534561809E+02  0.43923142111E+02 -0.41143538316E+02  0.15057934409E+03  0.12500324309E+03 0.  0.
          2    1    1    2  501    0  0.45217023917E+02  0.76370416804E+00 -0.11954340669E+04  0.11962891668E+04  0.00000000000E+00 0. -1.
          1    1    1    2  502    0  0.13317537892E+02 -0.44686846279E+02  0.90640496777E+02  0.10193120573E+03  0.00000000000E+00 0. -1.
         22    1    3    3    0    0 -0.69894842599E+02  0.69304268414E+02  0.29225924669E+01  0.98472900785E+02  0.00000000000E+00 0.  1.
         22    1    3    3    0    0  0.11360280790E+02 -0.25381126303E+02 -0.44066130783E+02  0.52106443308E+02  0.00000000000E+00 0.  1.
</event>
<event>
 7    1  0.5889087E-006  0.4921355E+02  0.7818608E-02  0.1451697E+00
          2   -1    0    0  502    0  0.00000000000E+00  0.00000000000E+00  0.19524389164E+04  0.19524389164E+04  0.00000000000E+00 0. -1.
          1   -1    0    0  501    0 -0.00000000000E+00 -0.00000000000E+00 -0.37054663448E+03  0.37054663448E+03  0.00000000000E+00 0. -1.
         25    2    1    2    0    0  0.45644662265E+01  0.58954785077E+01 -0.13819248440E+02  0.12598375540E+03  0.12500137590E+03 0.  0.
          2    1    1    2  501    0  0.24298286358E+02 -0.44835530371E+02 -0.29817027974E+03  0.30249983012E+03  0.00000000000E+00 0. -1.
          1    1    1    2  502    0 -0.28862752584E+02  0.38940051864E+02  0.18938818101E+04  0.18945019653E+04  0.00000000000E+00 0. -1.
         22    1    3    3    0    0 -0.12236120627E+02 -0.42779047550E+02 -0.47004698976E+02  0.64724116704E+02  0.00000000000E+00 0. -1.
         22    1    3    3    0    0  0.16800586853E+02  0.48674526058E+02  0.33185450536E+02  0.61259638694E+02  0.00000000000E+00 0. -1.
</event>
<event>
 7    1  0.5889087E-006  0.1389497E+03  0.7818608E-02  0.1279123E+00
          2   -1    0    0  502    0  0.00000000000E+00  0.00000000000E+00  0.14386814500E+04  0.14386814500E+04  0.00000000000E+00 0. -1.
          1   -1    0    0  501    0 -0.00000000000E+00 -0.00000000000E+00 -0.39502030001E+02  0.39502030001E+02  0.00000000000E+00 0. -1.
         25    2    1    2    0    0  0.17086464908E+03  0.26524975540E+02  0.93720890164E+03  0.96118871244E+03  0.12499965194E+03 0.  0.
          2    1    1    2  501    0 -0.54241577714E+02 -0.48521295425E+02  0.50068664155E+02  0.88336492985E+02  0.00000000000E+00 0. -1.
          1    1    1    2  502    0 -0.11662307136E+03  0.21996319884E+02  0.41190185423E+03  0.42865827460E+03  0.00000000000E+00 0. -1.
         22    1    3    3    0    0  0.59321753096E+02  0.22461795935E+02  0.11410133184E+03  0.13054775599E+03  0.00000000000E+00 0. -1.
         22    1    3    3    0    0  0.11154289598E+03  0.40631796057E+01  0.82310756980E+03  0.83064095646E+03  0.00000000000E+00 0. -1.
</event>
<event>
 7    1  0.5889087E-006  0.8018368E+02  0.7818608E-02  0.1359719E+00
          2   -1    0    0  502    0  0.00000000000E+00  0.00000000000E+00  0.16330108090E+04  0.16330108090E+04  0.00000000000E+00 0. -1.
          1   -1    0    0  501    0 -0.00000000000E+00 -0.00000000000E+00 -0.47051529566E+02  0.47051529566E+02  0.00000000000E+00 0. -1.
         25    2    1    2    0    0  0.12317750843E+03 -0.56723977002E+02  0.45495947799E+03  0.49092034607E+03  0.12499740568E+03 0.  0.
          2    1    1    2  501    0 -0.66314035722E+02  0.33821568713E+02  0.20856560393E+02  0.77307476711E+02  0.00000000000E+00 0. -1.
          1    1    1    2  502    0 -0.56863472705E+02  0.22902408289E+02  0.11101432410E+04  0.11118345158E+04  0.00000000000E+00 0. -1.
         22    1    3    3    0    0  0.14409579928E+03 -0.56281943947E+02  0.43619876822E+03  0.46281813057E+03  0.00000000000E+00 0.  1.
         22    1    3    3    0    0 -0.20918290849E+02 -0.44203305482E+00  0.18760709766E+02  0.28102215504E+02  0.00000000000E+00 0.  1.
</event>
<event>
 7    1  0.5889087E-006  0.5435071E+02  0.7818608E-02  0.1442510E+00
          2   -1    0    0  502    0  0.00000000000E+00  0.00000000000E+00  0.31514578436E+03  0.31514578436E+03  0.00000000000E+00 0. -1.
          1   -1    0    0  501    0 -0.00000000000E+00 -0.00000000000E+00 -0.81418082334E+02  0.81418082334E+02  0.00000000000E+00 0. -1.
         25    2    1    2    0    0  0.55703829198E+02 -0.75714022401E+02  0.16972881469E+03  0.23080496394E+03  0.12501012387E+03 0.  0.
          2    1    1    2  501    0 -0.24753470933E+02  0.39924517853E+02 -0.33289160066E+02  0.57574904489E+02  0.00000000000E+00 0. -1.
          1    1    1    2  502    0 -0.30950358265E+02  0.35789504548E+02  0.97288047399E+02  0.10818399826E+03  0.00000000000E+00 0. -1.
         22    1    3    3    0    0  0.14267376880E+02  0.56565427335E+01  0.13053711232E+03  0.13143626673E+03  0.00000000000E+00 0. -1.
         22    1    3    3    0    0  0.41436452318E+02 -0.81370565134E+02  0.39191702368E+02  0.99368697211E+02  0.00000000000E+00 0. -1.
</event>
<event>
 7    1  0.5889087E-006  0.7286937E+02  0.7818608E-02  0.1451731E+00
          2   -1    0    0  502    0  0.00000000000E+00  0.00000000000E+00  0.22117149441E+02  0.22117149441E+02  0.00000000000E+00 0. -1.
          1   -1    0    0  501    0 -0.00000000000E+00 -0.00000000000E+00 -0.80218019332E+03  0.80218019332E+03  0.00000000000E+00 0. -1.
         25    2    1    2    0    0  0.25321723103E+02  0.62044943812E+02 -0.53157419817E+03  0.55017024402E+03  0.12500161811E+03 0.  0.
          2    1    1    2  501    0  0.58571179822E+00 -0.82041655742E+02 -0.16060272351E+03  0.18034525537E+03  0.00000000000E+00 0. -1.
          1    1    1    2  502    0 -0.25907434901E+02  0.19996711930E+02 -0.87886122194E+02  0.93781843368E+02  0.00000000000E+00 0. -1.
         22    1    3    3    0    0 -0.86295883332E+01  0.48676254369E+02 -0.62540012277E+02  0.79718885277E+02  0.00000000000E+00 0.  1.
         22    1    3    3    0    0  0.33951311436E+02  0.13368689443E+02 -0.46903418590E+03  0.47045135875E+03  0.00000000000E+00 0.  1.
</event>
<event>
 7    1  0.5889087E-006  0.2616711E+03  0.7818608E-02  0.1221339E+00
          2   -1    0    0  502    0  0.00000000000E+00  0.00000000000E+00  0.39592247570E+03  0.39592247570E+03  0.00000000000E+00 0. -1.
          1   -1    0    0  501    0 -0.00000000000E+00 -0.00000000000E+00 -0.47058235904E+03  0.47058235904E+03  0.00000000000E+00 0. -1.
         25    2    1    2    0    0  0.19696195060E+03 -0.22451867658E+03  0.10788639324E+03  0.34127253557E+03  0.12499929428E+03 0.  0.
          2    1    1    2  501    0 -0.61117872127E+02  0.31670390428E+02 -0.26619411506E+03  0.27495038610E+03  0.00000000000E+00 0. -1.
          1    1    1    2  502    0 -0.13584407847E+03  0.19284828615E+03  0.83647838483E+02  0.25028191307E+03  0.00000000000E+00 0. -1.
         22    1    3    3    0    0  0.20034397247E+03 -0.17061871619E+03  0.61883351014E+02  0.27032943374E+03  0.00000000000E+00 0. -1.
         22    1    3    3    0    0 -0.33820218667E+01 -0.53899960397E+02  0.46003042226E+02  0.70943101826E+02  0.00000000000E+00 0. -1.
</event>
<event>
 7    1  0.5889087E-006  0.4347284E+02  0.7818608E-02  0.1564638E+00
          2   -1    0    0  502    0  0.00000000000E+00  0.00000000000E+00  0.30571561381E+03  0.30571561381E+03  0.00000000000E+00 0. -1.
          1   -1    0    0  501    0 -0.00000000000E+00 -0.00000000000E+00 -0.37775208563E+03  0.37775208563E+03  0.00000000000E+00 0. -1.
         25    2    1    2    0    0  0.17407294448E+02 -0.26651505370E+02  0.58422134549E+02  0.14160192466E+03  0.12499857048E+03 0.  0.
          2    1    1    2  501    0  0.14837095072E+01  0.43695182380E+02 -0.33394504638E+03  0.33679484016E+03  0.00000000000E+00 0. -1.
          1    1    1    2  502    0 -0.18891003955E+02 -0.17043677010E+02  0.20348644001E+03  0.20507093462E+03  0.00000000000E+00 0. -1.
         22    1    3    3    0    0  0.23478078392E+01  0.50400791492E+02  0.24152746586E+02  0.55938422862E+02  0.00000000000E+00 0.  1.
         22    1    3    3    0    0  0.15059486608E+02 -0.77052296862E+02  0.34269387963E+02  0.85663501796E+02  0.00000000000E+00 0.  1.
</event>
<event>
 7    1  0.5889087E-006  0.8201421E+02  0.7818608E-02  0.1346164E+00
          2   -1    0    0  502    0  0.00000000000E+00  0.00000000000E+00  0.36164346825E+03  0.36164346825E+03  0.00000000000E+00 0. -1.
          1   -1    0    0  501    0 -0.00000000000E+00 -0.00000000000E+00 -0.66073906378E+03  0.66073906378E+03  0.00000000000E+00 0. -1.
         25    2    1    2    0    0 -0.90516584184E+02  0.31511573008E+02 -0.28409452633E+03  0.32484083436E+03  0.12500254610E+03 0.  0.
          2    1    1    2  501    0  0.38637063312E+02 -0.74298101015E+02 -0.34794169062E+03  0.35787770334E+03  0.00000000000E+00 0. -1.
          1    1    1    2  502    0  0.51879520873E+02  0.42786528007E+02  0.33294062141E+03  0.33966399434E+03  0.00000000000E+00 0. -1.
         22    1    3    3    0    0 -0.43453583029E+02  0.78859444647E+02 -0.14760430222E+03  0.17289897606E+03  0.00000000000E+00 0.  1.
         22    1    3    3    0    0 -0.47063001155E+02 -0.47347871638E+02 -0.13649022410E+03  0.15194185830E+03  0.00000000000E+00 0.  1.
</event>
<event>
 7    1  0.5889087E-006  0.2298180E+03  0.7818608E-02  0.1215891E+00
          2   -1    0    0  502    0  0.00000000000E+00  0.00000000000E+00  0.23778233179E+04  0.23778233179E+04  0.00000000000E+00 0. -1.
          1   -1    0    0  501    0 -0.00000000000E+00 -0.00000000000E+00 -0.10362211297E+04  0.10362211297E+04  0.00000000000E+00 0. -1.
         25    2    1    2    0    0 -0.22702991819E+03 -0.17629420920E+02 -0.47372208274E+03  0.54026341475E+03  0.12497425895E+03 0.  0.
          2    1    1    2  501    0  0.64349094550E+01  0.82751007476E+02 -0.52028996028E+03  0.52686884522E+03  0.00000000000E+00 0. -1.
          1    1    1    2  502    0  0.22059500873E+03 -0.65121586556E+02  0.23356142313E+04  0.23469121876E+04  0.00000000000E+00 0. -1.
         22    1    3    3    0    0 -0.18601052432E+03  0.15218944714E+02 -0.25920781400E+03  0.31940604609E+03  0.00000000000E+00 0.  1.
         22    1    3    3    0    0 -0.41019393865E+02 -0.32848365633E+02 -0.21451426874E+03  0.22085736866E+03  0.00000000000E+00 0.  1.
</event>
<event>
 7    1  0.5889087E-006  0.4800829E+02  0.7818608E-02  0.1579277E+00
          2   -1    0    0  502    0  0.00000000000E+00  0.00000000000E+00  0.37146838178E+03  0.37146838178E+03  0.00000000000E+00 0. -1.
          1   -1    0    0  501    0 -0.00000000000E+00 -0.00000000000E+00 -0.40483442992E+02  0.40483442992E+02  0.00000000000E+00 0. -1.
         25    2    1    2    0    0 -0.26998291793E+02 -0.31594615367E+02  0.21663196203E+03  0.25354185911E+03  0.12500775922E+03 0.  0.
          2    1    1    2  501    0  0.44805129576E+02  0.20409560717E+02  0.78568332867E+01  0.49857593546E+02  0.00000000000E+00 0. -1.
          1    1    1    2  502    0 -0.17806837783E+02  0.11185054649E+02  0.10649614346E+03  0.10855237211E+03  0.00000000000E+00 0. -1.
         22    1    3    3    0    0 -0.25829374319E+02 -0.72893338648E+02  0.18797366487E+03  0.20326016354E+03  0.00000000000E+00 0. -1.
         22    1    3    3    0    0 -0.11689174738E+01  0.41298723282E+02  0.28658297163E+02  0.50281695567E+02  0.00000000000E+00 0. -1.
</event>
<event>
 7    1  0.5889087E-006  0.4920118E+02  0.7818608E-02  0.1517746E+00
          2   -1    0    0  502    0  0.00000000000E+00  0.00000000000E+00  0.24207206515E+03  0.24207206515E+03  0.00000000000E+00 0. -1.
          1   -1    0    0  501    0 -0.00000000000E+00 -0.00000000000E+00 -0.23228307961E+03  0.23228307961E+03  0.00000000000E+00 0. -1.
         25    2    1    2    0    0  0.68740321548E+02 -0.18707224876E+02  0.13187728471E+03  0.19517352854E+03  0.12500358376E+03 0.  0.
          2    1    1    2  501    0 -0.39811964005E+02  0.28347366478E+02 -0.19453456279E+03  0.20057981400E+03  0.00000000000E+00 0. -1.
          1    1    1    2  502    0 -0.28928357543E+02 -0.96401416020E+01  0.72446263624E+02  0.78601802227E+02  0.00000000000E+00 0. -1.
         22    1    3    3    0    0  0.20697567969E+02  0.34107935195E+02  0.11511840196E+03  0.12183590207E+03  0.00000000000E+00 0.  1.
         22    1    3    3    0    0  0.48042753580E+02 -0.52815160071E+02  0.16758882741E+02  0.73337626465E+02  0.00000000000E+00 0.  1.
</event>
<event>
 7    1  0.5889087E-006  0.7394993E+02  0.7818608E-02  0.1361443E+00
          2   -1    0    0  502    0  0.00000000000E+00  0.00000000000E+00  0.54363794209E+02  0.54363794209E+02  0.00000000000E+00 0. -1.
          1   -1    0    0  501    0 -0.00000000000E+00 -0.00000000000E+00 -0.87579976248E+03  0.87579976248E+03  0.00000000000E+00 0. -1.
         25    2    1    2    0    0  0.30800813080E+02 -0.10052468742E+01 -0.16031614808E+03  0.20561196110E+03  0.12500124241E+03 0.  0.
          2    1    1    2  501    0 -0.51113599926E+02 -0.61280988804E+02 -0.65377416446E+03  0.65862631119E+03  0.00000000000E+00 0. -1.
          1    1    1    2  502    0  0.20312786847E+02  0.62286235678E+02 -0.73456557361E+01  0.65925284395E+02  0.00000000000E+00 0. -1.
         22    1    3    3    0    0  0.44167073648E+02 -0.10802203361E+02 -0.10449075960E+01  0.45480873167E+02  0.00000000000E+00 0. -1.
         22    1    3    3    0    0 -0.13366260569E+02  0.97969564872E+01 -0.15927124048E+03  0.16013108793E+03  0.00000000000E+00 0. -1.
</event>
<event>
 7    1  0.6120680E-006  0.5400626E+02  0.7818608E-02  0.1465244E+00
          2   -1    0    0  502    0  0.00000000000E+00  0.00000000000E+00  0.13562390987E+04  0.13562390987E+04  0.00000000000E+00 0. -1.
          1   -1    0    0  501    0 -0.00000000000E+00 -0.00000000000E+00 -0.13443694775E+04  0.13443694775E+04  0.00000000000E+00 0. -1.
         25    2    1    2    0    0 -0.37944697936E+02  0.35452479242E+02 -0.53587736780E+03  0.55270837915E+03  0.12500128269E+03 0.  0.
          2    1    1    2  501    0  0.33907779227E+01 -0.55644734259E+02 -0.79880783349E+03  0.80075076564E+03  0.00000000000E+00 0. -1.
          1    1    1    2  502    0  0.34553920013E+02  0.20192255017E+02  0.13465548225E+04  0.13471494314E+04  0.00000000000E+00 0. -1.
         22    1    3    3    0    0 -0.23132224412E+02  0.81469280682E+02 -0.28950206354E+03  0.30163519074E+03  0.00000000000E+00 0.  1.
         22    1    3    3    0    0 -0.14812473524E+02 -0.46016801440E+02 -0.24637530426E+03  0.25107318840E+03  0.00000000000E+00 0.  1.
</event>
<event>
 7    1  0.5889087E-006  0.6375207E+02  0.7818608E-02  0.1448379E+00
          2   -1    0    0  502    0  0.00000000000E+00  0.00000000000E+00  0.23917518600E+04  0.23917518600E+04  0.00000000000E+00 0. -1.
          1   -1    0    0  501    0 -0.00000000000E+00 -0.00000000000E+00 -0.57704349113E+03  0.57704349113E+03  0.00000000000E+00 0. -1.
         25    2    1    2    0    0 -0.78871839516E+02  0.51775407907E+02  0.75692816493E+03  0.77295982610E+03  0.12500074386E+03 0.  0.
          2    1    1    2  501    0  0.37936357437E+02 -0.55671651194E+01 -0.56779520975E+03  0.56908835936E+03  0.00000000000E+00 0. -1.
          1    1    1    2  502    0  0.40935482079E+02 -0.46208242788E+02  0.16255754137E+04  0.16267471656E+04  0.00000000000E+00 0. -1.
         22    1    3    3    0    0 -0.64372867267E+02  0.15493709531E+02  0.14076725850E+03  0.15556137740E+03  0.00000000000E+00 0. -1.
         22    1    3    3    0    0 -0.14498972249E+02  0.36281698376E+02  0.61616090643E+03  0.61739844869E+03  0.00000000000E+00 0. -1.
</event>
<event>
 7    1  0.5889087E-006  0.6051115E+02  0.7818608E-02  0.1436016E+00
          2   -1    0    0  502    0  0.00000000000E+00  0.00000000000E+00  0.27173642555E+04  0.27173642555E+04  0.00000000000E+00 0. -1.
          1   -1    0    0  501    0 -0.00000000000E+00 -0.00000000000E+00 -0.34000997144E+03  0.34000997144E+03  0.00000000000E+00 0. -1.
         25    2    1    2    0    0  0.70773775495E+02 -0.75502725713E+02  0.41624427525E+02  0.16756087165E+03  0.12503784969E+03 0.  0.
          2    1    1    2  501    0 -0.39806373344E+02  0.43833321243E+02 -0.27368794922E+03  0.28001964388E+03  0.00000000000E+00 0. -1.
          1    1    1    2  502    0 -0.30967402151E+02  0.31669404470E+02  0.26094178058E+04  0.26097937114E+04  0.00000000000E+00 0. -1.
         22    1    3    3    0    0  0.75092588835E+01  0.93692226472E+01 -0.34921506939E+02  0.36928078055E+02  0.00000000000E+00 0. -1.
         22    1    3    3    0    0  0.63264516611E+02 -0.84871948360E+02  0.76545934464E+02  0.13063279360E+03  0.00000000000E+00 0. -1.
</event>
<event>
 7    1  0.5889087E-006  0.1291445E+03  0.7818608E-02  0.1300856E+00
          2   -1    0    0  502    0  0.00000000000E+00  0.00000000000E+00  0.25092744687E+04  0.25092744687E+04  0.00000000000E+00 0. -1.
          1   -1    0    0  501    0 -0.00000000000E+00 -0.00000000000E+00 -0.82336821857E+02  0.82336821857E+02  0.00000000000E+00 0. -1.
         25    2    1    2    0    0  0.18345262732E+03  0.41988655851E+02  0.86967078091E+03  0.89853725874E+03  0.12499609787E+03 0.  0.
          2    1    1    2  501    0 -0.12381256257E+03 -0.19098801375E+02 -0.89113898013E+01  0.12559350196E+03  0.00000000000E+00 0. -1.
          1    1    1    2  502    0 -0.59640064748E+02 -0.22889854476E+02  0.15661782557E+04  0.15674805298E+04  0.00000000000E+00 0. -1.
         22    1    3    3    0    0  0.10527128945E+03  0.46197681748E+02  0.26558499870E+03  0.28939879356E+03  0.00000000000E+00 0.  1.
         22    1    3    3    0    0  0.78181337875E+02 -0.42090258973E+01  0.60408578221E+03  0.60913846517E+03  0.00000000000E+00 0.  1.
</event>
<event>
 7    1  0.5889087E-006  0.2740886E+03  0.7818608E-02  0.1133260E+00
          2   -1    0    0  502    0  0.00000000000E+00  0.00000000000E+00  0.12158371106E+04  0.12158371106E+04  0.00000000000E+00 0. -1.
          1   -1    0    0  501    0 -0.00000000000E+00 -0.00000000000E+00 -0.16153864010E+04  0.16153864010E+04  0.00000000000E+00 0. -1.
         25    2    1    2    0    0 -0.26305021698E+03 -0.31749433139E+03 -0.11742107336E+03  0.44655713002E+03  0.12500997872E+03 0.  0.
          2    1    1    2  501    0  0.38230698914E+02  0.17377760804E+03 -0.13103555857E+04  0.13223811873E+04  0.00000000000E+00 0. -1.
          1    1    1    2  502    0  0.22481951807E+03  0.14371672336E+03  0.10282273687E+04  0.10622851943E+04  0.00000000000E+00 0. -1.
         22    1    3    3    0    0 -0.97870536882E+02 -0.91229860611E+02  0.18695765970E+02  0.13509648819E+03  0.00000000000E+00 0. -1.
         22    1    3    3    0    0 -0.16517968010E+03 -0.22626447078E+03 -0.13611683933E+03  0.31146064182E+03  0.00000000000E+00 0. -1.
</event>
<event>
 7    1  0.5889087E-006  0.1117368E+03  0.7818608E-02  0.1330858E+00
          2   -1    0    0  502    0  0.00000000000E+00  0.00000000000E+00  0.20968876905E+04  0.20968876905E+04  0.00000000000E+00 0. -1.
          1   -1    0    0  501    0 -0.00000000000E+00 -0.00000000000E+00 -0.68604972354E+02  0.68604972354E+02  0.00000000000E+00 0. -1.
         25    2    1    2    0    0  0.12187371357E+03 -0.50291786454E+02  0.22991718729E+03  0.29303515454E+03  0.12500089176E+03 0.  0.
          2    1    1    2  501    0 -0.46624669648E+02 -0.31688965194E+02 -0.12855347231E+02  0.57821365318E+02  0.00000000000E+00 0. -1.
          1    1    1    2  502    0 -0.75249043925E+02  0.81980751647E+02  0.18112208781E+04  0.18146361430E+04  0.00000000000E+00 0. -1.
         22    1    3    3    0    0  0.79126003434E+02  0.13659522516E+02  0.43391766403E+02  0.91270764028E+02  0.00000000000E+00 0. -1.
         22    1    3    3    0    0  0.42747710139E+02 -0.63951308969E+02  0.18652542089E+03  0.20176439051E+03  0.00000000000E+00 0. -1.
</event>
<event>
 7    1  0.5889087E-006  0.7479897E+02  0.7818608E-02  0.1352306E+00
          2   -1    0    0  502    0  0.00000000000E+00  0.00000000000E+00  0.22296287473E+03  0.22296287473E+03  0.00000000000E+00 0. -1.
          1   -1    0    0  501    0 -0.00000000000E+00 -0.00000000000E+00 -0.28633782773E+04  0.28633782773E+04  0.00000000000E+00 0. -1.
         25    2    1    2    0    0  0.81268071484E+02 -0.30430604344E+02 -0.17789653785E+03  0.23410713436E+03  0.12501380347E+03 0.  0.
          2    1    1    2  501    0 -0.24344089046E+02  0.71109932158E+02 -0.26505460746E+04  0.26516115384E+04  0.00000000000E+00 0. -1.
          1    1    1    2  502    0 -0.56923982438E+02 -0.40679327814E+02  0.18802720993E+03  0.20062247920E+03  0.00000000000E+00 0. -1.
         22    1    3    3    0    0 -0.19559302218E+02 -0.37141345239E+02 -0.19648690539E+02  0.46347781708E+02  0.00000000000E+00 0. -1.
         22    1    3    3    0    0  0.10082737370E+03  0.67107408951E+01 -0.15824784731E+03  0.18775935265E+03  0.00000000000E+00 0. -1.
</event>
<event>
 7    1  0.5889087E-006  0.4425277E+03  0.7818608E-02  0.1199297E+00
          2   -1    0    0  502    0  0.00000000000E+00  0.00000000000E+00  0.99536047366E+03  0.99536047366E+03  0.00000000000E+00 0. -1.
          1   -1    0    0  501    0 -0.00000000000E+00 -0.00000000000E+00 -0.20223646163E+04  0.20223646163E+04  0.00000000000E+00 0. -1.
         25    2    1    2    0    0  0.35304946570E+03 -0.22019414395E+03 -0.73776007405E+03  0.85618082140E+03  0.12500514315E+03 0.  0.
          2    1    1    2  501    0  0.45637623782E+02  0.23859359196E+02 -0.11720546057E+04  0.11731854332E+04  0.00000000000E+00 0. -1.
          1    1    1    2  502    0 -0.39868708948E+03  0.19633478475E+03  0.88281053715E+03  0.98835883540E+03  0.00000000000E+00 0. -1.
         22    1    3    3    0    0  0.43446179304E+02 -0.86136248559E+02 -0.14580274383E+03  0.17482981416E+03  0.00000000000E+00 0.  1.
         22    1    3    3    0    0  0.30960328639E+03 -0.13405789539E+03 -0.59195733023E+03  0.68135100724E+03  0.00000000000E+00 0.  1.
</event>
<event>
 7    1  0.5889087E-006  0.6493011E+02  0.7818608E-02  0.1458610E+00
          2   -1    0    0  502    0  0.00000000000E+00  0.00000000000E+00  0.16148728133E+04  0.16148728133E+04  0.00000000000E+00 0. -1.
          1   -1    0    0  501    0 -0.00000000000E+00 -0.00000000000E+00 -0.65317483931E+02  0.65317483931E+02  0.00000000000E+00 0. -1.
         25    2    1    2    0    0  0.47949641708E+02 -0.71775539372E+02  0.51192518394E+02  0.16030016221E+03  0.12499828748E+03 0.  0.
          2    1    1    2  501    0 -0.33204888350E+02  0.40113592661E+02  0.53689086322E+02  0.74794270613E+02  0.00000000000E+00 0. -1.
          1    1    1    2  502    0 -0.14744753358E+02  0.31661946711E+02  0.14446737247E+04  0.14450958644E+04  0.00000000000E+00 0. -1.
         22    1    3    3    0    0  0.38440646317E+02 -0.10778351312E+03  0.42384444692E+02  0.12203036565E+03  0.00000000000E+00 0. -1.
         22    1    3    3    0    0  0.95089953913E+01  0.36007973744E+02  0.88080737018E+01  0.38269796561E+02  0.00000000000E+00 0. -1.
</event>
<event>
 7    1  0.5889087E-006  0.1733987E+03  0.7818608E-02  0.1372622E+00
          2   -1    0    0  502    0  0.00000000000E+00  0.00000000000E+00  0.35906913853E+03  0.35906913853E+03  0.00000000000E+00 0. -1.
          1   -1    0    0  501    0 -0.00000000000E+00 -0.00000000000E+00 -0.37822394208E+03  0.37822394208E+03  0.00000000000E+00 0. -1.
         25    2    1    2    0    0 -0.18882133225E+03 -0.17526754566E+02 -0.12283709601E+03  0.25821576021E+03  0.12500297608E+03 0.  0.
          2    1    1    2  501    0  0.20583126783E+02 -0.14985232024E+02 -0.16142174303E+03  0.16341726166E+03  0.00000000000E+00 0. -1.
          1    1    1    2  502    0  0.16823820547E+03  0.32511986590E+02  0.26510403548E+03  0.31566005873E+03  0.00000000000E+00 0. -1.
         22    1    3    3    0    0 -0.38319801227E+02  0.12464288144E+02  0.23095944234E+02  0.46445541067E+02  0.00000000000E+00 0.  1.
         22    1    3    3    0    0 -0.15050153102E+03 -0.29991042711E+02 -0.14593304024E+03  0.21177021914E+03  0.00000000000E+00 0.  1.
</event>
<event>
 7    1  0.5889087E-006  0.9950447E+02  0.7818608E-02  0.1293056E+00
          2   -1    0    0  502    0  0.00000000000E+00  0.00000000000E+00  0.50234766260E+03  0.50234766260E+03  0.00000000000E+00 0. -1.
          1   -1    0    0  501    0 -0.00000000000E+00 -0.00000000000E+00 -0.96681385218E+03  0.96681385218E+03  0.00000000000E+00 0. -1.
         25    2    1    2    0    0 -0.14557506556E+03 -0.74404894919E+02 -0.12871694980E+03  0.24273725800E+03  0.12500054062E+03 0.  0.
          2    1    1    2  501    0  0.47426164749E+02  0.75455497240E+02 -0.77308699835E+03  0.77820709338E+03  0.00000000000E+00 0. -1.
          1    1    1    2  502    0  0.98148900814E+02 -0.10506023208E+01  0.43733775857E+03  0.44821716340E+03  0.00000000000E+00 0. -1.
         22    1    3    3    0    0 -0.28624647235E+02 -0.44512871317E+02 -0.10798998689E+03  0.12026056466E+03  0.00000000000E+00 0. -1.
         22    1    3    3    0    0 -0.11695041833E+03 -0.29892023601E+02 -0.20726962908E+02  0.12247669335E+03  0.00000000000E+00 0. -1.
</event>
<event>
 7    1  0.5889087E-006  0.1745598E+03  0.7818608E-02  0.1252938E+00
          2   -1    0    0  502    0  0.00000000000E+00  0.00000000000E+00  0.13867733909E+04  0.13867733909E+04  0.00000000000E+00 0. -1.
          1   -1    0    0  501    0 -0.00000000000E+00 -0.00000000000E+00 -0.17682091182E+04  0.17682091182E+04  0.00000000000E+00 0. -1.
         25    2    1    2    0    0 -0.19494625237E+03 -0.91488584880E+02  0.34260648249E+03  0.42353084594E+03  0.12499989258E+03 0.  0.
          2    1    1    2  501    0  0.12598810610E+03  0.12032882988E+03 -0.17219538177E+04  0.17307446318E+04  0.00000000000E+00 0. -1.
          1    1    1    2  502    0  0.68958146269E+02 -0.28840245002E+02  0.99791160788E+03  0.10007070315E+04  0.00000000000E+00 0. -1.
         22    1    3    3    0    0 -0.15344272315E+03 -0.50328455118E+02  0.32429476193E+03  0.36227712499E+03  0.00000000000E+00 0. -1.
         22    1    3    3    0    0 -0.41503529220E+02 -0.41160129762E+02  0.18311720562E+02  0.61253720946E+02  0.00000000000E+00 0. -1.
</event>
<event>
 7    1  0.5889087E-006  0.1987212E+03  0.7818608E-02  0.1207285E+00
          2   -1    0    0  502    0  0.00000000000E+00  0.00000000000E+00  0.18071277205E+04  0.18071277205E+04  0.00000000000E+00 0. -1.
          1   -1    0    0  501    0 -0.00000000000E+00 -0.00000000000E+00 -0.95815546432E+03  0.95815546432E+03  0.00000000000E+00 0. -1.
         25    2    1    2    0    0  0.15166703947E+01 -0.99484544866E+02  0.15467014529E+03  0.22236818529E+03  0.12500112411E+03 0.  0.
          2    1    1    2  501    0 -0.26333155572E+01  0.20468045307E+03 -0.91123071928E+03  0.93393920893E+03  0.00000000000E+00 0. -1.
          1    1    1    2  502    0  0.11166451625E+01 -0.10519590821E+03  0.16055328301E+04  0.16089757906E+04  0.00000000000E+00 0. -1.
         22    1    3    3    0    0 -0.26921025370E+02  0.21337412492E+02  0.22568755878E+02  0.41102013585E+02  0.00000000000E+00 0. -1.
         22    1    3    3    0    0  0.28437695765E+02 -0.12082195736E+03  0.13210138941E+03  0.18126617171E+03  0.00000000000E+00 0. -1.
</event>
<event>
 7    1  0.5889087E-006  0.1042404E+03  0.7818608E-02  0.1381053E+00
          2   -1    0    0  502    0  0.00000000000E+00  0.00000000000E+00  0.70650848650E+03  0.70650848650E+03  0.00000000000E+00 0. -1.
          1   -1    0    0  501    0 -0.00000000000E+00 -0.00000000000E+00 -0.45171821454E+03  0.45171821454E+03  0.00000000000E+00 0. -1.
         25    2    1    2    0    0  0.13170902653E+03  0.38268528442E+02 -0.11350883643E+03  0.21753141957E+03  0.12499565837E+03 0.  0.
          2    1    1    2  501    0 -0.96961097808E+02 -0.19432989949E+02 -0.27703313377E+03  0.29415379106E+03  0.00000000000E+00 0. -1.
          1    1    1    2  502    0 -0.34747928724E+02 -0.18835538493E+02  0.64533224216E+03  0.64654149042E+03  0.00000000000E+00 0. -1.
         22    1    3    3    0    0  0.47788836907E+02  0.77270369778E+02 -0.39646086531E+02  0.99127670990E+02  0.00000000000E+00 0.  1.
         22    1    3    3    0    0  0.83920189625E+02 -0.39001841336E+02 -0.73862749901E+02  0.11840374858E+03  0.00000000000E+00 0.  1.
</event>
<event>
 7    1  0.5889087E-006  0.1609650E+03  0.7818608E-02  0.1241025E+00
          2   -1    0    0  502    0  0.00000000000E+00  0.00000000000E+00  0.88104677913E+03  0.88104677913E+03  0.00000000000E+00 0. -1.
          1   -1    0    0  501    0 -0.00000000000E+00 -0.00000000000E+00 -0.10082486344E+04  0.10082486344E+04  0.00000000000E+00 0. -1.
         25    2    1    2    0    0  0.25316292532E+02  0.13587110434E+03 -0.55276688284E+03  0.58333225375E+03  0.12499367920E+03 0.  0.
          2    1    1    2  501    0  0.39807149133E+02 -0.19994040188E+03 -0.41398412041E+03  0.46145815127E+03  0.00000000000E+00 0. -1.
          1    1    1    2  502    0 -0.65123441665E+02  0.64069297542E+02  0.83954914797E+03  0.84450500851E+03  0.00000000000E+00 0. -1.
         22    1    3    3    0    0  0.72207101376E+02  0.10493385558E+03 -0.33391196602E+03  0.35738240106E+03  0.00000000000E+00 0.  1.
         22    1    3    3    0    0 -0.46890808845E+02  0.30937248763E+02 -0.21885491682E+03  0.22594985269E+03  0.00000000000E+00 0.  1.
</event>
<event>
 7    1  0.5889087E-006  0.1748873E+03  0.7818608E-02  0.1215433E+00
          2   -1    0    0  502    0  0.00000000000E+00  0.00000000000E+00  0.73815343751E+03  0.73815343751E+03  0.00000000000E+00 0. -1.
          1   -1    0    0  501    0 -0.00000000000E+00 -0.00000000000E+00 -0.54342005455E+03  0.54342005455E+03  0.00000000000E+00 0. -1.
         25    2    1    2    0    0 -0.12085633206E+03 -0.12612646417E+03  0.28832254224E+03  0.35954066501E+03  0.12500185387E+03 0.  0.
          2    1    1    2  501    0  0.22751791594E+02  0.17499125118E+03 -0.48471696767E+03  0.51583923925E+03  0.00000000000E+00 0. -1.
          1    1    1    2  502    0  0.98104540470E+02 -0.48864787010E+02  0.39112780840E+03  0.40619358780E+03  0.00000000000E+00 0. -1.
         22    1    3    3    0    0 -0.10521300110E+03 -0.10829067880E+03  0.12937662555E+03  0.19883399597E+03  0.00000000000E+00 0. -1.
         22    1    3    3    0    0 -0.15643330967E+02 -0.17835785371E+02  0.15894591668E+03  0.16070666904E+03  0.00000000000E+00 0. -1.
</event>
<event>
 7    1  0.5889087E-006  0.8256724E+02  0.7818608E-02  0.1493013E+00
          2   -1    0    0  502    0  0.00000000000E+00  0.00000000000E+00  0.49576698885E+03  0.49576698885E+03  0.00000000000E+00 0. -1.
          1   -1    0    0  501    0 -0.00000000000E+00 -0.00000000000E+00 -0.57587104692E+03  0.57587104692E+03  0.00000000000E+00 0. -1.
         25    2    1    2    0    0  0.65894424576E+02  0.46475291622E+02 -0.30950979747E+03  0.34340034391E+03  0.12500181417E+03 0.  0.
          2    1    1    2  501    0 -0.13091180550E+02  0.17066930793E+02 -0.24537814873E+03  0.24631909185E+03  0.00000000000E+00 0. -1.
          1    1    1    2  502    0 -0.52803244026E+02 -0.63542222415E+02  0.47478388813E+03  0.48191860001E+03  0.00000000000E+00 0. -1.
         22    1    3    3    0    0  0.66679817613E+02 -0.29294774424E+02 -0.15934597028E+03  0.17520137023E+03  0.00000000000E+00 0. -1.
         22    1    3    3    0    0 -0.78539303710E+00  0.75770066046E+02 -0.15016382719E+03  0.16819897368E+03  0.00000000000E+00 0. -1.
</event>
<event>
 7    1  0.5889087E-006  0.8828837E+02  0.7818608E-02  0.1436896E+00
          2   -1    0    0  502    0  0.00000000000E+00  0.00000000000E+00  0.82866424199E+03  0.82866424199E+03  0.00000000000E+00 0. -1.
          1   -1    0    0  501    0 -0.00000000000E+00 -0.00000000000E+00 -0.20830022510E+03  0.20830022510E+03  0.00000000000E+00 0. -1.
         25    2    1    2    0    0 -0.25608846350E+02  0.71683546062E+02  0.10794673750E+03  0.18185873002E+03  0.12500302300E+03 0.  0.
          2    1    1    2  501    0  0.24296061265E+02  0.17866248668E+02 -0.16705562900E+03  0.16975595605E+03  0.00000000000E+00 0. -1.
          1    1    1    2  502    0  0.13127850846E+01 -0.89549794730E+02  0.67947290838E+03  0.68534978103E+03  0.00000000000E+00 0. -1.
         22    1    3    3    0    0 -0.47749402348E+02 -0.16483366694E+02  0.17071529381E+02  0.53321139500E+02  0.00000000000E+00 0. -1.
         22    1    3    3    0    0  0.22140555997E+02  0.88166912756E+02  0.90875208123E+02  0.12853759052E+03  0.00000000000E+00 0. -1.
</event>
<event>
 7    1  0.5889087E-006  0.6384661E+02  0.7818608E-02  0.1443123E+00
          2   -1    0    0  502    0  0.00000000000E+00  0.00000000000E+00  0.80679220409E+03  0.80679220409E+03  0.00000000000E+00 0. -1.
          1   -1    0    0  501    0 -0.00000000000E+00 -0.00000000000E+00 -0.57854466388E+03  0.57854466388E+03  0.00000000000E+00 0. -1.
         25    2    1    2    0    0 -0.72119111633E+02 -0.58792834361E+02  0.29727254728E+02  0.15864080606E+03  0.12500172815E+03 0.  0.
          2    1    1    2  501    0  0.32561498912E+02  0.54344272219E+02 -0.51157654486E+03  0.51548434737E+03  0.00000000000E+00 0. -1.
          1    1    1    2  502    0  0.39557612721E+02  0.44485621421E+01  0.71009683034E+03  0.71121171453E+03  0.00000000000E+00 0. -1.
         22    1    3    3    0    0 -0.20196474309E+02 -0.16389832644E+02  0.73910091045E+02  0.78353211465E+02  0.00000000000E+00 0.  1.
         22    1    3    3    0    0 -0.51922637323E+02 -0.42403001717E+02 -0.44182836317E+02  0.80287594598E+02  0.00000000000E+00 0.  1.
</event>
<event>
 7    1  0.5889087E-006  0.5247206E+02  0.7818608E-02  0.1468172E+00
          2   -1    0    0  502    0  0.00000000000E+00  0.00000000000E+00  0.37429067436E+03  0.37429067436E+03  0.00000000000E+00 0. -1.
          1   -1    0    0  501    0 -0.00000000000E+00 -0.00000000000E+00 -0.31465589745E+03  0.31465589745E+03  0.00000000000E+00 0. -1.
         25    2    1    2    0    0 -0.16532742082E+02  0.30106345896E+01 -0.79501716169E+02  0.14909121519E+03  0.12500108836E+03 0.  0.
          2    1    1    2  501    0  0.52489793283E+02 -0.21280968575E+02 -0.19511991617E+03  0.20317440712E+03  0.00000000000E+00 0. -1.
          1    1    1    2  502    0 -0.35957051201E+02  0.18270333986E+02  0.33425640925E+03  0.33668094950E+03  0.00000000000E+00 0. -1.
         22    1    3    3    0    0  0.66585582285E+01 -0.45836261292E+02 -0.82846775166E+02  0.94915158970E+02  0.00000000000E+00 0. -1.
         22    1    3    3    0    0 -0.23191300311E+02  0.48846895882E+02  0.33450589969E+01  0.54176056216E+02  0.00000000000E+00 0. -1.
</event>
<event>
 7    1  0.5889087E-006  0.1309439E+03  0.7818608E-02  0.1278911E+00
          2   -1    0    0  502    0  0.00000000000E+00  0.00000000000E+00  0.69247495204E+03  0.69247495204E+03  0.00000000000E+00 0. -1.
          1   -1    0    0  501    0 -0.00000000000E+00 -0.00000000000E+00 -0.89906548198E+03  0.89906548198E+03  0.00000000000E+00 0. -1.
         25    2    1    2    0    0 -0.96318050385E+02  0.34906237561E+02 -0.24262206326E+02  0.16343128431E+03  0.12500207112E+03 0.  0.
          2    1    1    2  501    0  0.18840975924E+02  0.75053275850E+02 -0.79605868371E+03  0.79981085546E+03  0.00000000000E+00 0. -1.
          1    1    1    2  502    0  0.77477074461E+02 -0.10995951341E+03  0.61373036010E+03  0.62829829426E+03  0.00000000000E+00 0. -1.
         22    1    3    3    0    0 -0.10458395595E+03  0.14898635826E+02  0.25924886253E+02  0.10877441298E+03  0.00000000000E+00 0.  1.
         22    1    3    3    0    0  0.82659055689E+01  0.20007601735E+02 -0.50187092579E+02  0.54656871330E+02  0.00000000000E+00 0.  1.
</event>
<event>
 7    1  0.5889087E-006  0.8269641E+02  0.7818608E-02  0.1416055E+00
          2   -1    0    0  502    0  0.00000000000E+00  0.00000000000E+00  0.18622706455E+04  0.18622706455E+04  0.00000000000E+00 0. -1.
          1   -1    0    0  501    0 -0.00000000000E+00 -0.00000000000E+00 -0.41809232139E+03  0.41809232139E+03  0.00000000000E+00 0. -1.
         25    2    1    2    0    0 -0.70071904088E+02  0.37041907615E+02  0.53838677715E+03  0.55836063797E+03  0.12499642220E+03 0.  0.
          2    1    1    2  501    0  0.82773924933E+02 -0.15054599523E+01 -0.40363219786E+03  0.41203487742E+03  0.00000000000E+00 0. -1.
          1    1    1    2  502    0 -0.12702020845E+02 -0.35536447663E+02  0.13094237448E+04  0.13099674515E+04  0.00000000000E+00 0. -1.
         22    1    3    3    0    0  0.10025827207E+02  0.40687926730E+02  0.36423273393E+03  0.36663538981E+03  0.00000000000E+00 0. -1.
         22    1    3    3    0    0 -0.80097731295E+02 -0.36460191151E+01  0.17415404322E+03  0.19172524817E+03  0.00000000000E+00 0. -1.
</event>
<event>
 7    1  0.5889087E-006  0.1101324E+03  0.7818608E-02  0.1274487E+00
          2   -1    0    0  502    0  0.00000000000E+00  0.00000000000E+00  0.13117802408E+04  0.13117802408E+04  0.00000000000E+00 0. -1.
          1   -1    0    0  501    0 -0.00000000000E+00 -0.00000000000E+00 -0.73885922675E+03  0.73885922675E+03  0.00000000000E+00 0. -1.
         25    2    1    2    0    0 -0.17059504631E+03 -0.63636787869E+02  0.56626039573E+03  0.60780683860E+03  0.12500402662E+03 0.  0.
          2    1    1    2  501    0  0.95949079129E+02 -0.25382058486E+01 -0.71141519776E+03  0.71786088616E+03  0.00000000000E+00 0. -1.
          1    1    1    2  502    0  0.74645967178E+02  0.66174993717E+02  0.71807581610E+03  0.72497174281E+03  0.00000000000E+00 0. -1.
         22    1    3    3    0    0 -0.16892361994E+03 -0.18435673711E+02  0.49547412996E+03  0.52380308981E+03  0.00000000000E+00 0. -1.
         22    1    3    3    0    0 -0.16714263698E+01 -0.45201114158E+02  0.70786265774E+02  0.84003748782E+02  0.00000000000E+00 0. -1.
</event>
<event>
 7    1  0.5889087E-006  0.1055997E+03  0.7818608E-02  0.1322619E+00
          2   -1    0    0  502    0  0.00000000000E+00  0.00000000000E+00  0.50320303475E+03  0.50320303475E+03  0.00000000000E+00 0. -1.
          1   -1    0    0  501    0 -0.00000000000E+00 -0.00000000000E+00 -0.11439030540E+03  0.11439030540E+03  0.00000000000E+00 0. -1.
         25    2    1    2    0    0 -0.58906525685E+02  0.22885844796E+02  0.13970767350E+03  0.19782495144E+03  0.12499094655E+03 0.  0.
          2    1    1    2  501    0  0.11721603285E+03  0.38769238015E+01 -0.39781358162E+02  0.12384339043E+03  0.00000000000E+00 0. -1.
          1    1    1    2  502    0 -0.58309507165E+02 -0.26762768598E+02  0.28888641402E+03  0.29592499829E+03  0.00000000000E+00 0. -1.
         22    1    3    3    0    0 -0.71973403851E+02  0.62034945733E+02  0.11698318397E+03  0.15071022091E+03  0.00000000000E+00 0. -1.
         22    1    3    3    0    0  0.13066878166E+02 -0.39149100937E+02  0.22724489528E+02  0.47114730536E+02  0.00000000000E+00 0. -1.
</event>
<event>
 7    1  0.5889087E-006  0.8286605E+02  0.7818608E-02  0.1402764E+00
          2   -1    0    0  502    0  0.00000000000E+00  0.00000000000E+00  0.55425596554E+03  0.55425596554E+03  0.00000000000E+00 0. -1.
          1   -1    0    0  501    0 -0.00000000000E+00 -0.00000000000E+00 -0.55981171292E+03  0.55981171292E+03  0.00000000000E+00 0. -1.
         25    2    1    2    0    0 -0.84830695574E+02  0.16551973721E+02  0.96411472947E+02  0.17997951000E+03  0.12500894831E+03 0.  0.
          2    1    1    2  501    0  0.64067649357E+02 -0.52807940199E+02 -0.51363680832E+03  0.52030386612E+03  0.00000000000E+00 0. -1.
          1    1    1    2  502    0  0.20763046217E+02  0.36255966478E+02  0.41166958799E+03  0.41378430235E+03  0.00000000000E+00 0. -1.
         22    1    3    3    0    0 -0.25560562323E+02 -0.55400520454E+01 -0.29285655320E+02  0.39264285686E+02  0.00000000000E+00 0. -1.
         22    1    3    3    0    0 -0.59270133251E+02  0.22092025767E+02  0.12569712827E+03  0.14071522431E+03  0.00000000000E+00 0. -1.
</event>
<event>
 7    1  0.5889087E-006  0.7509954E+02  0.7818608E-02  0.1391650E+00
          2   -1    0    0  502    0  0.00000000000E+00  0.00000000000E+00  0.16253579564E+04  0.16253579564E+04  0.00000000000E+00 0. -1.
          1   -1    0    0  501    0 -0.00000000000E+00 -0.00000000000E+00 -0.77641097367E+02  0.77641097367E+02  0.00000000000E+00 0. -1.
         25    2    1    2    0    0  0.41414806188E+01  0.26834430464E+02  0.12997108806E+03  0.18235850300E+03  0.12499960546E+03 0.  0.
          2    1    1    2  501    0  0.19624097280E+02  0.46379341978E+02 -0.37857970401E+02  0.63002971987E+02  0.00000000000E+00 0. -1.
          1    1    1    2  502    0 -0.23765577899E+02 -0.73213772442E+02  0.14556037414E+04  0.14576375788E+04  0.00000000000E+00 0. -1.
         22    1    3    3    0    0 -0.23130810439E+01  0.44809057181E+02  0.14887320532E+03  0.15548772689E+03  0.00000000000E+00 0.  1.
         22    1    3    3    0    0  0.64545616627E+01 -0.17974626717E+02 -0.18902117263E+02  0.26870776112E+02  0.00000000000E+00 0.  1.
</event>
<event>
 7    1  0.5889087E-006  0.1629968E+03  0.7818608E-02  0.1233729E+00
          2   -1    0    0  502    0  0.00000000000E+00  0.00000000000E+00  0.54388958750E+03  0.54388958750E+03  0.00000000000E+00 0. -1.
          1   -1    0    0  501    0 -0.00000000000E+00 -0.00000000000E+00 -0.40707379552E+03  0.40707379552E+03  0.00000000000E+00 0. -1.
         25    2    1    2    0    0 -0.75607594355E+01  0.22490772226E+03 -0.22012471301E+03  0.33869584652E+03  0.12497735215E+03 0.  0.
          2    1    1    2  501    0  0.85874456658E+01 -0.12772677964E+03 -0.88965534510E+02  0.15589336353E+03  0.00000000000E+00 0. -1.
          1    1    1    2  502    0 -0.10266862304E+01 -0.97180942621E+02  0.44590603951E+03  0.45637417298E+03  0.00000000000E+00 0. -1.
         22    1    3    3    0    0 -0.26273801344E+02  0.12081405422E+03 -0.40236624563E+02  0.13002051489E+03  0.00000000000E+00 0. -1.
         22    1    3    3    0    0  0.18713041909E+02  0.10409366804E+03 -0.17988808845E+03  0.20867533163E+03  0.00000000000E+00 0. -1.
</event>
<event>
 7    1  0.5889087E-006  0.1463703E+03  0.7818608E-02  0.1350651E+00
          2   -1    0    0  502    0  0.00000000000E+00  0.00000000000E+00  0.80564234881E+03  0.80564234881E+03  0.00000000000E+00 0. -1.
          1   -1    0    0  501    0 -0.00000000000E+00 -0.00000000000E+00 -0.26248435781E+03  0.26248435781E+03  0.00000000000E+00 0. -1.
         25    2    1    2    0    0 -0.15547064911E+03 -0.12072555861E+02 -0.81939760122E+02  0.21599455674E+03  0.12499061929E+03 0.  0.
          2    1    1    2  501    0  0.11107709156E+02  0.34518109609E+02 -0.10316884675E+03  0.10935580475E+03  0.00000000000E+00 0. -1.
          1    1    1    2  502    0  0.14436293996E+03 -0.22445553748E+02  0.72826659787E+03  0.74277634513E+03  0.00000000000E+00 0. -1.
         22    1    3    3    0    0 -0.94915399793E+02 -0.42487553558E+02  0.69473399884E+01  0.10422279433E+03  0.00000000000E+00 0. -1.
         22    1    3    3    0    0 -0.60555249319E+02  0.30414997698E+02 -0.88887100111E+02  0.11177176241E+03  0.00000000000E+00 0. -1.
</event>
<event>
 7    1  0.5889087E-006  0.4747420E+02  0.7818608E-02  0.1494849E+00
          2   -1    0    0  502    0  0.00000000000E+00  0.00000000000E+00  0.10349394054E+04  0.10349394054E+04  0.00000000000E+00 0. -1.
          1   -1    0    0  501    0 -0.00000000000E+00 -0.00000000000E+00 -0.31411041362E+02  0.31411041362E+02  0.00000000000E+00 0. -1.
         25    2    1    2    0    0  0.74996504743E+01 -0.13735439056E+02  0.44816936371E+03  0.46553850219E+03  0.12500164562E+03 0.  0.
          2    1    1    2  501    0  0.56487353604E+01 -0.36502036877E+02 -0.56835493951E+01  0.37371240829E+02  0.00000000000E+00 0. -1.
          1    1    1    2  502    0 -0.13148385835E+02  0.50237475933E+02  0.56104254976E+03  0.56344070379E+03  0.00000000000E+00 0. -1.
         22    1    3    3    0    0  0.34336404562E+02  0.42846982343E+02  0.29491460369E+03  0.29998245956E+03  0.00000000000E+00 0.  1.
         22    1    3    3    0    0 -0.26836754088E+02 -0.56582421399E+02  0.15325476002E+03  0.16555604263E+03  0.00000000000E+00 0.  1.
</event>
<event>
 7    1  0.5889087E-006  0.1622388E+03  0.7818608E-02  0.1277456E+00
          2   -1    0    0  502    0  0.00000000000E+00  0.00000000000E+00  0.69640707044E+03  0.69640707044E+03  0.00000000000E+00 0. -1.
          1   -1    0    0  501    0 -0.00000000000E+00 -0.00000000000E+00 -0.26741451938E+04  0.26741451938E+04  0.00000000000E+00 0. -1.
         25    2    1    2    0    0  0.10569098615E+01 -0.18206388920E+03 -0.60385850117E+03  0.64297883159E+03  0.12501324581E+03 0.  0.
          2    1    1    2  501    0  0.54204584939E+02  0.15113289758E+03 -0.20460932887E+04  0.20523832575E+04  0.00000000000E+00 0. -1.
          1    1    1    2  502    0 -0.55261494800E+02  0.30930991621E+02  0.67221366653E+03  0.67519017508E+03  0.00000000000E+00 0. -1.
         22    1    3    3    0    0 -0.67646287139E+01 -0.13570984439E+03 -0.56752647595E+03  0.58356595426E+03  0.00000000000E+00 0.  1.
         22    1    3    3    0    0  0.78215385754E+01 -0.46354044811E+02 -0.36332025218E+02  0.59412877329E+02  0.00000000000E+00 0.  1.
</event>
<event>
 7    1  0.5889087E-006  0.8097361E+02  0.7818608E-02  0.1396932E+00
          2   -1    0    0  502    0  0.00000000000E+00  0.00000000000E+00  0.15466480412E+03  0.15466480412E+03  0.00000000000E+00 0. -1.
          1   -1    0    0  501    0 -0.00000000000E+00 -0.00000000000E+00 -0.38321595795E+03  0.38321595795E+03  0.00000000000E+00 0. -1.
         25    2    1    2    0    0 -0.43202550385E+02 -0.85886812390E+02  0.15369590897E+02  0.15844445820E+03  0.12500166842E+03 0.  0.
          2    1    1    2  501    0  0.44174584717E+02  0.73257530902E+01 -0.28656485922E+03  0.29004220233E+03  0.00000000000E+00 0. -1.
          1    1    1    2  502    0 -0.97203433289E+00  0.78561059300E+02  0.42644114486E+02  0.89394101536E+02  0.00000000000E+00 0. -1.
         22    1    3    3    0    0 -0.54839508134E+00 -0.10696273617E+03 -0.40884551166E+01  0.10704224928E+03  0.00000000000E+00 0.  1.
         22    1    3    3    0    0 -0.42654155303E+02  0.21075923776E+02  0.19458046014E+02  0.51402208925E+02  0.00000000000E+00 0.  1.
</event>
<event>
 7    1  0.5889087E-006  0.9203811E+02  0.7818608E-02  0.1349857E+00
          2   -1    0    0  502    0  0.00000000000E+00  0.00000000000E+00  0.17002647936E+03  0.17002647936E+03  0.00000000000E+00 0. -1.
          1   -1    0    0  501    0 -0.00000000000E+00 -0.00000000000E+00 -0.45541473628E+03  0.45541473628E+03  0.00000000000E+00 0. -1.
         25    2    1    2    0    0  0.34872402633E+02 -0.29931017099E+02 -0.39685008714E+00  0.13317629185E+03  0.12499526779E+03 0.  0.
          2    1    1    2  501    0 -0.40675997997E+02  0.87699254471E+02 -0.37383515017E+03  0.38613263984E+03  0.00000000000E+00 0. -1.
          1    1    1    2  502    0  0.58035953632E+01 -0.57768237372E+02  0.88843743333E+02  0.10613228396E+03  0.00000000000E+00 0. -1.
         22    1    3    3    0    0  0.65015148501E+02 -0.60185600725E+02  0.10178713166E+02  0.89178934009E+02  0.00000000000E+00 0.  1.
         22    1    3    3    0    0 -0.30142745868E+02  0.30254583626E+02 -0.10575563253E+02  0.43997357841E+02  0.00000000000E+00 0.  1.
</event>
<event>
 7    1  0.5889087E-006  0.4700428E+02  0.7818608E-02  0.1463849E+00
          2   -1    0    0  502    0  0.00000000000E+00  0.00000000000E+00  0.24412840208E+02  0.24412840208E+02  0.00000000000E+00 0. -1.
          1   -1    0    0  501    0 -0.00000000000E+00 -0.00000000000E+00 -0.12454138550E+04  0.12454138550E+04  0.00000000000E+00 0. -1.
         25    2    1    2    0    0 -0.74438961695E+01 -0.37880525673E+01 -0.59224735734E+03  0.60535471947E+03  0.12501057230E+03 0.  0.
          2    1    1    2  501    0  0.52846297004E+02 -0.83784576131E+01 -0.61235661159E+03  0.61468979934E+03  0.00000000000E+00 0. -1.
          1    1    1    2  502    0 -0.45402400835E+02  0.12166510180E+02 -0.16397045844E+02  0.49782176368E+02  0.00000000000E+00 0. -1.
         22    1    3    3    0    0  0.35185224151E+02 -0.27350725349E+02 -0.49081173766E+03  0.49283082695E+03  0.00000000000E+00 0.  1.
         22    1    3    3    0    0 -0.42629120321E+02  0.23562672782E+02 -0.10143561968E+03  0.11252389252E+03  0.00000000000E+00 0.  1.
</event>
<event>
 7    1  0.5889087E-006  0.3734726E+03  0.7818608E-02  0.1092747E+00
          2   -1    0    0  502    0  0.00000000000E+00  0.00000000000E+00  0.40809935807E+04  0.40809935807E+04  0.00000000000E+00 0. -1.
          1   -1    0    0  501    0 -0.00000000000E+00 -0.00000000000E+00 -0.65202058469E+03  0.65202058469E+03  0.00000000000E+00 0. -1.
         25    2    1    2    0    0  0.16010837137E+03 -0.51253050972E+03  0.11399962210E+04  0.12663096541E+04  0.12500616904E+03 0.  0.
          2    1    1    2  501    0 -0.14316603089E+03  0.16463887505E+03 -0.55766875455E+03  0.59882961799E+03  0.00000000000E+00 0. -1.
          1    1    1    2  502    0 -0.16942340479E+02  0.34789163467E+03  0.28466455296E+04  0.28678748933E+04  0.00000000000E+00 0. -1.
         22    1    3    3    0    0  0.15481609488E+03 -0.49079725658E+03  0.11302704978E+04  0.12419184226E+04  0.00000000000E+00 0.  1.
         22    1    3    3    0    0  0.52922764891E+01 -0.21733253146E+02  0.97257232147E+01  0.24391231515E+02  0.00000000000E+00 0.  1.
</event>
<event>
 7    1  0.5889087E-006  0.2998167E+03  0.7818608E-02  0.1330460E+00
          2   -1    0    0  502    0  0.00000000000E+00  0.00000000000E+00  0.11228971740E+04  0.11228971740E+04  0.00000000000E+00 0. -1.
          1   -1    0    0  501    0 -0.00000000000E+00 -0.00000000000E+00 -0.64665834325E+03  0.64665834325E+03  0.00000000000E+00 0. -1.
         25    2    1    2    0    0  0.59111191090E-01 -0.30460547547E+03 -0.40627926803E+03  0.52294520482E+03  0.12499737768E+03 0.  0.
          2    1    1    2  501    0 -0.15413801943E+02  0.29015758470E+03 -0.65909746686E+02  0.29794815649E+03  0.00000000000E+00 0. -1.
          1    1    1    2  502    0  0.15354690752E+02  0.14447890770E+02  0.94842784549E+03  0.94866215598E+03  0.00000000000E+00 0. -1.
         22    1    3    3    0    0  0.53189086156E+02 -0.11871515125E+03 -0.11671417655E+03  0.17477003471E+03  0.00000000000E+00 0. -1.
         22    1    3    3    0    0 -0.53129974965E+02 -0.18589032421E+03 -0.28956509148E+03  0.34817517011E+03  0.00000000000E+00 0. -1.
</event>
<event>
 7    1  0.5889087E-006  0.8935326E+02  0.7818608E-02  0.1330012E+00
          2   -1    0    0  502    0  0.00000000000E+00  0.00000000000E+00  0.15230951698E+03  0.15230951698E+03  0.00000000000E+00 0. -1.
          1   -1    0    0  501    0 -0.00000000000E+00 -0.00000000000E+00 -0.21326010709E+04  0.21326010709E+04  0.00000000000E+00 0. -1.
         25    2    1    2    0    0 -0.13063703589E+02 -0.51082836110E+02 -0.70245307977E+03  0.71543321205E+03  0.12499694045E+03 0.  0.
          2    1    1    2  501    0 -0.69578275580E+02  0.14252435025E+02 -0.14086418367E+04  0.14104311725E+04  0.00000000000E+00 0. -1.
          1    1    1    2  502    0  0.82641979170E+02  0.36830401085E+02  0.13080336249E+03  0.15904620336E+03  0.00000000000E+00 0. -1.
         22    1    3    3    0    0 -0.13760649603E+02 -0.48271389525E+02 -0.70767973581E+03  0.70945760338E+03  0.00000000000E+00 0.  1.
         22    1    3    3    0    0  0.69694601391E+00 -0.28114465852E+01  0.52266560333E+01  0.59756086668E+01  0.00000000000E+00 0.  1.
</event>
<event>
 7    1  0.5889087E-006  0.8576538E+02  0.7818608E-02  0.1373297E+00
          2   -1    0    0  502    0  0.00000000000E+00  0.00000000000E+00  0.67687543633E+02  0.67687543633E+02  0.00000000000E+00 0. -1.
          1   -1    0    0  501    0 -0.00000000000E+00 -0.00000000000E+00 -0.82914899818E+03  0.82914899818E+03  0.00000000000E+00 0. -1.
         25    2    1    2    0    0  0.35895387738E+02 -0.72500452648E+02 -0.47762179501E+03  0.50029306787E+03  0.12500312076E+03 0.  0.
          2    1    1    2  501    0  0.40713273455E+02  0.31028810124E+02 -0.30304496347E+03  0.30733793710E+03  0.00000000000E+00 0. -1.
          1    1    1    2  502    0 -0.76608661193E+02  0.41471642524E+02  0.19205303938E+02  0.89205536839E+02  0.00000000000E+00 0. -1.
         22    1    3    3    0    0  0.20864339280E+02 -0.40691311499E+02 -0.45746766165E+03  0.45974750128E+03  0.00000000000E+00 0. -1.
         22    1    3    3    0    0  0.15031048458E+02 -0.31809141150E+02 -0.20154133364E+02  0.40545566589E+02  0.00000000000E+00 0. -1.
</event>
<event>
 7    1  0.5889087E-006  0.6415133E+02  0.7818608E-02  0.1490489E+00
          2   -1    0    0  502    0  0.00000000000E+00  0.00000000000E+00  0.73404560035E+03  0.73404560035E+03  0.00000000000E+00 0. -1.
          1   -1    0    0  501    0 -0.00000000000E+00 -0.00000000000E+00 -0.40359647005E+03  0.40359647005E+03  0.00000000000E+00 0. -1.
         25    2    1    2    0    0 -0.35231099440E+02 -0.87469897060E+01 -0.13588780914E+03  0.18817175829E+03  0.12500149498E+03 0.  0.
          2    1    1    2  501    0 -0.26579458122E+02 -0.93441534871E+01 -0.23927363374E+03  0.24092665399E+03  0.00000000000E+00 0. -1.
          1    1    1    2  502    0  0.61810557562E+02  0.18091143193E+02  0.70561057318E+03  0.70854365813E+03  0.00000000000E+00 0. -1.
         22    1    3    3    0    0 -0.37712542072E+02 -0.25007079652E+02 -0.15586143106E+03  0.16229718283E+03  0.00000000000E+00 0. -1.
         22    1    3    3    0    0  0.24814426320E+01  0.16260089946E+02  0.19973621920E+02  0.25874575459E+02  0.00000000000E+00 0. -1.
</event>
<event>
 7    1  0.5889087E-006  0.1331616E+03  0.7818608E-02  0.1343443E+00
          2   -1    0    0  502    0  0.00000000000E+00  0.00000000000E+00  0.20424729771E+04  0.20424729771E+04  0.00000000000E+00 0. -1.
          1   -1    0    0  501    0 -0.00000000000E+00 -0.00000000000E+00 -0.46495331628E+03  0.46495331628E+03  0.00000000000E+00 0. -1.
         25    2    1    2    0    0 -0.15686243372E+02 -0.16095343076E+03 -0.98516419599E+01  0.20463212844E+03  0.12500075214E+03 0.  0.
          2    1    1    2  501    0 -0.24546403214E+02  0.34569722068E+02 -0.35418462668E+03  0.35671324810E+03  0.00000000000E+00 0. -1.
          1    1    1    2  502    0  0.40232646587E+02  0.12638370869E+03  0.19415559294E+04  0.19460809168E+04  0.00000000000E+00 0. -1.
         22    1    3    3    0    0  0.34753784483E+02 -0.56801429357E+02  0.41031481503E+02  0.78216432975E+02  0.00000000000E+00 0.  1.
         22    1    3    3    0    0 -0.50440027856E+02 -0.10415200140E+03 -0.50883123463E+02  0.12641569546E+03  0.00000000000E+00 0.  1.
</event>
<event>
 7    1  0.5889087E-006  0.2165817E+03  0.7818608E-02  0.1303629E+00
          2   -1    0    0  502    0  0.00000000000E+00  0.00000000000E+00  0.26353764058E+04  0.26353764058E+04  0.00000000000E+00 0. -1.
          1   -1    0    0  501    0 -0.00000000000E+00 -0.00000000000E+00 -0.19764590581E+03  0.19764590581E+03  0.00000000000E+00 0. -1.
         25    2    1    2    0    0 -0.57742570668E+02 -0.17552610479E+03  0.41154778895E+03  0.46812365558E+03  0.12499822557E+03 0.  0.
          2    1    1    2  501    0  0.71729466804E+02  0.20992474000E+03 -0.96478683048E+02  0.24191248243E+03  0.00000000000E+00 0. -1.
          1    1    1    2  502    0 -0.13986896136E+02 -0.34398635205E+02  0.21226613941E+04  0.21229861737E+04  0.00000000000E+00 0. -1.
         22    1    3    3    0    0 -0.35002943342E+02 -0.79086535899E+02  0.32581301246E+03  0.33709643322E+03  0.00000000000E+00 0. -1.
         22    1    3    3    0    0 -0.22739627326E+02 -0.96439568894E+02  0.85734776488E+02  0.13102722236E+03  0.00000000000E+00 0. -1.
</event>
<event>
 7    1  0.5889087E-006  0.2281504E+03  0.7818608E-02  0.1190280E+00
          2   -1    0    0  502    0  0.00000000000E+00  0.00000000000E+00  0.65185026102E+03  0.65185026102E+03  0.00000000000E+00 0. -1.
          1   -1    0    0  501    0 -0.00000000000E+00 -0.00000000000E+00 -0.49945231053E+03  0.49945231053E+03  0.00000000000E+00 0. -1.
         25    2    1    2    0    0  0.14538025450E+03  0.32932865304E+02  0.10466229175E+03  0.22090348450E+03  0.12499664849E+03 0.  0.
          2    1    1    2  501    0 -0.24581361722E+03  0.12567135787E+02 -0.39979433914E+03  0.46948672071E+03  0.00000000000E+00 0. -1.
          1    1    1    2  502    0  0.10043336272E+03 -0.45500001091E+02  0.44752999788E+03  0.46091236635E+03  0.00000000000E+00 0. -1.
         22    1    3    3    0    0  0.55664054453E+02  0.33243125691E+02 -0.19513933517E+02  0.67708093793E+02  0.00000000000E+00 0. -1.
         22    1    3    3    0    0  0.89716200046E+02 -0.31026038716E+00  0.12417622526E+03  0.15319539070E+03  0.00000000000E+00 0. -1.
</event>
<event>
 7    1  0.5889087E-006  0.3962459E+02  0.7818608E-02  0.1524821E+00
          2   -1    0    0  502    0  0.00000000000E+00  0.00000000000E+00  0.88448242291E+03  0.88448242291E+03  0.00000000000E+00 0. -1.
          1   -1    0    0  501    0 -0.00000000000E+00 -0.00000000000E+00 -0.92900790912E+03  0.92900790912E+03  0.00000000000E+00 0. -1.
         25    2    1    2    0    0 -0.41118812328E+02 -0.63210299740E+02  0.18270544912E+02  0.14712587034E+03  0.12500364071E+03 0.  0.
          2    1    1    2  501    0  0.19549338233E+02  0.34243242306E+02 -0.86372353407E+03  0.86462310839E+03  0.00000000000E+00 0. -1.
          1    1    1    2  502    0  0.21569474095E+02  0.28967057434E+02  0.80092750294E+03  0.80174135330E+03  0.00000000000E+00 0. -1.
         22    1    3    3    0    0 -0.58985937729E+02 -0.20624454745E+02 -0.38919971636E+02  0.73617071223E+02  0.00000000000E+00 0. -1.
         22    1    3    3    0    0  0.17867125401E+02 -0.42585844995E+02  0.57190516548E+02  0.73508799113E+02  0.00000000000E+00 0. -1.
</event>
<event>
 7    1  0.5889087E-006  0.1166642E+03  0.7818608E-02  0.1371177E+00
          2   -1    0    0  502    0  0.00000000000E+00  0.00000000000E+00  0.24819787333E+04  0.24819787333E+04  0.00000000000E+00 0. -1.
          1   -1    0    0  501    0 -0.00000000000E+00 -0.00000000000E+00 -0.99147355097E+02  0.99147355097E+02  0.00000000000E+00 0. -1.
         25    2    1    2    0    0  0.14661850798E+03  0.13375299960E+01  0.29342263198E+03  0.35102631709E+03  0.12499543375E+03 0.  0.
          2    1    1    2  501    0 -0.33258826936E+02  0.18984603394E+02 -0.63477834703E+02  0.74135013548E+02  0.00000000000E+00 0. -1.
          1    1    1    2  502    0 -0.11335968105E+03 -0.20322133390E+02  0.21528865810E+04  0.21559647578E+04  0.00000000000E+00 0. -1.
         22    1    3    3    0    0 -0.12396761254E+02 -0.21011340439E+02  0.81903755692E+02  0.85459822800E+02  0.00000000000E+00 0.  1.
         22    1    3    3    0    0  0.15901526924E+03  0.22348870435E+02  0.21151887629E+03  0.26556649429E+03  0.00000000000E+00 0.  1.
</event>
<event>
 7    1  0.5889087E-006  0.9748279E+02  0.7818608E-02  0.1365632E+00
          2   -1    0    0  502    0  0.00000000000E+00  0.00000000000E+00  0.63640909018E+03  0.63640909018E+03  0.00000000000E+00 0. -1.
          1   -1    0    0  501    0 -0.00000000000E+00 -0.00000000000E+00 -0.17480629192E+04  0.17480629192E+04  0.00000000000E+00 0. -1.
         25    2    1    2    0    0  0.11999666649E+03 -0.64588731143E+02  0.10616079758E+03  0.21322808020E+03  0.12500078034E+03 0.  0.
          2    1    1    2  501    0 -0.72012333157E+02  0.65252437476E+02 -0.16919237697E+04  0.16947122762E+04  0.00000000000E+00 0. -1.
          1    1    1    2  502    0 -0.47984333334E+02 -0.66370633305E+00  0.47410914306E+03  0.47653165297E+03  0.00000000000E+00 0. -1.
         22    1    3    3    0    0  0.23599661885E+02 -0.76007353941E+02  0.79660464786E+02  0.11260484689E+03  0.00000000000E+00 0. -1.
         22    1    3    3    0    0  0.96397004605E+02  0.11418622798E+02  0.26500332799E+02  0.10062323331E+03  0.00000000000E+00 0. -1.
</event>
<event>
 7    1  0.5889087E-006  0.4400674E+02  0.7818608E-02  0.1557742E+00
          2   -1    0    0  502    0  0.00000000000E+00  0.00000000000E+00  0.27344786429E+02  0.27344786429E+02  0.00000000000E+00 0. -1.
          1   -1    0    0  501    0 -0.00000000000E+00 -0.00000000000E+00 -0.14761821069E+04  0.14761821069E+04  0.00000000000E+00 0. -1.
         25    2    1    2    0    0  0.71370915719E+01  0.48240256286E+02 -0.20718886365E+03  0.24683861791E+03  0.12499607061E+03 0.  0.
          2    1    1    2  501    0 -0.28773727662E+02 -0.33366901394E+02 -0.12245797464E+04  0.12253721201E+04  0.00000000000E+00 0. -1.
          1    1    1    2  502    0  0.21636636091E+02 -0.14873354892E+02 -0.17068710451E+02  0.31316155312E+02  0.00000000000E+00 0. -1.
         22    1    3    3    0    0  0.36445662912E+02  0.47584873017E+02 -0.20904091637E+03  0.21746427569E+03  0.00000000000E+00 0. -1.
         22    1    3    3    0    0 -0.29308571340E+02  0.65538326884E+00  0.18520527257E+01  0.29374342214E+02  0.00000000000E+00 0. -1.
</event>
<event>
 7    1  0.5889087E-006  0.2898569E+02  0.7818608E-02  0.1672222E+00
          2   -1    0    0  502    0  0.00000000000E+00  0.00000000000E+00  0.15014746320E+04  0.15014746320E+04  0.00000000000E+00 0. -1.
          1   -1    0    0  501    0 -0.00000000000E+00 -0.00000000000E+00 -0.13812076228E+03  0.13812076228E+03  0.00000000000E+00 0. -1.
         25    2    1    2    0    0 -0.14927096147E+02  0.43393338301E+02  0.51790272445E+02  0.14287534714E+03  0.12500132996E+03 0.  0.
          2    1    1    2  501    0  0.16781439351E+02 -0.23213517020E+02 -0.90287587931E+02  0.94722397634E+02  0.00000000000E+00 0. -1.
          1    1    1    2  502    0 -0.18543432041E+01 -0.20179821280E+02  0.14018511852E+04  0.14019976496E+04  0.00000000000E+00 0. -1.
         22    1    3    3    0    0 -0.40561517464E+02  0.76704112857E+02  0.51382117933E+02  0.10084086310E+03  0.00000000000E+00 0.  1.
         22    1    3    3    0    0  0.25634421318E+02 -0.33310774556E+02  0.40815451200E+00  0.42034484033E+02  0.00000000000E+00 0.  1.
</event>
<event>
 7    1  0.5889087E-006  0.8700710E+02  0.7818608E-02  0.1403505E+00
          2   -1    0    0  502    0  0.00000000000E+00  0.00000000000E+00  0.78396566849E+03  0.78396566849E+03  0.00000000000E+00 0. -1.
          1   -1    0    0  501    0 -0.00000000000E+00 -0.00000000000E+00 -0.11183944582E+04  0.11183944582E+04  0.00000000000E+00 0. -1.
         25    2    1    2    0    0  0.98728282600E+02  0.58411123102E+02  0.16276870244E+02  0.17043578324E+03  0.12499714644E+03 0.  0.
          2    1    1    2  501    0 -0.59427350302E+02 -0.62932370566E+02 -0.10389472997E+04  0.10425466823E+04  0.00000000000E+00 0. -1.
          1    1    1    2  502    0 -0.39300932298E+02  0.45212474636E+01  0.68824163976E+03  0.68937766112E+03  0.00000000000E+00 0. -1.
         22    1    3    3    0    0  0.10660303562E+03  0.50741467193E+02  0.54954541103E+02  0.13022636171E+03  0.00000000000E+00 0.  1.
         22    1    3    3    0    0 -0.78747530217E+01  0.76696559091E+01 -0.38677670860E+02  0.40209421533E+02  0.00000000000E+00 0.  1.
</event>
<event>
 7    1  0.5889087E-006  0.1178966E+03  0.7818608E-02  0.1370488E+00
          2   -1    0    0  502    0  0.00000000000E+00  0.00000000000E+00  0.23468244055E+03  0.23468244055E+03  0.00000000000E+00 0. -1.
          1   -1    0    0  501    0 -0.00000000000E+00 -0.00000000000E+00 -0.89438861720E+03  0.89438861720E+03  0.00000000000E+00 0. -1.
         25    2    1    2    0    0 -0.82740035048E+02  0.36558201467E+02  0.29044453778E+01  0.15432326198E+03  0.12499927156E+03 0.  0.
          2    1    1    2  501    0 -0.29006385617E+02  0.24721370185E+02 -0.79212632069E+03  0.79304263724E+03  0.00000000000E+00 0. -1.
          1    1    1    2  502    0  0.11174642066E+03 -0.61279571653E+02  0.12951569866E+03  0.18170515852E+03  0.00000000000E+00 0. -1.
         22    1    3    3    0    0 -0.49854343278E+02 -0.12886990290E+02  0.54989424046E+02  0.75335030493E+02  0.00000000000E+00 0. -1.
         22    1    3    3    0    0 -0.32885691770E+02  0.49445191757E+02 -0.52084978668E+02  0.78988231490E+02  0.00000000000E+00 0. -1.
</event>
<event>
 7    1  0.5889087E-006  0.3889975E+02  0.7818608E-02  0.1542970E+00
          2   -1    0    0  502    0  0.00000000000E+00  0.00000000000E+00  0.37179172071E+03  0.37179172071E+03  0.00000000000E+00 0. -1.
          1   -1    0    0  501    0 -0.00000000000E+00 -0.00000000000E+00 -0.27232478180E+03  0.27232478180E+03  0.00000000000E+00 0. -1.
         25    2    1    2    0    0 -0.30626652891E+02 -0.14428835556E+02  0.26327939607E+03  0.29340655245E+03  0.12500072584E+03 0.  0.
          2    1    1    2  501    0  0.81637943999E+01  0.38134119865E+02 -0.25286681907E+03  0.25585637929E+03  0.00000000000E+00 0. -1.
          1    1    1    2  502    0  0.22462858491E+02 -0.23705284308E+02  0.89054361898E+02  0.94853570775E+02  0.00000000000E+00 0. -1.
         22    1    3    3    0    0  0.20872698219E+02  0.40434926683E+02  0.51850513772E+02  0.68986437836E+02  0.00000000000E+00 0. -1.
         22    1    3    3    0    0 -0.51499351110E+02 -0.54863762239E+02  0.21142888230E+03  0.22442011461E+03  0.00000000000E+00 0. -1.
</event>
<event>
 7    1  0.5889087E-006  0.4850696E+02  0.7818608E-02  0.1478778E+00
          2   -1    0    0  502    0  0.00000000000E+00  0.00000000000E+00  0.11424230161E+03  0.11424230161E+03  0.00000000000E+00 0. -1.
          1   -1    0    0  501    0 -0.00000000000E+00 -0.00000000000E+00 -0.12218705351E+04  0.12218705351E+04  0.00000000000E+00 0. -1.
         25    2    1    2    0    0 -0.45781433525E+02  0.69530422845E+02 -0.30845661231E+02  0.15331893651E+03  0.12499928848E+03 0.  0.
          2    1    1    2  501    0  0.12444738288E+02 -0.46615720322E+02 -0.11214751343E+04  0.11225125272E+04  0.00000000000E+00 0. -1.
          1    1    1    2  502    0  0.33336695237E+02 -0.22914702523E+02  0.44692561973E+02  0.60281373050E+02  0.00000000000E+00 0. -1.
         22    1    3    3    0    0 -0.88548298773E+02  0.52762443205E+02 -0.30082049490E+02  0.10737600444E+03  0.00000000000E+00 0.  1.
         22    1    3    3    0    0  0.42766865247E+02  0.16767979640E+02 -0.76361174159E+00  0.45942932070E+02  0.00000000000E+00 0.  1.
</event>
<event>
 7    1  0.5889087E-006  0.4181205E+02  0.7818608E-02  0.1510585E+00
          2   -1    0    0  502    0  0.00000000000E+00  0.00000000000E+00  0.96401038149E+03  0.96401038149E+03  0.00000000000E+00 0. -1.
          1   -1    0    0  501    0 -0.00000000000E+00 -0.00000000000E+00 -0.48565489511E+03  0.48565489511E+03  0.00000000000E+00 0. -1.
         25    2    1    2    0    0  0.32376895174E+02  0.68047861692E+02 -0.24259176961E+02  0.14795973311E+03  0.12499920054E+03 0.  0.
          2    1    1    2  501    0 -0.27608762017E+02 -0.30695611079E+02 -0.39808449612E+03  0.40021960263E+03  0.00000000000E+00 0. -1.
          1    1    1    2  502    0 -0.47681331566E+01 -0.37352250613E+02  0.90069915946E+03  0.90148594086E+03  0.00000000000E+00 0. -1.
         22    1    3    3    0    0 -0.10655063883E+02  0.10999911954E+02 -0.64265604256E+02  0.66065091687E+02  0.00000000000E+00 0.  1.
         22    1    3    3    0    0  0.43031959057E+02  0.57047949738E+02  0.40006427295E+02  0.81894641427E+02  0.00000000000E+00 0.  1.
</event>
<event>
 7    1  0.5889087E-006  0.9698838E+02  0.7818608E-02  0.1376040E+00
          2   -1    0    0  502    0  0.00000000000E+00  0.00000000000E+00  0.17263383024E+04  0.17263383024E+04  0.00000000000E+00 0. -1.
          1   -1    0    0  501    0 -0.00000000000E+00 -0.00000000000E+00 -0.29323005666E+03  0.29323005666E+03  0.00000000000E+00 0. -1.
         25    2    1    2    0    0 -0.12025445506E+03 -0.73503957539E+02 -0.17178205043E+03  0.25494970492E+03  0.12500525371E+03 0.  0.
          2    1    1    2  501    0  0.37198555329E+02  0.23977157105E+02 -0.72231432464E+02  0.84711371239E+02  0.00000000000E+00 0. -1.
          1    1    1    2  502    0  0.83055899730E+02  0.49526800433E+02  0.16771217286E+04  0.16799072829E+04  0.00000000000E+00 0. -1.
         22    1    3    3    0    0 -0.11704171351E+03 -0.10461635047E+03 -0.14667412233E+03  0.21484096827E+03  0.00000000000E+00 0. -1.
         22    1    3    3    0    0 -0.32127415492E+01  0.31112392932E+02 -0.25107928103E+02  0.40108736652E+02  0.00000000000E+00 0. -1.
</event>
<event>
 7    1  0.5889087E-006  0.1858604E+03  0.7818608E-02  0.1221031E+00
          2   -1    0    0  502    0  0.00000000000E+00  0.00000000000E+00  0.29804012903E+04  0.29804012903E+04  0.00000000000E+00 0. -1.
          1   -1    0    0  501    0 -0.00000000000E+00 -0.00000000000E+00 -0.24173110047E+04  0.24173110047E+04  0.00000000000E+00 0. -1.
         25    2    1    2    0    0 -0.18383762477E+02  0.15493569201E+03 -0.10112578565E+04  0.10308305409E+04  0.12500448119E+03 0.  0.
          2    1    1    2  501    0  0.96211404952E+02  0.14010919059E+02 -0.13916572017E+04  0.13950493566E+04  0.00000000000E+00 0. -1.
          1    1    1    2  502    0 -0.77827642475E+02 -0.16894661107E+03  0.29660053438E+04  0.29718323975E+04  0.00000000000E+00 0. -1.
         22    1    3    3    0    0 -0.53719332526E+02  0.62665934390E+02 -0.25205571783E+03  0.26522607510E+03  0.00000000000E+00 0. -1.
         22    1    3    3    0    0  0.35335570049E+02  0.92269757621E+02 -0.75920213871E+03  0.76560446584E+03  0.00000000000E+00 0. -1.
</event>
<event>
 7    1  0.5889087E-006  0.3556029E+03  0.7818608E-02  0.1159999E+00
          2   -1    0    0  502    0  0.00000000000E+00  0.00000000000E+00  0.73566049296E+03  0.73566049296E+03  0.00000000000E+00 0. -1.
          1   -1    0    0  501    0 -0.00000000000E+00 -0.00000000000E+00 -0.12900239853E+04  0.12900239853E+04  0.00000000000E+00 0. -1.
         25    2    1    2    0    0  0.83855692732E+02  0.43329021677E+03 -0.16128950030E+03  0.48622028512E+03  0.12499469430E+03 0.  0.
          2    1    1    2  501    0 -0.10908671038E+02 -0.99115881289E+02 -0.91228241937E+03  0.91771573470E+03  0.00000000000E+00 0. -1.
          1    1    1    2  502    0 -0.72947021694E+02 -0.33417433548E+03  0.51920842737E+03  0.62174845839E+03  0.00000000000E+00 0. -1.
         22    1    3    3    0    0  0.34680902208E+02  0.99346726643E+02 -0.95961650200E+02  0.14241199171E+03  0.00000000000E+00 0.  1.
         22    1    3    3    0    0  0.49174790523E+02  0.33394349012E+03 -0.65327850099E+02  0.34380829341E+03  0.00000000000E+00 0.  1.
</event>
<event>
 7    1  0.5889087E-006  0.8237465E+02  0.7818608E-02  0.1391794E+00
          2   -1    0    0  502    0  0.00000000000E+00  0.00000000000E+00  0.32751834068E+03  0.32751834068E+03  0.00000000000E+00 0. -1.
          1   -1    0    0  501    0 -0.00000000000E+00 -0.00000000000E+00 -0.23825236534E+03  0.23825236534E+03  0.00000000000E+00 0. -1.
         25    2    1    2    0    0 -0.39851176375E+02 -0.17841057440E+02 -0.67225524096E+02  0.14849841225E+03  0.12500435097E+03 0.  0.
          2    1    1    2  501    0 -0.44630573939E+02  0.10546233626E+02 -0.11979134048E+03  0.12826954599E+03  0.00000000000E+00 0. -1.
          1    1    1    2  502    0  0.84481750314E+02  0.72948238132E+01  0.27628283992E+03  0.28900274778E+03  0.00000000000E+00 0. -1.
         22    1    3    3    0    0 -0.51630253820E+02  0.26475323463E+02  0.98120610099E+01  0.58846430676E+02  0.00000000000E+00 0. -1.
         22    1    3    3    0    0  0.11779077445E+02 -0.44316380903E+02 -0.77037585106E+02  0.89651981577E+02  0.00000000000E+00 0. -1.
</event>
<event>
 7    1  0.5889087E-006  0.1077085E+03  0.7818608E-02  0.1383842E+00
          2   -1    0    0  502    0  0.00000000000E+00  0.00000000000E+00  0.13288554697E+04  0.13288554697E+04  0.00000000000E+00 0. -1.
          1   -1    0    0  501    0 -0.00000000000E+00 -0.00000000000E+00 -0.19711007425E+04  0.19711007425E+04  0.00000000000E+00 0. -1.
         25    2    1    2    0    0  0.86165841038E+02  0.54815872521E+02 -0.13209727495E+04  0.13307979781E+04  0.12499968610E+03 0.  0.
          2    1    1    2  501    0 -0.11294114681E+03 -0.28711178908E+02 -0.63968628505E+03  0.65021425524E+03  0.00000000000E+00 0. -1.
          1    1    1    2  502    0  0.26775305771E+02 -0.26104693613E+02  0.13184137618E+04  0.13189439788E+04  0.00000000000E+00 0. -1.
         22    1    3    3    0    0  0.54589906731E+02  0.91626536953E+02 -0.10604102713E+04  0.10657604908E+04  0.00000000000E+00 0.  1.
         22    1    3    3    0    0  0.31575934307E+02 -0.36810664432E+02 -0.26056247821E+03  0.26503748734E+03  0.00000000000E+00 0.  1.
</event>
<event>
 7    1  0.5889087E-006  0.8409286E+02  0.7818608E-02  0.1377727E+00
          2   -1    0    0  502    0  0.00000000000E+00  0.00000000000E+00  0.11247622836E+04  0.11247622836E+04  0.00000000000E+00 0. -1.
          1   -1    0    0  501    0 -0.00000000000E+00 -0.00000000000E+00 -0.41195109639E+03  0.41195109639E+03  0.00000000000E+00 0. -1.
         25    2    1    2    0    0 -0.32181175916E+02 -0.52622612791E+02  0.93567830947E+02  0.16788268418E+03  0.12499955680E+03 0.  0.
          2    1    1    2  501    0  0.38074239092E+02 -0.32935363338E+02 -0.37124182912E+03  0.37463966892E+03  0.00000000000E+00 0. -1.
          1    1    1    2  502    0 -0.58930631758E+01  0.85557976129E+02  0.99048518533E+03  0.99419102684E+03  0.00000000000E+00 0. -1.
         22    1    3    3    0    0  0.25843181938E+02  0.26510267379E+02  0.84301072277E+01  0.37970133488E+02  0.00000000000E+00 0. -1.
         22    1    3    3    0    0 -0.58024357854E+02 -0.79132880171E+02  0.85137723719E+02  0.12991255070E+03  0.00000000000E+00 0. -1.
</event>
<event>
 7    1  0.5889087E-006  0.3505964E+02  0.7818608E-02  0.1556510E+00
          2   -1    0    0  502    0  0.00000000000E+00  0.00000000000E+00  0.13923107562E+04  0.13923107562E+04  0.00000000000E+00 0. -1.
          1   -1    0    0  501    0 -0.00000000000E+00 -0.00000000000E+00 -0.39806672348E+02  0.39806672348E+02  0.00000000000E+00 0. -1.
         25    2    1    2    0    0 -0.26985360617E+02 -0.13525235013E+02  0.18007599212E+03  0.22127202024E+03  0.12499120904E+03 0.  0.
          2    1    1    2  501    0  0.31135648801E+02 -0.19429905632E+02 -0.12261065567E+01  0.36721290778E+02  0.00000000000E+00 0. -1.
          1    1    1    2  502    0 -0.41502881843E+01  0.32955140645E+02  0.11736541983E+04  0.11741241175E+04  0.00000000000E+00 0. -1.
         22    1    3    3    0    0  0.16233497529E+02 -0.53804731981E+02  0.13722962239E+03  0.14829175597E+03  0.00000000000E+00 0.  1.
         22    1    3    3    0    0 -0.43218858146E+02  0.40279496969E+02  0.42846369724E+02  0.72980264277E+02  0.00000000000E+00 0.  1.
</event>
<event>
 7    1  0.5889087E-006  0.5201603E+02  0.7818608E-02  0.1492104E+00
          2   -1    0    0  502    0  0.00000000000E+00  0.00000000000E+00  0.23879417979E+04  0.23879417979E+04  0.00000000000E+00 0. -1.
          1   -1    0    0  501    0 -0.00000000000E+00 -0.00000000000E+00 -0.15720326631E+04  0.15720326631E+04  0.00000000000E+00 0. -1.
         25    2    1    2    0    0  0.30540899573E+02  0.71589466976E+02  0.16688304296E+04  0.16753173523E+04  0.12504171338E+03 0.  0.
          2    1    1    2  501    0 -0.35884437282E+02 -0.37648560557E+02 -0.15679454826E+04  0.15688078733E+04  0.00000000000E+00 0. -1.
          1    1    1    2  502    0  0.53435377093E+01 -0.33940906419E+02  0.71502418790E+03  0.71584923539E+03  0.00000000000E+00 0. -1.
         22    1    3    3    0    0  0.23279942390E+02  0.75837702434E+02  0.16634301693E+04  0.16653207622E+04  0.00000000000E+00 0. -1.
         22    1    3    3    0    0  0.72609571831E+01 -0.42482354579E+01  0.54002602551E+01  0.99965901458E+01  0.00000000000E+00 0. -1.
</event>
<event>
 7    1  0.1013255E-005  0.6123840E+02  0.7818608E-02  0.1439436E+00
          2   -1    0    0  502    0  0.00000000000E+00  0.00000000000E+00  0.26105353366E+04  0.26105353366E+04  0.00000000000E+00 0. -1.
          1   -1    0    0  501    0 -0.00000000000E+00 -0.00000000000E+00 -0.17303975953E+04  0.17303975953E+04  0.00000000000E+00 0. -1.
         25    2    1    2    0    0  0.66616129467E+02 -0.59873459204E+02 -0.14812085902E+03  0.21351273121E+03  0.12500143075E+03 0.  0.
          2    1    1    2  501    0 -0.58122740778E+02  0.18067996951E+02 -0.15488065080E+04  0.15500020338E+04  0.00000000000E+00 0. -1.
          1    1    1    2  502    0 -0.84933886896E+01  0.41805462253E+02  0.25770651084E+04  0.25774181669E+04  0.00000000000E+00 0. -1.
         22    1    3    3    0    0  0.97295260881E+02 -0.15409045453E+02 -0.82310082546E+02  0.12836960762E+03  0.00000000000E+00 0. -1.
         22    1    3    3    0    0 -0.30679131414E+02 -0.44464413751E+02 -0.65810776478E+02  0.85143123593E+02  0.00000000000E+00 0. -1.
</event>
<event>
 7    1  0.5889087E-006  0.1360213E+03  0.7818608E-02  0.1325078E+00
          2   -1    0    0  502    0  0.00000000000E+00  0.00000000000E+00  0.46116702864E+03  0.46116702864E+03  0.00000000000E+00 0. -1.
          1   -1    0    0  501    0 -0.00000000000E+00 -0.00000000000E+00 -0.39166248173E+03  0.39166248173E+03  0.00000000000E+00 0. -1.
         25    2    1    2    0    0 -0.12414183563E+03  0.19947770008E+02 -0.31194569143E+03  0.35880882203E+03  0.12499818991E+03 0.  0.
          2    1    1    2  501    0 -0.96154357267E+01 -0.47775045937E+02 -0.32188230930E+02  0.58403714171E+02  0.00000000000E+00 0. -1.
          1    1    1    2  502    0  0.13375727135E+03  0.27827275929E+02  0.41363846928E+03  0.43561697418E+03  0.00000000000E+00 0. -1.
         22    1    3    3    0    0 -0.67983322080E+02  0.59589735089E+02 -0.25156348192E+03  0.26731414860E+03  0.00000000000E+00 0. -1.
         22    1    3    3    0    0 -0.56158513547E+02 -0.39641965082E+02 -0.60382209515E+02  0.91494673426E+02  0.00000000000E+00 0. -1.
</event>
<event>
 7    1  0.5889087E-006  0.5811450E+02  0.7818608E-02  0.1435150E+00
          2   -1    0    0  502    0  0.00000000000E+00  0.00000000000E+00  0.22008235185E+03  0.22008235185E+03  0.00000000000E+00 0. -1.
          1   -1    0    0  501    0 -0.00000000000E+00 -0.00000000000E+00 -0.60837783159E+03  0.60837783159E+03  0.00000000000E+00 0. -1.
         25    2    1    2    0    0 -0.38879406171E+02 -0.16343482785E+02 -0.24800340918E+03  0.28090847047E+03  0.12500064066E+03 0.  0.
          2    1    1    2  501    0  0.23271036674E+02 -0.40167477060E+02 -0.33808288489E+03  0.34125504306E+03  0.00000000000E+00 0. -1.
          1    1    1    2  502    0  0.15608369497E+02  0.56510959845E+02  0.19779081432E+03  0.20629666990E+03  0.00000000000E+00 0. -1.
         22    1    3    3    0    0 -0.12225404980E+02  0.54624174300E+02 -0.98978274362E+02  0.11370998083E+03  0.00000000000E+00 0. -1.
         22    1    3    3    0    0 -0.26654001190E+02 -0.70967657085E+02 -0.14902513482E+03  0.16719848964E+03  0.00000000000E+00 0. -1.
</event>
<event>
 7    1  0.5889087E-006  0.2094019E+03  0.7818608E-02  0.1253517E+00
          2   -1    0    0  502    0  0.00000000000E+00  0.00000000000E+00  0.91556973117E+03  0.91556973117E+03  0.00000000000E+00 0. -1.
          1   -1    0    0  501    0 -0.00000000000E+00 -0.00000000000E+00 -0.86530448745E+03  0.86530448745E+03  0.00000000000E+00 0. -1.
         25    2    1    2    0    0 -0.11406807181E+03  0.15948286252E+03  0.37527404253E+03  0.44147801583E+03  0.12500369203E+03 0.  0.
          2    1    1    2  501    0 -0.58793450419E+02 -0.19528003369E+02 -0.80657398628E+03  0.80894969440E+03  0.00000000000E+00 0. -1.
          1    1    1    2  502    0  0.17286152223E+03 -0.13995485915E+03  0.48156518748E+03  0.53044650839E+03  0.00000000000E+00 0. -1.
         22    1    3    3    0    0 -0.32788551180E+02  0.29810526323E+02  0.99842751588E+01  0.45425128713E+02  0.00000000000E+00 0. -1.
         22    1    3    3    0    0 -0.81279520631E+02  0.12967233620E+03  0.36528976737E+03  0.39605288712E+03  0.00000000000E+00 0. -1.
</event>
<event>
 7    1  0.5889087E-006  0.3512029E+02  0.7818608E-02  0.1621851E+00
          2   -1    0    0  502    0  0.00000000000E+00  0.00000000000E+00  0.46475682246E+02  0.46475682246E+02  0.00000000000E+00 0. -1.
          1   -1    0    0  501    0 -0.00000000000E+00 -0.00000000000E+00 -0.50288339792E+03  0.50288339792E+03  0.00000000000E+00 0. -1.
         25    2    1    2    0    0 -0.45174869402E+02 -0.39847452931E+01 -0.28658449871E+03  0.31593042359E+03  0.12499884252E+03 0.  0.
          2    1    1    2  501    0  0.31719138281E+02 -0.13738874294E+02 -0.19602680581E+03  0.19905117180E+03  0.00000000000E+00 0. -1.
          1    1    1    2  502    0  0.13455731120E+02  0.17723619587E+02  0.26203588840E+02  0.34377484774E+02  0.00000000000E+00 0. -1.
         22    1    3    3    0    0 -0.10823321096E+02 -0.63370747880E+02 -0.13325999008E+03  0.14795682114E+03  0.00000000000E+00 0.  1.
         22    1    3    3    0    0 -0.34351548306E+02  0.59386002587E+02 -0.15332450863E+03  0.16797360245E+03  0.00000000000E+00 0.  1.
</event>
<event>
 7    1  0.5889087E-006  0.7608712E+02  0.7818608E-02  0.1419737E+00
          2   -1    0    0  502    0  0.00000000000E+00  0.00000000000E+00  0.10028029616E+04  0.10028029616E+04  0.00000000000E+00 0. -1.
          1   -1    0    0  501    0 -0.00000000000E+00 -0.00000000000E+00 -0.19054216621E+04  0.19054216621E+04  0.00000000000E+00 0. -1.
         25    2    1    2    0    0  0.11364764673E+03  0.12255639694E+02  0.77562678945E+02  0.18629534834E+03  0.12499599728E+03 0.  0.
          2    1    1    2  501    0 -0.74020664436E+02 -0.16631839542E+02 -0.18498210972E+04  0.18513761824E+04  0.00000000000E+00 0. -1.
          1    1    1    2  502    0 -0.39626982297E+02  0.43761998488E+01  0.86963971786E+03  0.87055309300E+03  0.00000000000E+00 0. -1.
         22    1    3    3    0    0 -0.91207069457E+01 -0.96165921883E-01 -0.24514691531E+02  0.26156579362E+02  0.00000000000E+00 0. -1.
         22    1    3    3    0    0  0.12276835368E+03  0.12351805616E+02  0.10207737048E+03  0.16013876898E+03  0.00000000000E+00 0. -1.
</event>
<event>
 7    1  0.5889087E-006  0.3257393E+03  0.7818608E-02  0.1196554E+00
          2   -1    0    0  502    0  0.00000000000E+00  0.00000000000E+00  0.75372117149E+03  0.75372117149E+03  0.00000000000E+00 0. -1.
          1   -1    0    0  501    0 -0.00000000000E+00 -0.00000000000E+00 -0.82681721646E+03  0.82681721646E+03  0.00000000000E+00 0. -1.
         25    2    1    2    0    0 -0.19839084218E+03  0.23223828462E+03 -0.23788762914E+02  0.33088459833E+03  0.12500066026E+03 0.  0.
          2    1    1    2  501    0  0.15887165295E+03 -0.29252469742E+03 -0.60434255130E+03  0.68995711463E+03  0.00000000000E+00 0. -1.
          1    1    1    2  502    0  0.39519189230E+02  0.60286412802E+02  0.55503526925E+03  0.55969667499E+03  0.00000000000E+00 0. -1.
         22    1    3    3    0    0 -0.13766326951E+03  0.66057306045E+02 -0.28256877259E+01  0.15271780500E+03  0.00000000000E+00 0.  1.
         22    1    3    3    0    0 -0.60727572673E+02  0.16618097857E+03 -0.20963075188E+02  0.17816679332E+03  0.00000000000E+00 0.  1.
</event>
<event>
 7    1  0.7493165E-006  0.8289438E+02  0.7818608E-02  0.1352869E+00
          2   -1    0    0  502    0  0.00000000000E+00  0.00000000000E+00  0.17487156021E+04  0.17487156021E+04  0.00000000000E+00 0. -1.
          1   -1    0    0  501    0 -0.00000000000E+00 -0.00000000000E+00 -0.37036211164E+03  0.37036211164E+03  0.00000000000E+00 0. -1.
         25    2    1    2    0    0  0.69023478124E+02  0.68391463100E+02  0.53790264655E+02  0.16721189218E+03  0.12499916623E+03 0.  0.
          2    1    1    2  501    0 -0.78849924634E+01 -0.82878707104E+02 -0.30751164423E+03  0.31858195890E+03  0.00000000000E+00 0. -1.
          1    1    1    2  502    0 -0.61138485660E+02  0.14487244004E+02  0.16320748700E+04  0.16332838627E+04  0.00000000000E+00 0. -1.
         22    1    3    3    0    0 -0.52949916395E+01  0.25672377022E+01 -0.34109351053E+02  0.34613226881E+02  0.00000000000E+00 0.  1.
         22    1    3    3    0    0  0.74318469763E+02  0.65824225397E+02  0.87899615708E+02  0.13259866530E+03  0.00000000000E+00 0.  1.
</event>
<event>
 7    1  0.5889087E-006  0.4186617E+02  0.7818608E-02  0.1547803E+00
          2   -1    0    0  502    0  0.00000000000E+00  0.00000000000E+00  0.10362993888E+03  0.10362993888E+03  0.00000000000E+00 0. -1.
          1   -1    0    0  501    0 -0.00000000000E+00 -0.00000000000E+00 -0.49819144896E+03  0.49819144896E+03  0.00000000000E+00 0. -1.
         25    2    1    2    0    0  0.50250432660E+02  0.49662366992E+02 -0.22949404063E+03  0.27071183051E+03  0.12500369522E+03 0.  0.
          2    1    1    2  501    0 -0.20190632203E+02 -0.21384893404E+02 -0.24201383490E+03  0.24379432228E+03  0.00000000000E+00 0. -1.
          1    1    1    2  502    0 -0.30059800457E+02 -0.28277473588E+02  0.76946365445E+02  0.87315235047E+02  0.00000000000E+00 0. -1.
         22    1    3    3    0    0 -0.26175159346E+02 -0.17902293745E+02 -0.19433897522E+02  0.37192841529E+02  0.00000000000E+00 0.  1.
         22    1    3    3    0    0  0.76425592006E+02  0.67564660737E+02 -0.21006014311E+03  0.23351898899E+03  0.00000000000E+00 0.  1.
</event>
<event>
 7    1  0.5889087E-006  0.9706586E+02  0.7818608E-02  0.1342903E+00
          2   -1    0    0  502    0  0.00000000000E+00  0.00000000000E+00  0.13738561231E+04  0.13738561231E+04  0.00000000000E+00 0. -1.
          1   -1    0    0  501    0 -0.00000000000E+00 -0.00000000000E+00 -0.27773445498E+03  0.27773445498E+03  0.00000000000E+00 0. -1.
         25    2    1    2    0    0 -0.20563626223E+02  0.34368426238E+02  0.38892037977E+03  0.41047414324E+03  0.12500363604E+03 0.  0.
          2    1    1    2  501    0  0.45335846670E+02 -0.87293736997E+02 -0.25698193076E+03  0.27516403880E+03  0.00000000000E+00 0. -1.
          1    1    1    2  502    0 -0.24772220447E+02  0.52925310759E+02  0.96418321910E+03  0.96595239604E+03  0.00000000000E+00 0. -1.
         22    1    3    3    0    0 -0.72383672291E+02  0.27421513308E+02  0.26234601387E+03  0.27352653692E+03  0.00000000000E+00 0.  1.
         22    1    3    3    0    0  0.51820046069E+02  0.69469129308E+01  0.12657436590E+03  0.13694760632E+03  0.00000000000E+00 0.  1.
</event>
<event>
 7    1  0.5889087E-006  0.4968793E+02  0.7818608E-02  0.1541554E+00
          2   -1    0    0  502    0  0.00000000000E+00  0.00000000000E+00  0.17574333453E+04  0.17574333453E+04  0.00000000000E+00 0. -1.
          1   -1    0    0  501    0 -0.00000000000E+00 -0.00000000000E+00 -0.18012575227E+03  0.18012575227E+03  0.00000000000E+00 0. -1.
         25    2    1    2    0    0 -0.50219268681E+02 -0.30425492500E+02  0.33261099121E+01  0.13811743119E+03  0.12497070157E+03 0.  0.
          2    1    1    2  501    0  0.49190655325E+02  0.46430055743E+01 -0.10721234307E+03  0.11804983939E+03  0.00000000000E+00 0. -1.
          1    1    1    2  502    0  0.10286133555E+01  0.25782486926E+02  0.16811938262E+04  0.16813918270E+04  0.00000000000E+00 0. -1.
         22    1    3    3    0    0 -0.86979307245E+02 -0.61908387539E+01  0.22559267475E+02  0.90070233275E+02  0.00000000000E+00 0.  1.
         22    1    3    3    0    0  0.36760038564E+02 -0.24234653746E+02 -0.19233157563E+02  0.48047197913E+02  0.00000000000E+00 0.  1.
</event>
<event>
 7    1  0.5889087E-006  0.3421120E+02  0.7818608E-02  0.1619696E+00
          2   -1    0    0  502    0  0.00000000000E+00  0.00000000000E+00  0.64133432837E+03  0.64133432837E+03  0.00000000000E+00 0. -1.
          1   -1    0    0  501    0 -0.00000000000E+00 -0.00000000000E+00 -0.11084187005E+03  0.11084187005E+03  0.00000000000E+00 0. -1.
         25    2    1    2    0    0  0.36553412312E+02  0.21408955022E+02  0.52238315068E+03  0.53879889220E+03  0.12500237926E+03 0.  0.
          2    1    1    2  501    0 -0.15315968258E+02 -0.30583139462E+02 -0.98508928360E+02  0.10427807185E+03  0.00000000000E+00 0. -1.
          1    1    1    2  502    0 -0.21237444054E+02  0.91741844398E+01  0.10661823600E+03  0.10909923436E+03  0.00000000000E+00 0. -1.
         22    1    3    3    0    0 -0.40445601969E+02  0.35350889341E+02  0.20839855889E+03  0.21521034233E+03  0.00000000000E+00 0. -1.
         22    1    3    3    0    0  0.76999014281E+02 -0.13941934319E+02  0.31398459178E+03  0.32358854988E+03  0.00000000000E+00 0. -1.
</event>
<event>
 7    1  0.5889087E-006  0.6263542E+02  0.7818608E-02  0.1448707E+00
          2   -1    0    0  502    0  0.00000000000E+00  0.00000000000E+00  0.14552837251E+03  0.14552837251E+03  0.00000000000E+00 0. -1.
          1   -1    0    0  501    0 -0.00000000000E+00 -0.00000000000E+00 -0.62785127870E+03  0.62785127870E+03  0.00000000000E+00 0. -1.
         25    2    1    2    0    0 -0.36424118685E+02 -0.52506151424E+02 -0.30289483405E+03  0.33384803487E+03  0.12500247009E+03 0.  0.
          2    1    1    2  501    0 -0.61430483620E+00  0.64499881078E+02 -0.30309435833E+03  0.30988191635E+03  0.00000000000E+00 0. -1.
          1    1    1    2  502    0  0.37038423521E+02 -0.11993729654E+02  0.12366628620E+03  0.12964970000E+03  0.00000000000E+00 0. -1.
         22    1    3    3    0    0 -0.23718751823E+01  0.40842259915E+02 -0.82349066125E+02  0.91951534400E+02  0.00000000000E+00 0.  1.
         22    1    3    3    0    0 -0.34052243502E+02 -0.93348411339E+02 -0.22054576793E+03  0.24189650047E+03  0.00000000000E+00 0.  1.
</event>
<event>
 7    1  0.5889087E-006  0.6221268E+02  0.7818608E-02  0.1483286E+00
          2   -1    0    0  502    0  0.00000000000E+00  0.00000000000E+00  0.17613323120E+04  0.17613323120E+04  0.00000000000E+00 0. -1.
          1   -1    0    0  501    0 -0.00000000000E+00 -0.00000000000E+00 -0.84123189328E+03  0.84123189328E+03  0.00000000000E+00 0. -1.
         25    2    1    2    0    0 -0.39196737530E+01  0.82603871510E+02 -0.21212085281E+02  0.15138234707E+03  0.12501159551E+03 0.  0.
          2    1    1    2  501    0  0.20416721265E+02 -0.22730514232E+02 -0.75405674490E+03  0.75467548875E+03  0.00000000000E+00 0. -1.
          1    1    1    2  502    0 -0.16497047512E+02 -0.59873357278E+02  0.16953692489E+04  0.16965063695E+04  0.00000000000E+00 0. -1.
         22    1    3    3    0    0  0.57904199329E+02  0.34692639450E+02 -0.27556701697E+02  0.72909857635E+02  0.00000000000E+00 0. -1.
         22    1    3    3    0    0 -0.61823873082E+02  0.47911232060E+02  0.63446164158E+01  0.78472489433E+02  0.00000000000E+00 0. -1.
</event>
<event>
 7    1  0.5889087E-006  0.1167387E+03  0.7818608E-02  0.1340608E+00
          2   -1    0    0  502    0  0.00000000000E+00  0.00000000000E+00  0.18906026544E+02  0.18906026544E+02  0.00000000000E+00 0. -1.
          1   -1    0    0  501    0 -0.00000000000E+00 -0.00000000000E+00 -0.20673083421E+04  0.20673083421E+04  0.00000000000E+00 0. -1.
         25    2    1    2    0    0  0.43712682877E+02  0.75729161404E+02 -0.74399628030E+03  0.75947498092E+03  0.12500430795E+03 0.  0.
          2    1    1    2  501    0 -0.37922912582E+02 -0.12495088144E+03 -0.12325588920E+04  0.12394564503E+04  0.00000000000E+00 0. -1.
          1    1    1    2  502    0 -0.57897702942E+01  0.49221720033E+02 -0.71847143258E+02  0.87282937378E+02  0.00000000000E+00 0. -1.
         22    1    3    3    0    0 -0.86666051599E+01 -0.31269781983E+02 -0.12677121769E+03  0.13085813290E+03  0.00000000000E+00 0.  1.
         22    1    3    3    0    0  0.52379288037E+02  0.10699894339E+03 -0.61722506261E+03  0.62861684802E+03  0.00000000000E+00 0.  1.
</event>
<event>
 7    1  0.5889087E-006  0.6748336E+02  0.7818608E-02  0.1426795E+00
          2   -1    0    0  502    0  0.00000000000E+00  0.00000000000E+00  0.23121900320E+04  0.23121900320E+04  0.00000000000E+00 0. -1.
          1   -1    0    0  501    0 -0.00000000000E+00 -0.00000000000E+00 -0.83022176824E+02  0.83022176824E+02  0.00000000000E+00 0. -1.
         25    2    1    2    0    0  0.32170857466E+02 -0.10312296807E+02  0.37388789178E+03  0.39567472126E+03  0.12500008753E+03 0.  0.
          2    1    1    2  501    0  0.36502348857E+02  0.21936314834E+02 -0.65155889662E+02  0.77839021951E+02  0.00000000000E+00 0. -1.
          1    1    1    2  502    0 -0.68673206323E+02 -0.11624018027E+02  0.19204358531E+04  0.19216984657E+04  0.00000000000E+00 0. -1.
         22    1    3    3    0    0  0.69274890419E+02  0.23136872123E+02  0.27946654536E+03  0.28885268783E+03  0.00000000000E+00 0.  1.
         22    1    3    3    0    0 -0.37104032953E+02 -0.33449168930E+02  0.94421346425E+02  0.10682203342E+03  0.00000000000E+00 0.  1.
</event>
<event>
 7    1  0.5889087E-006  0.7968506E+02  0.7818608E-02  0.1449107E+00
          2   -1    0    0  502    0  0.00000000000E+00  0.00000000000E+00  0.36533638530E+04  0.36533638530E+04  0.00000000000E+00 0. -1.
          1   -1    0    0  501    0 -0.00000000000E+00 -0.00000000000E+00 -0.91200956111E+02  0.91200956111E+02  0.00000000000E+00 0. -1.
         25    2    1    2    0    0 -0.18173229117E+02 -0.64954402791E+02  0.21019291144E+03  0.25368293770E+03  0.12499852864E+03 0.  0.
          2    1    1    2  501    0 -0.30480340491E+02  0.13856374569E+01 -0.65613535867E+02  0.72360951049E+02  0.00000000000E+00 0. -1.
          1    1    1    2  502    0  0.48653569608E+02  0.63568765334E+02  0.34175835213E+04  0.34185209204E+04  0.00000000000E+00 0. -1.
         22    1    3    3    0    0 -0.70428942196E+02 -0.38337064579E+02  0.14715589969E+03  0.16758527750E+03  0.00000000000E+00 0. -1.
         22    1    3    3    0    0  0.52255713079E+02 -0.26617338213E+02  0.63037011750E+02  0.86097660208E+02  0.00000000000E+00 0. -1.
</event>
<event>
 7    1  0.5889087E-006  0.6957794E+02  0.7818608E-02  0.1501534E+00
          2   -1    0    0  502    0  0.00000000000E+00  0.00000000000E+00  0.39601245612E+03  0.39601245612E+03  0.00000000000E+00 0. -1.
          1   -1    0    0  501    0 -0.00000000000E+00 -0.00000000000E+00 -0.59914044554E+03  0.59914044554E+03  0.00000000000E+00 0. -1.
         25    2    1    2    0    0  0.59405183357E+02  0.66654033227E+02  0.12779763052E+03  0.19981252700E+03  0.12498430152E+03 0.  0.
          2    1    1    2  501    0 -0.54285741293E+02 -0.43136630538E+02 -0.56036679496E+03  0.56464028859E+03  0.00000000000E+00 0. -1.
          1    1    1    2  502    0 -0.51194420636E+01 -0.23517402689E+02  0.22944117502E+03  0.23070008606E+03  0.00000000000E+00 0. -1.
         22    1    3    3    0    0  0.69608263460E+02 -0.93955176101E+01  0.90322629220E+02  0.11441924420E+03  0.00000000000E+00 0. -1.
         22    1    3    3    0    0 -0.10203080104E+02  0.76049550837E+02  0.37475001304E+02  0.85393282808E+02  0.00000000000E+00 0. -1.
</event>
<event>
 7    1  0.5889087E-006  0.4609882E+02  0.7818608E-02  0.1525226E+00
          2   -1    0    0  502    0  0.00000000000E+00  0.00000000000E+00  0.15378838171E+04  0.15378838171E+04  0.00000000000E+00 0. -1.
          1   -1    0    0  501    0 -0.00000000000E+00 -0.00000000000E+00 -0.10140179046E+04  0.10140179046E+04  0.00000000000E+00 0. -1.
         25    2    1    2    0    0 -0.38931397899E+02  0.10667705547E+02 -0.10589660122E+03  0.16872778668E+03  0.12500208864E+03 0.  0.
          2    1    1    2  501    0  0.13527451387E+02  0.27848219429E+02 -0.87607892486E+03  0.87662580264E+03  0.00000000000E+00 0. -1.
          1    1    1    2  502    0  0.25403946512E+02 -0.38515924976E+02  0.15058414386E+04  0.15065481323E+04  0.00000000000E+00 0. -1.
         22    1    3    3    0    0 -0.57141077577E+02  0.76015822652E+01 -0.12772845725E+03  0.14013367044E+03  0.00000000000E+00 0. -1.
         22    1    3    3    0    0  0.18209679678E+02  0.30661232819E+01  0.21831856031E+02  0.28594116243E+02  0.00000000000E+00 0. -1.
</event>
<event>
 7    1  0.5889087E-006  0.2347126E+03  0.7818608E-02  0.1221414E+00
          2   -1    0    0  502    0  0.00000000000E+00  0.00000000000E+00  0.14733820637E+04  0.14733820637E+04  0.00000000000E+00 0. -1.
          1   -1    0    0  501    0 -0.00000000000E+00 -0.00000000000E+00 -0.14004685766E+04  0.14004685766E+04  0.00000000000E+00 0. -1.
         25    2    1    2    0    0 -0.36173440514E+01 -0.29903549074E+03 -0.24052514859E+03  0.40362498822E+03  0.12500189643E+03 0.  0.
          2    1    1    2  501    0 -0.33225250193E+02  0.69109932853E+02 -0.10672687492E+04  0.10700199452E+04  0.00000000000E+00 0. -1.
          1    1    1    2  502    0  0.36842594245E+02  0.22992555789E+03  0.13807073849E+04  0.14002057069E+04  0.00000000000E+00 0. -1.
         22    1    3    3    0    0  0.45810375708E+02 -0.25108162360E+03 -0.19190251657E+03  0.31932295266E+03  0.00000000000E+00 0.  1.
         22    1    3    3    0    0 -0.49427719760E+02 -0.47953867142E+02 -0.48622632016E+02  0.84302035555E+02  0.00000000000E+00 0.  1.
</event>
<event>
 7    1  0.5889087E-006  0.7940585E+02  0.7818608E-02  0.1401972E+00
          2   -1    0    0  502    0  0.00000000000E+00  0.00000000000E+00  0.15026320115E+04  0.15026320115E+04  0.00000000000E+00 0. -1.
          1   -1    0    0  501    0 -0.00000000000E+00 -0.00000000000E+00 -0.22786077396E+04  0.22786077396E+04  0.00000000000E+00 0. -1.
         25    2    1    2    0    0 -0.36293713670E+02  0.63024157279E+01 -0.44655042548E+02  0.13775545269E+03  0.12500215128E+03 0.  0.
          2    1    1    2  501    0  0.76303051909E+02 -0.24308499178E+02 -0.21863387565E+04  0.21878048855E+04  0.00000000000E+00 0. -1.
          1    1    1    2  502    0 -0.40009338239E+02  0.18006083450E+02  0.14550180709E+04  0.14556794128E+04  0.00000000000E+00 0. -1.
         22    1    3    3    0    0 -0.70635728620E+02  0.40603439202E+02 -0.23402690036E+02  0.84768693122E+02  0.00000000000E+00 0.  1.
         22    1    3    3    0    0  0.34342014950E+02 -0.34301023474E+02 -0.21252352513E+02  0.52986759568E+02  0.00000000000E+00 0.  1.
</event>
<event>
 7    1  0.5889087E-006  0.7365811E+02  0.7818608E-02  0.1401053E+00
          2   -1    0    0  502    0  0.00000000000E+00  0.00000000000E+00  0.82011461066E+03  0.82011461066E+03  0.00000000000E+00 0. -1.
          1   -1    0    0  501    0 -0.00000000000E+00 -0.00000000000E+00 -0.55109378749E+02  0.55109378749E+02  0.00000000000E+00 0. -1.
         25    2    1    2    0    0  0.36005782827E+02  0.23872781857E+02  0.51490426950E+02  0.14193399549E+03  0.12501067513E+03 0.  0.
          2    1    1    2  501    0  0.39461851568E+02 -0.26694358981E+02  0.66072008384E+02  0.81457576827E+02  0.00000000000E+00 0. -1.
          1    1    1    2  502    0 -0.75467634395E+02  0.28215771245E+01  0.64744279658E+03  0.65183241710E+03  0.00000000000E+00 0. -1.
         22    1    3    3    0    0  0.23830560778E+02 -0.47509399930E+02  0.12188586028E+00  0.53151232957E+02  0.00000000000E+00 0.  1.
         22    1    3    3    0    0  0.12175222049E+02  0.71382181787E+02  0.51368541090E+02  0.88782762529E+02  0.00000000000E+00 0.  1.
</event>
<event>
 7    1  0.5889087E-006  0.5493423E+02  0.7818608E-02  0.1532296E+00
          2   -1    0    0  502    0  0.00000000000E+00  0.00000000000E+00  0.14735933352E+04  0.14735933352E+04  0.00000000000E+00 0. -1.
          1   -1    0    0  501    0 -0.00000000000E+00 -0.00000000000E+00 -0.17519682067E+02  0.17519682067E+02  0.00000000000E+00 0. -1.
         25    2    1    2    0    0 -0.12408055233E+02  0.43146282848E+02  0.94597572117E+03  0.95525593477E+03  0.12501309659E+03 0.  0.
          2    1    1    2  501    0  0.18757421277E+02  0.16215202568E+02  0.26797996941E+01  0.24939025115E+02  0.00000000000E+00 0. -1.
          1    1    1    2  502    0 -0.63493660443E+01 -0.59361485415E+02  0.50741813232E+03  0.51091805743E+03  0.00000000000E+00 0. -1.
         22    1    3    3    0    0 -0.20862342110E+02  0.11665905994E+02  0.89116302683E+03  0.89148352260E+03  0.00000000000E+00 0.  1.
         22    1    3    3    0    0  0.84542868772E+01  0.31480376853E+02  0.54812694337E+02  0.63772412169E+02  0.00000000000E+00 0.  1.
</event>
<event>
 7    1  0.5889087E-006  0.5924180E+02  0.7818608E-02  0.1515187E+00
          2   -1    0    0  502    0  0.00000000000E+00  0.00000000000E+00  0.20203041445E+03  0.20203041445E+03  0.00000000000E+00 0. -1.
          1   -1    0    0  501    0 -0.00000000000E+00 -0.00000000000E+00 -0.59451451535E+03  0.59451451535E+03  0.00000000000E+00 0. -1.
         25    2    1    2    0    0 -0.64861641298E+02 -0.41517685523E+02 -0.36013631287E+03  0.38891154062E+03  0.12499308724E+03 0.  0.
          2    1    1    2  501    0  0.83491627954E+01  0.24373150149E+02 -0.21455418975E+03  0.21609548655E+03  0.00000000000E+00 0. -1.
          1    1    1    2  502    0  0.56512478502E+02  0.17144535374E+02  0.18220640171E+03  0.19153790263E+03  0.00000000000E+00 0. -1.
         22    1    3    3    0    0 -0.81912582747E+01 -0.46527012431E+02 -0.30845151850E+03  0.31204839187E+03  0.00000000000E+00 0.  1.
         22    1    3    3    0    0 -0.56670383023E+02  0.50093269072E+01 -0.51684794361E+02  0.76863148753E+02  0.00000000000E+00 0.  1.
</event>
<event>
 7    1  0.5889087E-006  0.1239004E+03  0.7818608E-02  0.1241394E+00
          2   -1    0    0  502    0  0.00000000000E+00  0.00000000000E+00  0.44318527168E+03  0.44318527168E+03  0.00000000000E+00 0. -1.
          1   -1    0    0  501    0 -0.00000000000E+00 -0.00000000000E+00 -0.11579480381E+04  0.11579480381E+04  0.00000000000E+00 0. -1.
         25    2    1    2    0    0 -0.66610054304E+02  0.66616429552E+02  0.21913320639E+03  0.26929347712E+03  0.12499986663E+03 0.  0.
          2    1    1    2  501    0 -0.39570366733E+02 -0.11864422939E+03 -0.11114786515E+04  0.11184932096E+04  0.00000000000E+00 0. -1.
          1    1    1    2  502    0  0.10618042104E+03  0.52027799838E+02  0.17758267875E+03  0.21334662303E+03  0.00000000000E+00 0. -1.
         22    1    3    3    0    0 -0.51854607776E+02 -0.24775975840E+02  0.48650160177E+02  0.75296662686E+02  0.00000000000E+00 0. -1.
         22    1    3    3    0    0 -0.14755446528E+02  0.91392405391E+02  0.17048304621E+03  0.19399681443E+03  0.00000000000E+00 0. -1.
</event>
<event>
 7    1  0.5889087E-006  0.1552835E+03  0.7818608E-02  0.1216399E+00
          2   -1    0    0  502    0  0.00000000000E+00  0.00000000000E+00  0.31931108543E+04  0.31931108543E+04  0.00000000000E+00 0. -1.
          1   -1    0    0  501    0 -0.00000000000E+00 -0.00000000000E+00 -0.33724225116E+03  0.33724225116E+03  0.00000000000E+00 0. -1.
         25    2    1    2    0    0  0.43938391145E+02  0.75200908700E+02  0.10649418460E+04  0.10757851216E+04  0.12500693443E+03 0.  0.
          2    1    1    2  501    0  0.54814346557E+02 -0.14714885095E+03 -0.31136964046E+03  0.34872403118E+03  0.00000000000E+00 0. -1.
          1    1    1    2  502    0 -0.98752737702E+02  0.71947942249E+02  0.21022963976E+04  0.21058439527E+04  0.00000000000E+00 0. -1.
         22    1    3    3    0    0 -0.19547411194E+02  0.81236896900E+02  0.73522584200E+03  0.73995849440E+03  0.00000000000E+00 0. -1.
         22    1    3    3    0    0  0.63485802339E+02 -0.60359882003E+01  0.32971600397E+03  0.33582662719E+03  0.00000000000E+00 0. -1.
</event>
<event>
 7    1  0.5889087E-006  0.1663699E+03  0.7818608E-02  0.1227927E+00
          2   -1    0    0  502    0  0.00000000000E+00  0.00000000000E+00  0.73098715227E+03  0.73098715227E+03  0.00000000000E+00 0. -1.
          1   -1    0    0  501    0 -0.00000000000E+00 -0.00000000000E+00 -0.10929072196E+04  0.10929072196E+04  0.00000000000E+00 0. -1.
         25    2    1    2    0    0  0.17127641829E+03 -0.18250652413E+03  0.25186705903E+03  0.37643817921E+03  0.12499777809E+03 0.  0.
          2    1    1    2  501    0 -0.77171169348E+02  0.14559225085E+03 -0.10177675740E+04  0.10310205272E+04  0.00000000000E+00 0. -1.
          1    1    1    2  502    0 -0.94105248938E+02  0.36914273282E+02  0.40398044759E+03  0.41643566548E+03  0.00000000000E+00 0. -1.
         22    1    3    3    0    0  0.14371825583E+03 -0.11324310915E+03  0.23866725690E+03  0.30073409908E+03  0.00000000000E+00 0.  1.
         22    1    3    3    0    0  0.27558162453E+02 -0.69263414981E+02  0.13199802132E+02  0.75704080134E+02  0.00000000000E+00 0.  1.
</event>
<event>
 7    1  0.5889087E-006  0.9330660E+02  0.7818608E-02  0.1297097E+00
          2   -1    0    0  502    0  0.00000000000E+00  0.00000000000E+00  0.19452954548E+03  0.19452954548E+03  0.00000000000E+00 0. -1.
          1   -1    0    0  501    0 -0.00000000000E+00 -0.00000000000E+00 -0.13590875854E+04  0.13590875854E+04  0.00000000000E+00 0. -1.
         25    2    1    2    0    0  0.13940746505E+01  0.29816082291E+02 -0.23718668173E+03  0.26976443858E+03  0.12499755248E+03 0.  0.
          2    1    1    2  501    0  0.92638293433E+02 -0.11147535180E+02 -0.10905834957E+04  0.10945677147E+04  0.00000000000E+00 0. -1.
          1    1    1    2  502    0 -0.94032368083E+02 -0.18668547111E+02  0.16321213753E+03  0.18928497758E+03  0.00000000000E+00 0. -1.
         22    1    3    3    0    0  0.61425057494E+02  0.31204110395E+01 -0.95572428963E+02  0.11365238155E+03  0.00000000000E+00 0. -1.
         22    1    3    3    0    0 -0.60030982843E+02  0.26695671251E+02 -0.14161425276E+03  0.15611205703E+03  0.00000000000E+00 0. -1.
</event>
<event>
 7    1  0.5889087E-006  0.1504479E+03  0.7818608E-02  0.1316417E+00
          2   -1    0    0  502    0  0.00000000000E+00  0.00000000000E+00  0.14228870702E+03  0.14228870702E+03  0.00000000000E+00 0. -1.
          1   -1    0    0  501    0 -0.00000000000E+00 -0.00000000000E+00 -0.50726837305E+03  0.50726837305E+03  0.00000000000E+00 0. -1.
         25    2    1    2    0    0  0.17060579944E+02 -0.12259066423E+03 -0.15427096524E+03  0.23397559472E+03  0.12500205544E+03 0.  0.
          2    1    1    2  501    0  0.22768337285E+01  0.16608577945E+03 -0.28351924568E+03  0.32859219829E+03  0.00000000000E+00 0. -1.
          1    1    1    2  502    0 -0.19337413672E+02 -0.43495115224E+02  0.72810544890E+02  0.86989287060E+02  0.00000000000E+00 0. -1.
         22    1    3    3    0    0 -0.27461268238E+02 -0.11343227540E+03 -0.14739235592E+03  0.18800401309E+03  0.00000000000E+00 0. -1.
         22    1    3    3    0    0  0.44521848182E+02 -0.91583888281E+01 -0.68786093253E+01  0.45971581631E+02  0.00000000000E+00 0. -1.
</event>
<event>
 7    1  0.5889087E-006  0.1097436E+03  0.7818608E-02  0.1344433E+00
          2   -1    0    0  502    0  0.00000000000E+00  0.00000000000E+00  0.98693649434E+03  0.98693649434E+03  0.00000000000E+00 0. -1.
          1   -1    0    0  501    0 -0.00000000000E+00 -0.00000000000E+00 -0.11772002735E+04  0.11772002735E+04  0.00000000000E+00 0. -1.
         25    2    1    2    0    0  0.47709422946E+02  0.50348774148E+02 -0.57452507692E+01  0.14306778356E+03  0.12499677871E+03 0.  0.
          2    1    1    2  501    0 -0.98691421104E+02 -0.51997585178E+02 -0.10992604327E+04  0.11049059889E+04  0.00000000000E+00 0. -1.
          1    1    1    2  502    0  0.50981998158E+02  0.16488110291E+01  0.91474190427E+03  0.91616299540E+03  0.00000000000E+00 0. -1.
         22    1    3    3    0    0  0.28029085023E+02  0.89584745531E+02 -0.21735608113E+02  0.96350884268E+02  0.00000000000E+00 0.  1.
         22    1    3    3    0    0  0.19680337922E+02 -0.39235971383E+02  0.15990357344E+02  0.46716899288E+02  0.00000000000E+00 0.  1.
</event>
<event>
 7    1  0.5889087E-006  0.9673528E+02  0.7818608E-02  0.1473019E+00
          2   -1    0    0  502    0  0.00000000000E+00  0.00000000000E+00  0.12928796770E+04  0.12928796770E+04  0.00000000000E+00 0. -1.
          1   -1    0    0  501    0 -0.00000000000E+00 -0.00000000000E+00 -0.87584685473E+02  0.87584685473E+02  0.00000000000E+00 0. -1.
         25    2    1    2    0    0  0.63466403658E+02 -0.56231699775E+02  0.56975976277E+03  0.58944216668E+03  0.12500356850E+03 0.  0.
          2    1    1    2  501    0 -0.83649832566E+02  0.49972400090E+02 -0.46983988482E+02  0.10817592354E+03  0.00000000000E+00 0. -1.
          1    1    1    2  502    0  0.20183428907E+02  0.62592996850E+01  0.68251921725E+03  0.68284627227E+03  0.00000000000E+00 0. -1.
         22    1    3    3    0    0  0.14431093891E+02 -0.42803845043E+02  0.50544532948E+03  0.50745975872E+03  0.00000000000E+00 0. -1.
         22    1    3    3    0    0  0.49035309767E+02 -0.13427854732E+02  0.64314433288E+02  0.81982407966E+02  0.00000000000E+00 0. -1.
</event>
<event>
 7    1  0.5889087E-006  0.4867907E+02  0.7818608E-02  0.1575135E+00
          2   -1    0    0  502    0  0.00000000000E+00  0.00000000000E+00  0.16217627993E+03  0.16217627993E+03  0.00000000000E+00 0. -1.
          1   -1    0    0  501    0 -0.00000000000E+00 -0.00000000000E+00 -0.12413712064E+03  0.12413712064E+03  0.00000000000E+00 0. -1.
         25    2    1    2    0    0 -0.47082628806E+01 -0.36236687009E+02 -0.40599478066E+02  0.13641305975E+03  0.12499976011E+03 0.  0.
          2    1    1    2  501    0  0.17831053260E+02 -0.11610242330E+02 -0.26296898221E+02  0.33827075596E+02  0.00000000000E+00 0. -1.
          1    1    1    2  502    0 -0.13122790380E+02  0.47846929339E+02  0.10493553557E+03  0.11607326522E+03  0.00000000000E+00 0. -1.
         22    1    3    3    0    0  0.29204584667E+02 -0.21347478398E+02  0.36182835385E+02  0.51164637945E+02  0.00000000000E+00 0. -1.
         22    1    3    3    0    0 -0.33912847547E+02 -0.14889208611E+02 -0.76782313451E+02  0.85248421808E+02  0.00000000000E+00 0. -1.
</event>
<event>
 7    1  0.5889087E-006  0.1378626E+03  0.7818608E-02  0.1233744E+00
          2   -1    0    0  502    0  0.00000000000E+00  0.00000000000E+00  0.11212259706E+04  0.11212259706E+04  0.00000000000E+00 0. -1.
          1   -1    0    0  501    0 -0.00000000000E+00 -0.00000000000E+00 -0.11279671775E+04  0.11279671775E+04  0.00000000000E+00 0. -1.
         25    2    1    2    0    0 -0.12539365816E+03 -0.52601163279E+02 -0.35833637595E+03  0.40313722040E+03  0.12499683302E+03 0.  0.
          2    1    1    2  501    0  0.51791846151E+02  0.14081575744E+03 -0.73664434162E+03  0.75176882012E+03  0.00000000000E+00 0. -1.
          1    1    1    2  502    0  0.73601812005E+02 -0.88214594158E+02  0.10882395106E+04  0.10942871076E+04  0.00000000000E+00 0. -1.
         22    1    3    3    0    0 -0.75748370770E+02 -0.10846737877E+02 -0.31725602569E+03  0.32635387730E+03  0.00000000000E+00 0. -1.
         22    1    3    3    0    0 -0.49645287385E+02 -0.41754425402E+02 -0.41080350261E+02  0.76783343101E+02  0.00000000000E+00 0. -1.
</event>
<event>
 7    1  0.5889087E-006  0.4263261E+02  0.7818608E-02  0.1579086E+00
          2   -1    0    0  502    0  0.00000000000E+00  0.00000000000E+00  0.23691461885E+04  0.23691461885E+04  0.00000000000E+00 0. -1.
          1   -1    0    0  501    0 -0.00000000000E+00 -0.00000000000E+00 -0.21298079976E+02  0.21298079976E+02  0.00000000000E+00 0. -1.
         25    2    1    2    0    0 -0.17146149539E+02  0.43165862528E+02  0.74275686383E+03  0.75463521380E+03  0.12501705889E+03 0.  0.
          2    1    1    2  501    0 -0.65429571225E+01 -0.42222534745E+02  0.14616236172E+02  0.45157359179E+02  0.00000000000E+00 0. -1.
          1    1    1    2  502    0  0.23689106662E+02 -0.94332778372E+00  0.15904750085E+04  0.15906516955E+04  0.00000000000E+00 0. -1.
         22    1    3    3    0    0  0.49912365579E+02  0.37428657536E+02  0.27015149605E+03  0.27726157227E+03  0.00000000000E+00 0.  1.
         22    1    3    3    0    0 -0.67058515118E+02  0.57372049920E+01  0.47260536778E+03  0.47737364153E+03  0.00000000000E+00 0.  1.
</event>
<event>
 7    1  0.5889087E-006  0.1807397E+03  0.7818608E-02  0.1283504E+00
          2   -1    0    0  502    0  0.00000000000E+00  0.00000000000E+00  0.61932244076E+03  0.61932244076E+03  0.00000000000E+00 0. -1.
          1   -1    0    0  501    0 -0.00000000000E+00 -0.00000000000E+00 -0.72044727615E+03  0.72044727615E+03  0.00000000000E+00 0. -1.
         25    2    1    2    0    0 -0.11079228797E+03  0.16963511673E+03  0.16850545838E+03  0.29166839989E+03  0.12500144836E+03 0.  0.
          2    1    1    2  501    0  0.13323547835E+03 -0.12088311577E+03 -0.64463921478E+03  0.66927134826E+03  0.00000000000E+00 0. -1.
          1    1    1    2  502    0 -0.22443190382E+02 -0.48752000959E+02  0.37500892101E+03  0.37882996876E+03  0.00000000000E+00 0. -1.
         22    1    3    3    0    0 -0.10243285188E+03  0.44992197895E+02  0.94661625860E+02  0.14655241529E+03  0.00000000000E+00 0. -1.
         22    1    3    3    0    0 -0.83594360890E+01  0.12464291884E+03  0.73843832519E+02  0.14511598461E+03  0.00000000000E+00 0. -1.
</event>
<event>
 7    1  0.5889087E-006  0.1090115E+03  0.7818608E-02  0.1285276E+00
          2   -1    0    0  502    0  0.00000000000E+00  0.00000000000E+00  0.13209361322E+03  0.13209361322E+03  0.00000000000E+00 0. -1.
          1   -1    0    0  501    0 -0.00000000000E+00 -0.00000000000E+00 -0.27524254210E+03  0.27524254210E+03  0.00000000000E+00 0. -1.
         25    2    1    2    0    0 -0.66002226572E+02 -0.81998357350E+02 -0.20482668807E+02  0.16469291447E+03  0.12499676730E+03 0.  0.
          2    1    1    2  501    0  0.12095374565E+03  0.13897955050E+02 -0.67711128481E+02  0.13931173195E+03  0.00000000000E+00 0. -1.
          1    1    1    2  502    0 -0.54951519073E+02  0.68100402300E+02 -0.54955131588E+02  0.10333150889E+03  0.00000000000E+00 0. -1.
         22    1    3    3    0    0 -0.52049219674E+02 -0.83505675101E+02  0.37299354776E+02  0.10523098835E+03  0.00000000000E+00 0. -1.
         22    1    3    3    0    0 -0.13953006898E+02  0.15073177515E+01 -0.57782023583E+02  0.59461926118E+02  0.00000000000E+00 0. -1.
</event>
<event>
 7    1  0.5889087E-006  0.1833508E+03  0.7818608E-02  0.1351355E+00
          2   -1    0    0  502    0  0.00000000000E+00  0.00000000000E+00  0.12799161320E+04  0.12799161320E+04  0.00000000000E+00 0. -1.
          1   -1    0    0  501    0 -0.00000000000E+00 -0.00000000000E+00 -0.42116968127E+02  0.42116968127E+02  0.00000000000E+00 0. -1.
         25    2    1    2    0    0 -0.18086217143E+03  0.94087564811E+02  0.49499328732E+03  0.54973378724E+03  0.12500114971E+03 0.  0.
          2    1    1    2  501    0  0.26400918092E+02 -0.11444038192E+02  0.49998242385E+02  0.57687075916E+02  0.00000000000E+00 0. -1.
          1    1    1    2  502    0  0.15446125334E+03 -0.82643526619E+02  0.69280763420E+03  0.71461223701E+03  0.00000000000E+00 0. -1.
         22    1    3    3    0    0 -0.69430589450E+02  0.45139384252E+02  0.72520031911E+02  0.11007872542E+03  0.00000000000E+00 0. -1.
         22    1    3    3    0    0 -0.11143158198E+03  0.48948180559E+02  0.42247325541E+03  0.43965506181E+03  0.00000000000E+00 0. -1.
</event>
<event>
 7    1  0.5889087E-006  0.2805929E+03  0.7818608E-02  0.1186386E+00
          2   -1    0    0  502    0  0.00000000000E+00  0.00000000000E+00  0.27285066766E+04  0.27285066766E+04  0.00000000000E+00 0. -1.
          1   -1    0    0  501    0 -0.00000000000E+00 -0.00000000000E+00 -0.23790169440E+03  0.23790169440E+03  0.00000000000E+00 0. -1.
         25    2    1    2    0    0  0.21865474382E+03 -0.14812230778E+03  0.17908874756E+03  0.34270737745E+03  0.12500180798E+03 0.  0.
          2    1    1    2  501    0 -0.49451234992E+02 -0.79475208122E+02 -0.13308377394E+03  0.16270532946E+03  0.00000000000E+00 0. -1.
          1    1    1    2  502    0 -0.16920350883E+03  0.22759751590E+03  0.24446000086E+04  0.24609956641E+04  0.00000000000E+00 0. -1.
         22    1    3    3    0    0  0.45312492992E+01 -0.54591328843E+02  0.57072148862E+02  0.79107367424E+02  0.00000000000E+00 0.  1.
         22    1    3    3    0    0  0.21412349453E+03 -0.93530978933E+02  0.12201659870E+03  0.26360001003E+03  0.00000000000E+00 0.  1.
</event>
<event>
 7    1  0.5889087E-006  0.7308630E+02  0.7818608E-02  0.1459085E+00
          2   -1    0    0  502    0  0.00000000000E+00  0.00000000000E+00  0.59947944121E+03  0.59947944121E+03  0.00000000000E+00 0. -1.
          1   -1    0    0  501    0 -0.00000000000E+00 -0.00000000000E+00 -0.51888060871E+03  0.51888060871E+03  0.00000000000E+00 0. -1.
         25    2    1    2    0    0  0.54439204176E+02  0.13358505771E+02  0.10597054916E+03  0.17319404850E+03  0.12499737804E+03 0.  0.
          2    1    1    2  501    0  0.65768121019E+01  0.30214529370E+02 -0.48171395630E+03  0.48270540492E+03  0.00000000000E+00 0. -1.
          1    1    1    2  502    0 -0.61016016278E+02 -0.43573035141E+02  0.45634223964E+03  0.46246059650E+03  0.00000000000E+00 0. -1.
         22    1    3    3    0    0  0.21499320559E+02  0.21996779166E+02 -0.23887763384E+02  0.38944888210E+02  0.00000000000E+00 0.  1.
         22    1    3    3    0    0  0.32939883617E+02 -0.86382733950E+01  0.12985831255E+03  0.13424916029E+03  0.00000000000E+00 0.  1.
</event>
<event>
 7    1  0.5889087E-006  0.5234989E+02  0.7818608E-02  0.1498303E+00
          2   -1    0    0  502    0  0.00000000000E+00  0.00000000000E+00  0.13832148004E+03  0.13832148004E+03  0.00000000000E+00 0. -1.
          1   -1    0    0  501    0 -0.00000000000E+00 -0.00000000000E+00 -0.20667784595E+04  0.20667784595E+04  0.00000000000E+00 0. -1.
         25    2    1    2    0    0 -0.15469686386E+02  0.39288982581E+02  0.93854963795E+02  0.16191274141E+03  0.12499618496E+03 0.  0.
          2    1    1    2  501    0  0.45416751671E+02 -0.26138986054E+02 -0.20059165466E+04  0.20066008870E+04  0.00000000000E+00 0. -1.
          1    1    1    2  502    0 -0.29947065285E+02 -0.13149996528E+02 -0.16395396652E+02  0.36586311090E+02  0.00000000000E+00 0. -1.
         22    1    3    3    0    0 -0.31171194443E+02  0.77837108661E+02  0.37493793102E+02  0.91847936117E+02  0.00000000000E+00 0.  1.
         22    1    3    3    0    0  0.15701508057E+02 -0.38548126080E+02  0.56361170693E+02  0.70064805297E+02  0.00000000000E+00 0.  1.
</event>
<event>
 7    1  0.5889087E-006  0.7289474E+02  0.7818608E-02  0.1352206E+00
          2   -1    0    0  502    0  0.00000000000E+00  0.00000000000E+00  0.29393759183E+04  0.29393759183E+04  0.00000000000E+00 0. -1.
          1   -1    0    0  501    0 -0.00000000000E+00 -0.00000000000E+00 -0.15412242312E+02  0.15412242312E+02  0.00000000000E+00 0. -1.
         25    2    1    2    0    0  0.87749635134E+01 -0.32352796934E+02  0.15282097270E+04  0.15336805494E+04  0.12500941786E+03 0.  0.
          2    1    1    2  501    0 -0.77227448239E+02  0.10505545705E+02  0.11849526149E+03  0.14182937724E+03  0.00000000000E+00 0. -1.
          1    1    1    2  502    0  0.68452484726E+02  0.21847251229E+02  0.12772586876E+04  0.12792782340E+04  0.00000000000E+00 0. -1.
         22    1    3    3    0    0  0.39643876847E+01  0.11898524383E+02  0.13478831895E+04  0.13479415357E+04  0.00000000000E+00 0.  1.
         22    1    3    3    0    0  0.48105758288E+01 -0.44251321317E+02  0.18032653749E+03  0.18573901367E+03  0.00000000000E+00 0.  1.
</event>
<event>
 7    1  0.5889087E-006  0.1784446E+03  0.7818608E-02  0.1297616E+00
          2   -1    0    0  502    0  0.00000000000E+00  0.00000000000E+00  0.15286194971E+04  0.15286194971E+04  0.00000000000E+00 0. -1.
          1   -1    0    0  501    0 -0.00000000000E+00 -0.00000000000E+00 -0.14883535790E+04  0.14883535790E+04  0.00000000000E+00 0. -1.
         25    2    1    2    0    0 -0.68855327140E+01 -0.20517503334E+03 -0.50279838448E+02  0.24555563722E+03  0.12500121580E+03 0.  0.
          2    1    1    2  501    0  0.41258825039E+02  0.17219545864E+03 -0.13341883960E+04  0.13458871582E+04  0.00000000000E+00 0. -1.
          1    1    1    2  502    0 -0.34373292325E+02  0.32979574705E+02  0.14247341525E+04  0.14255302806E+04  0.00000000000E+00 0. -1.
         22    1    3    3    0    0  0.16215535710E+02 -0.20148521035E+03 -0.71061953865E+02  0.21426393741E+03  0.00000000000E+00 0.  1.
         22    1    3    3    0    0 -0.23101068424E+02 -0.36898229937E+01  0.20782115416E+02  0.31291699814E+02  0.00000000000E+00 0.  1.
</event>
<event>
 7    1  0.5889087E-006  0.5741070E+02  0.7818608E-02  0.1417899E+00
          2   -1    0    0  502    0  0.00000000000E+00  0.00000000000E+00  0.42121269968E+03  0.42121269968E+03  0.00000000000E+00 0. -1.
          1   -1    0    0  501    0 -0.00000000000E+00 -0.00000000000E+00 -0.11483247919E+04  0.11483247919E+04  0.00000000000E+00 0. -1.
         25    2    1    2    0    0 -0.44333558479E+02  0.32047140028E+02  0.35259554073E+02  0.14092571690E+03  0.12499735173E+03 0.  0.
          2    1    1    2  501    0  0.53801886072E+02  0.20700844353E+02 -0.10925715323E+04  0.10940912764E+04  0.00000000000E+00 0. -1.
          1    1    1    2  502    0 -0.94683275932E+01 -0.52747984381E+02  0.33019988598E+03  0.33452049830E+03  0.00000000000E+00 0. -1.
         22    1    3    3    0    0 -0.66262277198E+02  0.33559873691E+02  0.68522703874E+02  0.10105600154E+03  0.00000000000E+00 0.  1.
         22    1    3    3    0    0  0.21928718719E+02 -0.15127336631E+01 -0.33263149801E+02  0.39869715355E+02  0.00000000000E+00 0.  1.
</event>
<event>
 7    1  0.5889087E-006  0.7481179E+02  0.7818608E-02  0.1405897E+00
          2   -1    0    0  502    0  0.00000000000E+00  0.00000000000E+00  0.28081806972E+04  0.28081806972E+04  0.00000000000E+00 0. -1.
          1   -1    0    0  501    0 -0.00000000000E+00 -0.00000000000E+00 -0.43615002066E+03  0.43615002066E+03  0.00000000000E+00 0. -1.
         25    2    1    2    0    0 -0.33539560073E+02  0.23572969205E+02  0.16017241283E+03  0.20727159185E+03  0.12500289594E+03 0.  0.
          2    1    1    2  501    0  0.75284249225E+02 -0.63666121418E+01 -0.40894563954E+03  0.41586631029E+03  0.00000000000E+00 0. -1.
          1    1    1    2  502    0 -0.41744689152E+02 -0.17206357063E+02  0.26208039033E+04  0.26211928157E+04  0.00000000000E+00 0. -1.
         22    1    3    3    0    0 -0.79053390350E+01 -0.50702078499E+02  0.79779137328E+02  0.94857292299E+02  0.00000000000E+00 0.  1.
         22    1    3    3    0    0 -0.25634221038E+02  0.74275047703E+02  0.80393275497E+02  0.11241429956E+03  0.00000000000E+00 0.  1.
</event>
<event>
 7    1  0.5889087E-006  0.2227085E+03  0.7818608E-02  0.1340417E+00
          2   -1    0    0  502    0  0.00000000000E+00  0.00000000000E+00  0.21252164659E+03  0.21252164659E+03  0.00000000000E+00 0. -1.
          1   -1    0    0  501    0 -0.00000000000E+00 -0.00000000000E+00 -0.66614697395E+03  0.66614697395E+03  0.00000000000E+00 0. -1.
         25    2    1    2    0    0  0.10271993169E+03  0.21776009028E+03 -0.38874815763E+03  0.47404657470E+03  0.12499673450E+03 0.  0.
          2    1    1    2  501    0 -0.22453755360E+02 -0.13151729613E+02 -0.16218231306E+03  0.16425663394E+03  0.00000000000E+00 0. -1.
          1    1    1    2  502    0 -0.80266176329E+02 -0.20460836067E+03  0.97305143338E+02  0.24036541190E+03  0.00000000000E+00 0. -1.
         22    1    3    3    0    0  0.73149250275E+01  0.17835431497E+02 -0.13850725287E+03  0.13984230347E+03  0.00000000000E+00 0.  1.
         22    1    3    3    0    0  0.95405006661E+02  0.19992465878E+03 -0.25024090477E+03  0.33420427123E+03  0.00000000000E+00 0.  1.
</event>
<event>
 7    1  0.5889087E-006  0.1030554E+03  0.7818608E-02  0.1471626E+00
          2   -1    0    0  502    0  0.00000000000E+00  0.00000000000E+00  0.28348316389E+03  0.28348316389E+03  0.00000000000E+00 0. -1.
          1   -1    0    0  501    0 -0.00000000000E+00 -0.00000000000E+00 -0.40011671101E+03  0.40011671101E+03  0.00000000000E+00 0. -1.
         25    2    1    2    0    0 -0.97108033065E+02  0.55498550152E+02  0.52696591719E+02  0.17581654929E+03  0.12499787626E+03 0.  0.
          2    1    1    2  501    0  0.18361696349E+02  0.80130519082E+01 -0.32309887318E+03  0.32371938889E+03  0.00000000000E+00 0. -1.
          1    1    1    2  502    0  0.78746336716E+02 -0.63511602060E+02  0.15376873434E+03  0.18406393672E+03  0.00000000000E+00 0. -1.
         22    1    3    3    0    0 -0.24005629400E+02 -0.36452195202E+02 -0.67449026155E+01  0.44164765246E+02  0.00000000000E+00 0. -1.
         22    1    3    3    0    0 -0.73102403665E+02  0.91950745354E+02  0.59441494334E+02  0.13165178404E+03  0.00000000000E+00 0. -1.
</event>
<event>
 7    1  0.5889087E-006  0.7018531E+02  0.7818608E-02  0.1408814E+00
          2   -1    0    0  502    0  0.00000000000E+00  0.00000000000E+00  0.25364339507E+03  0.25364339507E+03  0.00000000000E+00 0. -1.
          1   -1    0    0  501    0 -0.00000000000E+00 -0.00000000000E+00 -0.14166901545E+04  0.14166901545E+04  0.00000000000E+00 0. -1.
         25    2    1    2    0    0 -0.36653182869E+02  0.10824095294E+03 -0.67251678911E+02  0.18222938577E+03  0.12500080405E+03 0.  0.
          2    1    1    2  501    0  0.83093977200E+01 -0.46301162508E+02 -0.12855928662E+04  0.12864532099E+04  0.00000000000E+00 0. -1.
          1    1    1    2  502    0  0.28343785149E+02 -0.61939790432E+02  0.18979778562E+03  0.20165095393E+03  0.00000000000E+00 0. -1.
         22    1    3    3    0    0  0.38620056261E+02  0.72347849059E+02 -0.52950702052E+02  0.97619141857E+02  0.00000000000E+00 0.  1.
         22    1    3    3    0    0 -0.75273239130E+02  0.35893103881E+02 -0.14300976859E+02  0.84610243909E+02  0.00000000000E+00 0.  1.
</event>
<event>
 7    1  0.5889087E-006  0.1612530E+03  0.7818608E-02  0.1241428E+00
          2   -1    0    0  502    0  0.00000000000E+00  0.00000000000E+00  0.43027249884E+03  0.43027249884E+03  0.00000000000E+00 0. -1.
          1   -1    0    0  501    0 -0.00000000000E+00 -0.00000000000E+00 -0.85499703582E+03  0.85499703582E+03  0.00000000000E+00 0. -1.
         25    2    1    2    0    0  0.91047324326E+01  0.94655788518E+02  0.20043469067E+03  0.25464014045E+03  0.12499968581E+03 0.  0.
          2    1    1    2  501    0 -0.89055028877E+02 -0.13774273176E+03 -0.80906281228E+03  0.82552195158E+03  0.00000000000E+00 0. -1.
          1    1    1    2  502    0  0.79950296445E+02  0.43086943238E+02  0.18390358463E+03  0.20510744262E+03  0.00000000000E+00 0. -1.
         22    1    3    3    0    0 -0.22612853041E+01  0.64080968428E+02  0.21086138143E+03  0.22039511362E+03  0.00000000000E+00 0. -1.
         22    1    3    3    0    0  0.11366017737E+02  0.30574820090E+02 -0.10426690761E+02  0.34245026835E+02  0.00000000000E+00 0. -1.
</event>
<event>
 7    1  0.5889087E-006  0.1034339E+03  0.7818608E-02  0.1397953E+00
          2   -1    0    0  502    0  0.00000000000E+00  0.00000000000E+00  0.73713786837E+02  0.73713786837E+02  0.00000000000E+00 0. -1.
          1   -1    0    0  501    0 -0.00000000000E+00 -0.00000000000E+00 -0.13916017562E+04  0.13916017562E+04  0.00000000000E+00 0. -1.
         25    2    1    2    0    0 -0.47189100864E+02  0.11087671754E+03 -0.15983244677E+03  0.23599723250E+03  0.12501129939E+03 0.  0.
          2    1    1    2  501    0  0.63887048170E+02 -0.80377093280E+02 -0.11824142207E+04  0.11868636912E+04  0.00000000000E+00 0. -1.
          1    1    1    2  502    0 -0.16697947306E+02 -0.30499624256E+02  0.24358698183E+02  0.42454619315E+02  0.00000000000E+00 0. -1.
         22    1    3    3    0    0 -0.50461549473E+02  0.12598143168E+03 -0.16997835371E+03  0.21750937873E+03  0.00000000000E+00 0. -1.
         22    1    3    3    0    0  0.32724486090E+01 -0.15104714148E+02  0.10145906941E+02  0.18487853771E+02  0.00000000000E+00 0. -1.
</event>
<event>
 7    1  0.5889087E-006  0.1475819E+03  0.7818608E-02  0.1287478E+00
          2   -1    0    0  502    0  0.00000000000E+00  0.00000000000E+00  0.25092057093E+03  0.25092057093E+03  0.00000000000E+00 0. -1.
          1   -1    0    0  501    0 -0.00000000000E+00 -0.00000000000E+00 -0.15502577847E+04  0.15502577847E+04  0.00000000000E+00 0. -1.
         25    2    1    2    0    0  0.46902716768E+02  0.10468793424E+03 -0.14757307114E+03  0.22485381013E+03  0.12498798417E+03 0.  0.
          2    1    1    2  501    0 -0.40363459052E+02  0.48774146193E+02 -0.13354102542E+04  0.13369101216E+04  0.00000000000E+00 0. -1.
          1    1    1    2  502    0 -0.65392577154E+01 -0.15346208044E+03  0.18364611165E+03  0.23941442385E+03  0.00000000000E+00 0. -1.
         22    1    3    3    0    0  0.58500651931E+02  0.85753565592E+02 -0.34154012115E+02  0.10928173146E+03  0.00000000000E+00 0. -1.
         22    1    3    3    0    0 -0.11597935164E+02  0.18934368650E+02 -0.11341905903E+03  0.11557207866E+03  0.00000000000E+00 0. -1.
</event>
<event>
 7    1  0.5889087E-006  0.1658450E+03  0.7818608E-02  0.1233550E+00
          2   -1    0    0  502    0  0.00000000000E+00  0.00000000000E+00  0.16577578329E+03  0.16577578329E+03  0.00000000000E+00 0. -1.
          1   -1    0    0  501    0 -0.00000000000E+00 -0.00000000000E+00 -0.22138388235E+04  0.22138388235E+04  0.00000000000E+00 0. -1.
         25    2    1    2    0    0  0.12157892229E+03 -0.37164276190E+02 -0.10315826496E+04  0.10468763894E+04  0.12499917523E+03 0.  0.
          2    1    1    2  501    0 -0.19811802371E+03  0.94601517886E+02 -0.11487170608E+04  0.11695089073E+04  0.00000000000E+00 0. -1.
          1    1    1    2  502    0  0.76539101420E+02 -0.57437241696E+02  0.13223667014E+03  0.16322931020E+03  0.00000000000E+00 0. -1.
         22    1    3    3    0    0  0.97447955125E+02 -0.17472641746E+02 -0.98992212706E+03  0.99486039966E+03  0.00000000000E+00 0.  1.
         22    1    3    3    0    0  0.24130967168E+02 -0.19691634444E+02 -0.41660522569E+02  0.52015989698E+02  0.00000000000E+00 0.  1.
</event>
<event>
 7    1  0.5889087E-006  0.1412044E+03  0.7818608E-02  0.1369608E+00
          2   -1    0    0  502    0  0.00000000000E+00  0.00000000000E+00  0.14019739582E+04  0.14019739582E+04  0.00000000000E+00 0. -1.
          1   -1    0    0  501    0 -0.00000000000E+00 -0.00000000000E+00 -0.29505139647E+03  0.29505139647E+03  0.00000000000E+00 0. -1.
         25    2    1    2    0    0 -0.29061429759E+02 -0.10947053775E+03  0.19731366037E+03  0.25958804702E+03  0.12499963300E+03 0.  0.
          2    1    1    2  501    0 -0.58344761373E+01 -0.31517965227E+02 -0.25842622944E+03  0.26040648860E+03  0.00000000000E+00 0. -1.
          1    1    1    2  502    0  0.34895905896E+02  0.14098850297E+03  0.11680351308E+04  0.11770308191E+04  0.00000000000E+00 0. -1.
         22    1    3    3    0    0 -0.31323182172E+01  0.23078955710E+02  0.70781449384E+02  0.74514852150E+02  0.00000000000E+00 0.  1.
         22    1    3    3    0    0 -0.25929111542E+02 -0.13254949346E+03  0.12653221099E+03  0.18507319487E+03  0.00000000000E+00 0.  1.
</event>
<event>
 7    1  0.5889087E-006  0.4777046E+02  0.7818608E-02  0.1481563E+00
          2   -1    0    0  502    0  0.00000000000E+00  0.00000000000E+00  0.60149129189E+03  0.60149129189E+03  0.00000000000E+00 0. -1.
          1   -1    0    0  501    0 -0.00000000000E+00 -0.00000000000E+00 -0.19110217253E+03  0.19110217253E+03  0.00000000000E+00 0. -1.
         25    2    1    2    0    0  0.24368622045E+02  0.10348169005E+02  0.16372206634E+02  0.12878858006E+03  0.12497013588E+03 0.  0.
          2    1    1    2  501    0 -0.15362566304E+02  0.37231365013E+02 -0.13074776874E+03  0.13681067946E+03  0.00000000000E+00 0. -1.
          1    1    1    2  502    0 -0.90060557411E+01 -0.47579534018E+02  0.52476468145E+03  0.52699420490E+03  0.00000000000E+00 0. -1.
         22    1    3    3    0    0 -0.22134791067E+02  0.77375253884E+01 -0.45593652663E+02  0.51269868713E+02  0.00000000000E+00 0.  1.
         22    1    3    3    0    0  0.46503413112E+02  0.26106436166E+01  0.61965859297E+02  0.77518711351E+02  0.00000000000E+00 0.  1.
</event>
<event>
 7    1  0.5889087E-006  0.3832005E+02  0.7818608E-02  0.1578683E+00
          2   -1    0    0  502    0  0.00000000000E+00  0.00000000000E+00  0.37796652494E+03  0.37796652494E+03  0.00000000000E+00 0. -1.
          1   -1    0    0  501    0 -0.00000000000E+00 -0.00000000000E+00 -0.18556427808E+03  0.18556427808E+03  0.00000000000E+00 0. -1.
         25    2    1    2    0    0 -0.43148987822E+02 -0.40636537267E+02  0.13993142476E+03  0.19677235228E+03  0.12500156669E+03 0.  0.
          2    1    1    2  501    0  0.25203497661E+02  0.79967133051E+01 -0.15435598973E+03  0.15660439101E+03  0.00000000000E+00 0. -1.
          1    1    1    2  502    0  0.17945490162E+02  0.32639823962E+02  0.20682681184E+03  0.21015405973E+03  0.00000000000E+00 0. -1.
         22    1    3    3    0    0 -0.22316284992E+02  0.35937166103E+01 -0.19599547289E+02  0.29917781148E+02  0.00000000000E+00 0.  1.
         22    1    3    3    0    0 -0.20832702830E+02 -0.44230253877E+02  0.15953097205E+03  0.16685457113E+03  0.00000000000E+00 0.  1.
</event>
<event>
 7    1  0.5889087E-006  0.7803543E+02  0.7818608E-02  0.1341477E+00
          2   -1    0    0  502    0  0.00000000000E+00  0.00000000000E+00  0.36629774429E+02  0.36629774429E+02  0.00000000000E+00 0. -1.
          1   -1    0    0  501    0 -0.00000000000E+00 -0.00000000000E+00 -0.86699224385E+03  0.86699224385E+03  0.00000000000E+00 0. -1.
         25    2    1    2    0    0 -0.14706071873E+02 -0.66317547888E+02 -0.35674483731E+03  0.38406527479E+03  0.12499988260E+03 0.  0.
          2    1    1    2  501    0 -0.58874189679E+02  0.67286037532E+02 -0.41762917399E+03  0.42709215402E+03  0.00000000000E+00 0. -1.
          1    1    1    2  502    0  0.73580261553E+02 -0.96848964442E+00 -0.55988458127E+02  0.92464589470E+02  0.00000000000E+00 0. -1.
         22    1    3    3    0    0  0.31401000190E+02  0.20328692676E+02 -0.53111208825E+02  0.64962135600E+02  0.00000000000E+00 0.  1.
         22    1    3    3    0    0 -0.46107072063E+02 -0.86646240564E+02 -0.30363362848E+03  0.31910313919E+03  0.00000000000E+00 0.  1.
</event>
<event>
 7    1  0.5889087E-006  0.5419682E+02  0.7818608E-02  0.1513223E+00
          2   -1    0    0  502    0  0.00000000000E+00  0.00000000000E+00  0.20988070460E+02  0.20988070460E+02  0.00000000000E+00 0. -1.
          1   -1    0    0  501    0 -0.00000000000E+00 -0.00000000000E+00 -0.22594876009E+04  0.22594876009E+04  0.00000000000E+00 0. -1.
         25    2    1    2    0    0  0.12357190999E+02  0.33287184316E+02 -0.10335713231E+04  0.10417077608E+04  0.12499856814E+03 0.  0.
          2    1    1    2  501    0  0.23453078748E+01 -0.57745249031E+02 -0.12086130275E+04  0.12099939936E+04  0.00000000000E+00 0. -1.
          1    1    1    2  502    0 -0.14702498873E+02  0.24458064714E+02  0.36848201559E+01  0.28773917048E+02  0.00000000000E+00 0. -1.
         22    1    3    3    0    0 -0.24762406247E+01 -0.30734690421E+02 -0.77913596486E+02  0.83793087306E+02  0.00000000000E+00 0. -1.
         22    1    3    3    0    0  0.14833431623E+02  0.64021874737E+02 -0.95565772664E+03  0.95791467346E+03  0.00000000000E+00 0. -1.
</event>
<event>
 7    1  0.5889087E-006  0.4410554E+02  0.7818608E-02  0.1571830E+00
          2   -1    0    0  502    0  0.00000000000E+00  0.00000000000E+00  0.13101631446E+04  0.13101631446E+04  0.00000000000E+00 0. -1.
          1   -1    0    0  501    0 -0.00000000000E+00 -0.00000000000E+00 -0.51159704256E+03  0.51159704256E+03  0.00000000000E+00 0. -1.
         25    2    1    2    0    0 -0.67449593485E+02 -0.62233465122E+01  0.12328621104E+03  0.18818153155E+03  0.12499848511E+03 0.  0.
          2    1    1    2  501    0  0.23744009175E+02  0.33016620305E+01 -0.47843365919E+03  0.47903386643E+03  0.00000000000E+00 0. -1.
          1    1    1    2  502    0  0.43705584309E+02  0.29216844817E+01  0.11537135502E+04  0.11545447892E+04  0.00000000000E+00 0. -1.
         22    1    3    3    0    0 -0.49820369311E+01 -0.30033656721E+02  0.11715891462E+03  0.12104979348E+03  0.00000000000E+00 0.  1.
         22    1    3    3    0    0 -0.62467556554E+02  0.23810310209E+02  0.61272964225E+01  0.67131738064E+02  0.00000000000E+00 0.  1.
</event>
<event>
 7    1  0.5889087E-006  0.1592248E+03  0.7818608E-02  0.1204504E+00
          2   -1    0    0  502    0  0.00000000000E+00  0.00000000000E+00  0.13270219693E+03  0.13270219693E+03  0.00000000000E+00 0. -1.
          1   -1    0    0  501    0 -0.00000000000E+00 -0.00000000000E+00 -0.19867440635E+04  0.19867440635E+04  0.00000000000E+00 0. -1.
         25    2    1    2    0    0  0.14839424089E+03 -0.22865842718E+02 -0.38279647314E+03  0.42976971482E+03  0.12500068174E+03 0.  0.
          2    1    1    2  501    0 -0.60568166091E+02 -0.12096598848E+03 -0.15105762294E+04  0.15166218440E+04  0.00000000000E+00 0. -1.
          1    1    1    2  502    0 -0.87826074799E+02  0.14383183119E+03  0.39330835936E+02  0.17305470157E+03  0.00000000000E+00 0. -1.
         22    1    3    3    0    0  0.36172436047E+02 -0.44793190614E+02 -0.24012962754E+03  0.24693544314E+03  0.00000000000E+00 0. -1.
         22    1    3    3    0    0  0.11222180484E+03  0.21927347896E+02 -0.14266684560E+03  0.18283427168E+03  0.00000000000E+00 0. -1.
</event>
<event>
 7    1  0.5889087E-006  0.7717255E+02  0.7818608E-02  0.1510125E+00
          2   -1    0    0  502    0  0.00000000000E+00  0.00000000000E+00  0.72713018184E+03  0.72713018184E+03  0.00000000000E+00 0. -1.
          1   -1    0    0  501    0 -0.00000000000E+00 -0.00000000000E+00 -0.50976882473E+03  0.50976882473E+03  0.00000000000E+00 0. -1.
         25    2    1    2    0    0  0.73623894619E+02 -0.14315640693E+02  0.40573637591E+02  0.15131840329E+03  0.12500249469E+03 0.  0.
          2    1    1    2  501    0 -0.42804065136E+01 -0.20012690660E+02 -0.45179261207E+03  0.45225589436E+03  0.00000000000E+00 0. -1.
          1    1    1    2  502    0 -0.69343488105E+02  0.34328331353E+02  0.62858033158E+03  0.63332470892E+03  0.00000000000E+00 0. -1.
         22    1    3    3    0    0  0.87996052488E+02 -0.54219672500E+02  0.28195653808E+02  0.10713576916E+03  0.00000000000E+00 0.  1.
         22    1    3    3    0    0 -0.14372157869E+02  0.39904031807E+02  0.12377983783E+02  0.44182634131E+02  0.00000000000E+00 0.  1.
</event>
<event>
 7    1  0.5889087E-006  0.1052279E+03  0.7818608E-02  0.1355287E+00
          2   -1    0    0  502    0  0.00000000000E+00  0.00000000000E+00  0.30067902417E+03  0.30067902417E+03  0.00000000000E+00 0. -1.
          1   -1    0    0  501    0 -0.00000000000E+00 -0.00000000000E+00 -0.95945426620E+03  0.95945426620E+03  0.00000000000E+00 0. -1.
         25    2    1    2    0    0  0.10513803495E+02 -0.74041974822E+02  0.66606440003E+02  0.16017015260E+03  0.12500122333E+03 0.  0.
          2    1    1    2  501    0  0.32745657313E+02 -0.35765416525E+02 -0.89335654046E+03  0.89467164450E+03  0.00000000000E+00 0. -1.
          1    1    1    2  502    0 -0.43259460808E+02  0.10980739135E+03  0.16797485843E+03  0.20529149327E+03  0.00000000000E+00 0. -1.
         22    1    3    3    0    0  0.30812729284E+02 -0.34843267073E+01  0.79765254998E+02  0.85580726355E+02  0.00000000000E+00 0.  1.
         22    1    3    3    0    0 -0.20298925789E+02 -0.70557648114E+02 -0.13158814995E+02  0.74589426246E+02  0.00000000000E+00 0.  1.
</event>
<event>
 7    1  0.5889087E-006  0.1705920E+03  0.7818608E-02  0.1223046E+00
          2   -1    0    0  502    0  0.00000000000E+00  0.00000000000E+00  0.45295888291E+04  0.45295888291E+04  0.00000000000E+00 0. -1.
          1   -1    0    0  501    0 -0.00000000000E+00 -0.00000000000E+00 -0.16277506614E+03  0.16277506614E+03  0.00000000000E+00 0. -1.
         25    2    1    2    0    0 -0.67607402256E+02  0.10461003347E+03  0.32872452873E+03  0.37308981134E+03  0.12498868587E+03 0.  0.
          2    1    1    2  501    0  0.75106630881E+02  0.71530066738E+02 -0.11933763932E+03  0.15811081117E+03  0.00000000000E+00 0. -1.
          1    1    1    2  502    0 -0.74992286256E+01 -0.17614010021E+03  0.41574268735E+04  0.41611632727E+04  0.00000000000E+00 0. -1.
         22    1    3    3    0    0 -0.19139777550E+02  0.14118056463E+02  0.22812114515E+03  0.22935759736E+03  0.00000000000E+00 0. -1.
         22    1    3    3    0    0 -0.48467624706E+02  0.90491977011E+02  0.10060338358E+03  0.14373221398E+03  0.00000000000E+00 0. -1.
</event>
<event>
 7    1  0.5889087E-006  0.7416501E+02  0.7818608E-02  0.1351095E+00
          2   -1    0    0  502    0  0.00000000000E+00  0.00000000000E+00  0.18638351777E+04  0.18638351777E+04  0.00000000000E+00 0. -1.
          1   -1    0    0  501    0 -0.00000000000E+00 -0.00000000000E+00 -0.29118912368E+02  0.29118912368E+02  0.00000000000E+00 0. -1.
         25    2    1    2    0    0 -0.27608206071E+02 -0.31972012562E+02  0.69161721963E+03  0.70409040370E+03  0.12499798186E+03 0.  0.
          2    1    1    2  501    0  0.47633663228E+02 -0.53046275396E+02  0.38901630949E+02  0.81217055453E+02  0.00000000000E+00 0. -1.
          1    1    1    2  502    0 -0.20025457158E+02  0.85018287958E+02  0.11041974148E+04  0.11076466309E+04  0.00000000000E+00 0. -1.
         22    1    3    3    0    0 -0.44098221754E+02 -0.26123238776E+02  0.68238556643E+03  0.68430778019E+03  0.00000000000E+00 0. -1.
         22    1    3    3    0    0  0.16490015684E+02 -0.58487737861E+01  0.92316532021E+01  0.19782623509E+02  0.00000000000E+00 0. -1.
</event>
<event>
 7    1  0.5889087E-006  0.1150527E+03  0.7818608E-02  0.1355903E+00
          2   -1    0    0  502    0  0.00000000000E+00  0.00000000000E+00  0.12751148561E+03  0.12751148561E+03  0.00000000000E+00 0. -1.
          1   -1    0    0  501    0 -0.00000000000E+00 -0.00000000000E+00 -0.27471142951E+04  0.27471142951E+04  0.00000000000E+00 0. -1.
         25    2    1    2    0    0 -0.12346281233E+03  0.26438258817E+02 -0.34173592627E+03  0.38516371876E+03  0.12500239751E+03 0.  0.
          2    1    1    2  501    0  0.96861549566E+02 -0.61637087772E+02 -0.23776184960E+04  0.23803888344E+04  0.00000000000E+00 0. -1.
          1    1    1    2  502    0  0.26601262762E+02  0.35198828954E+02  0.99751612729E+02  0.10907322761E+03  0.00000000000E+00 0. -1.
         22    1    3    3    0    0 -0.97558471033E+02  0.18975991241E+02 -0.34403979607E+03  0.35810769999E+03  0.00000000000E+00 0.  1.
         22    1    3    3    0    0 -0.25904341295E+02  0.74622675768E+01  0.23038697984E+01  0.27056018764E+02  0.00000000000E+00 0.  1.
</event>
<event>
 7    1  0.5889087E-006  0.6583743E+02  0.7818608E-02  0.1481447E+00
          2   -1    0    0  502    0  0.00000000000E+00  0.00000000000E+00  0.27738392698E+03  0.27738392698E+03  0.00000000000E+00 0. -1.
          1   -1    0    0  501    0 -0.00000000000E+00 -0.00000000000E+00 -0.88095954961E+03  0.88095954961E+03  0.00000000000E+00 0. -1.
         25    2    1    2    0    0 -0.21962223517E+02 -0.91389298076E+02 -0.11912043644E+03  0.19659352802E+03  0.12499997527E+03 0.  0.
          2    1    1    2  501    0  0.10196661981E+02  0.27412604976E+02 -0.71836672090E+03  0.71896186862E+03  0.00000000000E+00 0. -1.
          1    1    1    2  502    0  0.11765561535E+02  0.63976693101E+02  0.23391153471E+03  0.24278807996E+03  0.00000000000E+00 0. -1.
         22    1    3    3    0    0  0.48890935746E+02 -0.16716716476E+02 -0.54258349658E+02  0.74924900504E+02  0.00000000000E+00 0. -1.
         22    1    3    3    0    0 -0.70853159263E+02 -0.74672581601E+02 -0.64862086784E+02  0.12166862752E+03  0.00000000000E+00 0. -1.
</event>
<event>
 7    1  0.5889087E-006  0.1040961E+03  0.7818608E-02  0.1292634E+00
          2   -1    0    0  502    0  0.00000000000E+00  0.00000000000E+00  0.63710364793E+02  0.63710364793E+02  0.00000000000E+00 0. -1.
          1   -1    0    0  501    0 -0.00000000000E+00 -0.00000000000E+00 -0.75212494153E+03  0.75212494153E+03  0.00000000000E+00 0. -1.
         25    2    1    2    0    0  0.41277731362E+02  0.34917207195E+01 -0.20990502399E+03  0.24780486177E+03  0.12502434644E+03 0.  0.
          2    1    1    2  501    0 -0.27428623445E+02 -0.10666246435E+03 -0.44537235824E+03  0.45878725807E+03  0.00000000000E+00 0. -1.
          1    1    1    2  502    0 -0.13849107917E+02  0.10317074363E+03 -0.33137194501E+02  0.10924318647E+03  0.00000000000E+00 0. -1.
         22    1    3    3    0    0 -0.33556925279E+01  0.28871696854E+02  0.26026651454E+01  0.29182347702E+02  0.00000000000E+00 0.  1.
         22    1    3    3    0    0  0.44633423890E+02 -0.25379976134E+02 -0.21250768914E+03  0.21862251407E+03  0.00000000000E+00 0.  1.
</event>
<event>
 7    1  0.5889087E-006  0.1045816E+03  0.7818608E-02  0.1364748E+00
          2   -1    0    0  502    0  0.00000000000E+00  0.00000000000E+00  0.16951457997E+04  0.16951457997E+04  0.00000000000E+00 0. -1.
          1   -1    0    0  501    0 -0.00000000000E+00 -0.00000000000E+00 -0.12802473903E+03  0.12802473903E+03  0.00000000000E+00 0. -1.
         25    2    1    2    0    0 -0.14605458791E+03 -0.17142250186E+02  0.38482812522E+03  0.43051548983E+03  0.12500040653E+03 0.  0.
          2    1    1    2  501    0  0.10132421836E+03  0.11682283207E+02 -0.79957538940E+02  0.12960046682E+03  0.00000000000E+00 0. -1.
          1    1    1    2  502    0  0.44730369551E+02  0.54599669793E+01  0.12622504744E+04  0.12630545821E+04  0.00000000000E+00 0. -1.
         22    1    3    3    0    0 -0.12638223710E+03 -0.52755966758E+02  0.20778768957E+03  0.24886017323E+03  0.00000000000E+00 0.  1.
         22    1    3    3    0    0 -0.19672350813E+02  0.35613716572E+02  0.17704043565E+03  0.18165531660E+03  0.00000000000E+00 0.  1.
</event>
<event>
 7    1  0.5889087E-006  0.1174919E+03  0.7818608E-02  0.1285925E+00
          2   -1    0    0  502    0  0.00000000000E+00  0.00000000000E+00  0.11913191468E+04  0.11913191468E+04  0.00000000000E+00 0. -1.
          1   -1    0    0  501    0 -0.00000000000E+00 -0.00000000000E+00 -0.32764565389E+02  0.32764565389E+02  0.00000000000E+00 0. -1.
         25    2    1    2    0    0 -0.58439151721E+02  0.47067692455E+02  0.33621203307E+03  0.36646180209E+03  0.12500087633E+03 0.  0.
          2    1    1    2  501    0 -0.79023303206E+02 -0.16338269918E+02  0.14646769958E+03  0.16722562164E+03  0.00000000000E+00 0. -1.
          1    1    1    2  502    0  0.13746245493E+03 -0.30729422536E+02  0.67587484872E+03  0.69039628842E+03  0.00000000000E+00 0. -1.
         22    1    3    3    0    0 -0.21725550447E+02 -0.96762520467E+01  0.27264273594E+03  0.27367807888E+03  0.00000000000E+00 0. -1.
         22    1    3    3    0    0 -0.36713601275E+02  0.56743944501E+02  0.63569297129E+02  0.92783723215E+02  0.00000000000E+00 0. -1.
</event>
<event>
 7    1  0.5889087E-006  0.1189504E+03  0.7818608E-02  0.1288190E+00
          2   -1    0    0  502    0  0.00000000000E+00  0.00000000000E+00  0.42213243893E+03  0.42213243893E+03  0.00000000000E+00 0. -1.
          1   -1    0    0  501    0 -0.00000000000E+00 -0.00000000000E+00 -0.11439142561E+04  0.11439142561E+04  0.00000000000E+00 0. -1.
         25    2    1    2    0    0 -0.10941372728E+03 -0.15620061835E+03 -0.19049128453E+03  0.29712185550E+03  0.12499788255E+03 0.  0.
          2    1    1    2  501    0  0.74561055236E+02  0.86393110971E+02 -0.89230612807E+03  0.89957398071E+03  0.00000000000E+00 0. -1.
          1    1    1    2  502    0  0.34852672048E+02  0.69807507384E+02  0.36101559538E+03  0.36935085886E+03  0.00000000000E+00 0. -1.
         22    1    3    3    0    0 -0.12503601513E+03 -0.16642760949E+03 -0.16556350874E+03  0.26597637058E+03  0.00000000000E+00 0. -1.
         22    1    3    3    0    0  0.15622287845E+02  0.10226991139E+02 -0.24927775785E+02  0.31145484919E+02  0.00000000000E+00 0. -1.
</event>
<event>
 7    1  0.5889087E-006  0.7401480E+02  0.7818608E-02  0.1391903E+00
          2   -1    0    0  502    0  0.00000000000E+00  0.00000000000E+00  0.17235025206E+04  0.17235025206E+04  0.00000000000E+00 0. -1.
          1   -1    0    0  501    0 -0.00000000000E+00 -0.00000000000E+00 -0.34552577298E+03  0.34552577298E+03  0.00000000000E+00 0. -1.
         25    2    1    2    0    0  0.66110146672E+02  0.36331389337E+02  0.61013526135E+02  0.15823321031E+03  0.12499830850E+03 0.  0.
          2    1    1    2  501    0 -0.39010486214E+02  0.32842800696E+02 -0.29386386949E+03  0.29825566447E+03  0.00000000000E+00 0. -1.
          1    1    1    2  502    0 -0.27099660459E+02 -0.69174190033E+02  0.16108270909E+04  0.16125394188E+04  0.00000000000E+00 0. -1.
         22    1    3    3    0    0  0.87026097030E+02  0.57420223303E+02  0.17761075399E+02  0.10576426338E+03  0.00000000000E+00 0.  1.
         22    1    3    3    0    0 -0.20915950358E+02 -0.21088833966E+02  0.43252450736E+02  0.52468946931E+02  0.00000000000E+00 0.  1.
</event>
<event>
 7    1  0.5889087E-006  0.4676342E+03  0.7818608E-02  0.1149304E+00
          2   -1    0    0  502    0  0.00000000000E+00  0.00000000000E+00  0.15128000582E+04  0.15128000582E+04  0.00000000000E+00 0. -1.
          1   -1    0    0  501    0 -0.00000000000E+00 -0.00000000000E+00 -0.62760048862E+03  0.62760048862E+03  0.00000000000E+00 0. -1.
         25    2    1    2    0    0  0.21016868935E+00 -0.39072247713E+03 -0.27643837337E+03  0.49468222844E+03  0.12501293758E+03 0.  0.
          2    1    1    2  501    0 -0.14069832143E+02 -0.84820580487E+02 -0.19229080670E+03  0.21063771123E+03  0.00000000000E+00 0. -1.
          1    1    1    2  502    0  0.13859663454E+02  0.47554305761E+03  0.13539287497E+04  0.14350806072E+04  0.00000000000E+00 0. -1.
         22    1    3    3    0    0 -0.49645409262E+02 -0.12828894059E+03 -0.56691304893E+02  0.14878381293E+03  0.00000000000E+00 0. -1.
         22    1    3    3    0    0  0.49855577951E+02 -0.26243353654E+03 -0.21974706847E+03  0.34589841551E+03  0.00000000000E+00 0. -1.
</event>
<event>
 7    1  0.5889087E-006  0.1125520E+03  0.7818608E-02  0.1282470E+00
          2   -1    0    0  502    0  0.00000000000E+00  0.00000000000E+00  0.21850944336E+03  0.21850944336E+03  0.00000000000E+00 0. -1.
          1   -1    0    0  501    0 -0.00000000000E+00 -0.00000000000E+00 -0.29707982933E+03  0.29707982933E+03  0.00000000000E+00 0. -1.
         25    2    1    2    0    0  0.64034423536E+00 -0.13995810631E+03  0.19334745753E+02  0.18863335400E+03  0.12498011156E+03 0.  0.
          2    1    1    2  501    0  0.69391847516E+02  0.88284041891E+02 -0.17682670594E+03  0.20946833768E+03  0.00000000000E+00 0. -1.
          1    1    1    2  502    0 -0.70032191751E+02  0.51674064419E+02  0.78921574222E+02  0.11748758101E+03  0.00000000000E+00 0. -1.
         22    1    3    3    0    0 -0.45685662630E+01 -0.16347521825E+03  0.17614642166E+02  0.16448493669E+03  0.00000000000E+00 0.  1.
         22    1    3    3    0    0  0.52089104983E+01  0.23517111936E+02  0.17201035870E+01  0.24148417314E+02  0.00000000000E+00 0.  1.
</event>
<event>
 7    1  0.5889087E-006  0.1099899E+03  0.7818608E-02  0.1453581E+00
          2   -1    0    0  502    0  0.00000000000E+00  0.00000000000E+00  0.11589094839E+04  0.11589094839E+04  0.00000000000E+00 0. -1.
          1   -1    0    0  501    0 -0.00000000000E+00 -0.00000000000E+00 -0.13256060751E+04  0.13256060751E+04  0.00000000000E+00 0. -1.
         25    2    1    2    0    0 -0.11137204577E+03 -0.68131130897E+02 -0.29556303438E+02  0.18315146449E+03  0.12500120117E+03 0.  0.
          2    1    1    2  501    0  0.91976367960E+02  0.59113092067E+02 -0.12166949434E+04  0.12215975586E+04  0.00000000000E+00 0. -1.
          1    1    1    2  502    0  0.19395677811E+02  0.90180388301E+01  0.10795546557E+04  0.10797665359E+04  0.00000000000E+00 0. -1.
         22    1    3    3    0    0 -0.81857332850E+02 -0.10510281082E+03 -0.17779680249E+02  0.13439992862E+03  0.00000000000E+00 0. -1.
         22    1    3    3    0    0 -0.29514712921E+02  0.36971679926E+02 -0.11776623189E+02  0.48751535864E+02  0.00000000000E+00 0. -1.
</event>
<event>
 7    1  0.5889087E-006  0.9145067E+02  0.7818608E-02  0.1459307E+00
          2   -1    0    0  502    0  0.00000000000E+00  0.00000000000E+00  0.78428238379E+03  0.78428238379E+03  0.00000000000E+00 0. -1.
          1   -1    0    0  501    0 -0.00000000000E+00 -0.00000000000E+00 -0.12756857016E+04  0.12756857016E+04  0.00000000000E+00 0. -1.
         25    2    1    2    0    0  0.80980017142E+02 -0.41534234987E+02  0.27228641232E+03  0.31312587568E+03  0.12500027134E+03 0.  0.
          2    1    1    2  501    0  0.92333961023E+01  0.22879704718E+02 -0.12508273080E+04  0.12510706179E+04  0.00000000000E+00 0. -1.
          1    1    1    2  502    0 -0.90213413244E+02  0.18654530269E+02  0.48713757790E+03  0.49577159180E+03  0.00000000000E+00 0. -1.
         22    1    3    3    0    0 -0.53681766880E+01 -0.58026728984E+02  0.61406169765E+02  0.84655987873E+02  0.00000000000E+00 0. -1.
         22    1    3    3    0    0  0.86348193830E+02  0.16492493997E+02  0.21088024255E+03  0.22846988781E+03  0.00000000000E+00 0. -1.
</event>
<event>
 7    1  0.5889087E-006  0.8643244E+02  0.7818608E-02  0.1492907E+00
          2   -1    0    0  502    0  0.00000000000E+00  0.00000000000E+00  0.51838078827E+03  0.51838078827E+03  0.00000000000E+00 0. -1.
          1   -1    0    0  501    0 -0.00000000000E+00 -0.00000000000E+00 -0.60754151363E+03  0.60754151363E+03  0.00000000000E+00 0. -1.
         25    2    1    2    0    0 -0.10291181997E+02  0.95209862399E+02 -0.18192003778E+03  0.24060286074E+03  0.12499604045E+03 0.  0.
          2    1    1    2  501    0 -0.15936996844E+02 -0.12993795110E+02 -0.39220147294E+03  0.39274014559E+03  0.00000000000E+00 0. -1.
          1    1    1    2  502    0  0.26228178841E+02 -0.82216067290E+02  0.48496078536E+03  0.49257929557E+03  0.00000000000E+00 0. -1.
         22    1    3    3    0    0 -0.65391558289E+02  0.58295565793E+02 -0.77854370460E+02  0.11719953876E+03  0.00000000000E+00 0.  1.
         22    1    3    3    0    0  0.55100376293E+02  0.36914296607E+02 -0.10406566732E+03  0.12340332198E+03  0.00000000000E+00 0.  1.
</event>
<event>
 7    1  0.5889087E-006  0.1886695E+03  0.7818608E-02  0.1221796E+00
          2   -1    0    0  502    0  0.00000000000E+00  0.00000000000E+00  0.23348472254E+04  0.23348472254E+04  0.00000000000E+00 0. -1.
          1   -1    0    0  501    0 -0.00000000000E+00 -0.00000000000E+00 -0.93384868437E+02  0.93384868437E+02  0.00000000000E+00 0. -1.
         25    2    1    2    0    0  0.12720785435E+03  0.11922769350E+03  0.70685632887E+03  0.73869363348E+03  0.12500133348E+03 0.  0.
          2    1    1    2  501    0 -0.58946402742E+02 -0.18531962954E+03  0.48535907886E+02  0.20043397378E+03  0.00000000000E+00 0. -1.
          1    1    1    2  502    0 -0.68261451608E+02  0.66091936037E+02  0.14860701202E+04  0.14891044865E+04  0.00000000000E+00 0. -1.
         22    1    3    3    0    0  0.64966916117E+02  0.33368834060E+02  0.10708906334E+03  0.12962348076E+03  0.00000000000E+00 0. -1.
         22    1    3    3    0    0  0.62240938233E+02  0.85858859444E+02  0.59976726553E+03  0.60907015272E+03  0.00000000000E+00 0. -1.
</event>
<event>
 7    1  0.5889087E-006  0.8302663E+02  0.7818608E-02  0.1366813E+00
          2   -1    0    0  502    0  0.00000000000E+00  0.00000000000E+00  0.42398290273E+03  0.42398290273E+03  0.00000000000E+00 0. -1.
          1   -1    0    0  501    0 -0.00000000000E+00 -0.00000000000E+00 -0.10500844798E+04  0.10500844798E+04  0.00000000000E+00 0. -1.
         25    2    1    2    0    0 -0.11512835133E+03 -0.39548177964E+02  0.60769460180E+02  0.18476009481E+03  0.12499907873E+03 0.  0.
          2    1    1    2  501    0  0.61548425141E+02  0.55106572072E+02 -0.98375930033E+03  0.98722201349E+03  0.00000000000E+00 0. -1.
          1    1    1    2  502    0  0.53579926193E+02 -0.15558394108E+02  0.29688826311E+03  0.30208527420E+03  0.00000000000E+00 0. -1.
         22    1    3    3    0    0 -0.70367129841E+02  0.38255290835E+02  0.76469856094E+01  0.80457918366E+02  0.00000000000E+00 0.  1.
         22    1    3    3    0    0 -0.44761221493E+02 -0.77803468799E+02  0.53122474571E+02  0.10430217645E+03  0.00000000000E+00 0.  1.
</event>
<event>
 7    1  0.5889087E-006  0.1781029E+03  0.7818608E-02  0.1379962E+00
          2   -1    0    0  502    0  0.00000000000E+00  0.00000000000E+00  0.19380741136E+04  0.19380741136E+04  0.00000000000E+00 0. -1.
          1   -1    0    0  501    0 -0.00000000000E+00 -0.00000000000E+00 -0.83943902551E+03  0.83943902551E+03  0.00000000000E+00 0. -1.
         25    2    1    2    0    0 -0.18734408837E+03 -0.28708269611E+02  0.56377889711E+03  0.60777716428E+03  0.12499785757E+03 0.  0.
          2    1    1    2  501    0  0.17184196373E+03  0.46155949423E+02 -0.80765457896E+03  0.82702234013E+03  0.00000000000E+00 0. -1.
          1    1    1    2  502    0  0.15502124647E+02 -0.17447679812E+02  0.13425107699E+04  0.13427136347E+04  0.00000000000E+00 0. -1.
         22    1    3    3    0    0 -0.17054685760E+03 -0.67651191454E+02  0.43217902287E+03  0.46951211076E+03  0.00000000000E+00 0. -1.
         22    1    3    3    0    0 -0.16797230772E+02  0.38942921843E+02  0.13159987424E+03  0.13826505352E+03  0.00000000000E+00 0. -1.
</event>
<event>
 7    1  0.5889087E-006  0.1020233E+03  0.7818608E-02  0.1451301E+00
          2   -1    0    0  502    0  0.00000000000E+00  0.00000000000E+00  0.14124036942E+04  0.14124036942E+04  0.00000000000E+00 0. -1.
          1   -1    0    0  501    0 -0.00000000000E+00 -0.00000000000E+00 -0.93046965922E+03  0.93046965922E+03  0.00000000000E+00 0. -1.
         25    2    1    2    0    0 -0.14299732224E+02 -0.10494151246E+03 -0.41014634098E+03  0.44165631820E+03  0.12499231580E+03 0.  0.
          2    1    1    2  501    0 -0.21480863070E+02  0.94042711806E+01 -0.50243154801E+03  0.50297845702E+03  0.00000000000E+00 0. -1.
          1    1    1    2  502    0  0.35780595294E+02  0.95537241283E+02  0.13945119240E+04  0.13982385782E+04  0.00000000000E+00 0. -1.
         22    1    3    3    0    0 -0.66608447595E+02 -0.39630850368E+02 -0.23698502847E+03  0.24933750883E+03  0.00000000000E+00 0.  1.
         22    1    3    3    0    0  0.52308715370E+02 -0.65310662096E+02 -0.17316131251E+03  0.19231880937E+03  0.00000000000E+00 0.  1.
</event>
<event>
 7    1  0.5889087E-006  0.4951501E+02  0.7818608E-02  0.1498342E+00
          2   -1    0    0  502    0  0.00000000000E+00  0.00000000000E+00  0.93078048919E+03  0.93078048919E+03  0.00000000000E+00 0. -1.
          1   -1    0    0  501    0 -0.00000000000E+00 -0.00000000000E+00 -0.12498248340E+04  0.12498248340E+04  0.00000000000E+00 0. -1.
         25    2    1    2    0    0  0.66457966211E+02 -0.41618890790E+02 -0.62761915175E+01  0.14769056417E+03  0.12499727526E+03 0.  0.
          2    1    1    2  501    0 -0.32143882037E+02  0.37417704246E+02 -0.11719750285E+04  0.11730126944E+04  0.00000000000E+00 0. -1.
          1    1    1    2  502    0 -0.34314084174E+02  0.42011865449E+01  0.85920687521E+03  0.85990206463E+03  0.00000000000E+00 0. -1.
         22    1    3    3    0    0  0.83881138789E+02 -0.65594050008E+02  0.19688986483E+02  0.10828795422E+03  0.00000000000E+00 0. -1.
         22    1    3    3    0    0 -0.17423172578E+02  0.23975159218E+02 -0.25965178001E+02  0.39402609949E+02  0.00000000000E+00 0. -1.
</event>
<event>
 7    1  0.5889087E-006  0.4072053E+02  0.7818608E-02  0.1598750E+00
          2   -1    0    0  502    0  0.00000000000E+00  0.00000000000E+00  0.18003623570E+02  0.18003623570E+02  0.00000000000E+00 0. -1.
          1   -1    0    0  501    0 -0.00000000000E+00 -0.00000000000E+00 -0.12926964103E+04  0.12926964103E+04  0.00000000000E+00 0. -1.
         25    2    1    2    0    0  0.18059950870E+02 -0.29710910166E+02 -0.30594373336E+03  0.33231438407E+03  0.12498952705E+03 0.  0.
          2    1    1    2  501    0  0.20298967178E+02  0.85186140970E+01 -0.87081869990E+03  0.87109690790E+03  0.00000000000E+00 0. -1.
          1    1    1    2  502    0 -0.38358918048E+02  0.21192296069E+02 -0.97930353449E+02  0.10728874188E+03  0.00000000000E+00 0. -1.
         22    1    3    3    0    0  0.58440154187E+01 -0.69313476100E+02 -0.97374612348E+02  0.11966756292E+03  0.00000000000E+00 0.  1.
         22    1    3    3    0    0  0.12215935452E+02  0.39602565934E+02 -0.20856912101E+03  0.21264682115E+03  0.00000000000E+00 0.  1.
</event>
<event>
 7    1  0.5889087E-006  0.7618869E+02  0.7818608E-02  0.1341637E+00
          2   -1    0    0  502    0  0.00000000000E+00  0.00000000000E+00  0.92743795130E+03  0.92743795130E+03  0.00000000000E+00 0. -1.
          1   -1    0    0  501    0 -0.00000000000E+00 -0.00000000000E+00 -0.19925362192E+03  0.19925362192E+03  0.00000000000E+00 0. -1.
         25    2    1    2    0    0  0.78373703921E+02 -0.15730823301E+02  0.60017777815E+03  0.61824621893E+03  0.12500050228E+03 0.  0.
          2    1    1    2  501    0 -0.14905920814E+02  0.74716333553E+02 -0.17629227729E+03  0.19205125360E+03  0.00000000000E+00 0. -1.
          1    1    1    2  502    0 -0.63467783107E+02 -0.58985510252E+02  0.30429882853E+03  0.31639410070E+03  0.00000000000E+00 0. -1.
         22    1    3    3    0    0 -0.21528751521E+02 -0.35426122106E+02  0.25554056917E+03  0.25888120782E+03  0.00000000000E+00 0. -1.
         22    1    3    3    0    0  0.99902455442E+02  0.19695298805E+02  0.34463720897E+03  0.35936501111E+03  0.00000000000E+00 0. -1.
</event>
<event>
 7    1  0.5889087E-006  0.1303698E+03  0.7818608E-02  0.1378086E+00
          2   -1    0    0  502    0  0.00000000000E+00  0.00000000000E+00  0.16898995318E+04  0.16898995318E+04  0.00000000000E+00 0. -1.
          1   -1    0    0  501    0 -0.00000000000E+00 -0.00000000000E+00 -0.68442703951E+03  0.68442703951E+03  0.00000000000E+00 0. -1.
         25    2    1    2    0    0 -0.95570208372E+02 -0.29186220160E+02  0.47126351384E+03  0.49769556002E+03  0.12500428320E+03 0.  0.
          2    1    1    2  501    0  0.12132641162E+03  0.48805742000E+02 -0.66462050404E+03  0.67736438717E+03  0.00000000000E+00 0. -1.
          1    1    1    2  502    0 -0.25756203251E+02 -0.19619521840E+02  0.11988294825E+04  0.11992666241E+04  0.00000000000E+00 0. -1.
         22    1    3    3    0    0 -0.86504389405E+02 -0.73294529354E+02  0.36723431921E+03  0.38433857811E+03  0.00000000000E+00 0.  1.
         22    1    3    3    0    0 -0.90658189664E+01  0.44108309194E+02  0.10402919462E+03  0.11335698191E+03  0.00000000000E+00 0.  1.
</event>
<event>
 7    1  0.5889087E-006  0.3604113E+02  0.7818608E-02  0.1594224E+00
          2   -1    0    0  502    0  0.00000000000E+00  0.00000000000E+00  0.15101443038E+04  0.15101443038E+04  0.00000000000E+00 0. -1.
          1   -1    0    0  501    0 -0.00000000000E+00 -0.00000000000E+00 -0.64185811568E+03  0.64185811568E+03  0.00000000000E+00 0. -1.
         25    2    1    2    0    0  0.57253882925E+02 -0.21441631042E+02  0.28075845811E+02  0.14195828278E+03  0.12500460103E+03 0.  0.
          2    1    1    2  501    0 -0.22577890654E+02  0.11985362606E+02 -0.58441085044E+03  0.58496961645E+03  0.00000000000E+00 0. -1.
          1    1    1    2  502    0 -0.34675992271E+02  0.94562684362E+01  0.14246211927E+04  0.14250745203E+04  0.00000000000E+00 0. -1.
         22    1    3    3    0    0 -0.60581289493E+01  0.25989146797E+02  0.52729427974E+02  0.59097624758E+02  0.00000000000E+00 0. -1.
         22    1    3    3    0    0  0.63312011874E+02 -0.47430777839E+02 -0.24653582163E+02  0.82860658020E+02  0.00000000000E+00 0. -1.
</event>
<event>
 7    1  0.5889087E-006  0.1190325E+03  0.7818608E-02  0.1346729E+00
          2   -1    0    0  502    0  0.00000000000E+00  0.00000000000E+00  0.20729565268E+04  0.20729565268E+04  0.00000000000E+00 0. -1.
          1   -1    0    0  501    0 -0.00000000000E+00 -0.00000000000E+00 -0.46644080051E+03  0.46644080051E+03  0.00000000000E+00 0. -1.
         25    2    1    2    0    0 -0.15853600966E+03  0.36252839194E+02  0.12627555485E+04  0.12793063510E+04  0.12500091836E+03 0.  0.
          2    1    1    2  501    0  0.11246697397E+03 -0.38187179727E+02 -0.44978730356E+03  0.46520500790E+03  0.00000000000E+00 0. -1.
          1    1    1    2  502    0  0.46069035683E+02  0.19343405325E+01  0.79354748128E+03  0.79488596841E+03  0.00000000000E+00 0. -1.
         22    1    3    3    0    0 -0.12696036921E+02 -0.34949965840E+02  0.13882026739E+03  0.14371414720E+03  0.00000000000E+00 0.  1.
         22    1    3    3    0    0 -0.14583997274E+03  0.71202805034E+02  0.11239352811E+04  0.11355922038E+04  0.00000000000E+00 0.  1.
</event>
<event>
 7    1  0.5889087E-006  0.8692571E+02  0.7818608E-02  0.1374107E+00
          2   -1    0    0  502    0  0.00000000000E+00  0.00000000000E+00  0.27098413621E+04  0.27098413621E+04  0.00000000000E+00 0. -1.
          1   -1    0    0  501    0 -0.00000000000E+00 -0.00000000000E+00 -0.66030932655E+02  0.66030932655E+02  0.00000000000E+00 0. -1.
         25    2    1    2    0    0 -0.22255729448E+02 -0.51184267348E+02  0.36031932518E+03  0.38544040352E+03  0.12497656518E+03 0.  0.
          2    1    1    2  501    0 -0.90238135891E+01  0.90409701205E+02 -0.14400185172E+02  0.91992981344E+02  0.00000000000E+00 0. -1.
          1    1    1    2  502    0  0.31279543037E+02 -0.39225433857E+02  0.22978912895E+04  0.22984389099E+04  0.00000000000E+00 0. -1.
         22    1    3    3    0    0 -0.40806881023E+02 -0.38752923332E+02  0.52979891369E+02  0.77290746503E+02  0.00000000000E+00 0.  1.
         22    1    3    3    0    0  0.18551151575E+02 -0.12431344016E+02  0.30733943382E+03  0.30814965701E+03  0.00000000000E+00 0.  1.
</event>
<event>
 7    1  0.5889087E-006  0.1022725E+03  0.7818608E-02  0.1467511E+00
          2   -1    0    0  502    0  0.00000000000E+00  0.00000000000E+00  0.15306791763E+03  0.15306791763E+03  0.00000000000E+00 0. -1.
          1   -1    0    0  501    0 -0.00000000000E+00 -0.00000000000E+00 -0.25784527666E+04  0.25784527666E+04  0.00000000000E+00 0. -1.
         25    2    1    2    0    0 -0.24030802013E+02  0.86508101709E+02 -0.22457602334E+03  0.27225022317E+03  0.12499865058E+03 0.  0.
          2    1    1    2  501    0  0.10599212103E+02 -0.10237881323E+03 -0.23280588882E+04  0.23303330130E+04  0.00000000000E+00 0. -1.
          1    1    1    2  502    0  0.13431589910E+02  0.15870711518E+02  0.12725006255E+03  0.12893744805E+03  0.00000000000E+00 0. -1.
         22    1    3    3    0    0 -0.72439614443E+02  0.27624517694E+02 -0.10731043993E+03  0.13238633705E+03  0.00000000000E+00 0.  1.
         22    1    3    3    0    0  0.48408812430E+02  0.58883584014E+02 -0.11726558341E+03  0.13986388612E+03  0.00000000000E+00 0.  1.
</event>
<event>
 7    1  0.5889087E-006  0.3119510E+03  0.7818608E-02  0.1282590E+00
          2   -1    0    0  502    0  0.00000000000E+00  0.00000000000E+00  0.24010370774E+04  0.24010370774E+04  0.00000000000E+00 0. -1.
          1   -1    0    0  501    0 -0.00000000000E+00 -0.00000000000E+00 -0.43141804365E+03  0.43141804365E+03  0.00000000000E+00 0. -1.
         25    2    1    2    0    0 -0.13856844952E+03 -0.26452284152E+03  0.71558860112E+03  0.78540803610E+03  0.12500075287E+03 0.  0.
          2    1    1    2  501    0 -0.31026773540E+02 -0.45984188593E+01 -0.38053045690E+03  0.38182094595E+03  0.00000000000E+00 0. -1.
          1    1    1    2  502    0  0.16959522306E+03  0.26912126038E+03  0.16345608895E+04  0.16652261390E+04  0.00000000000E+00 0. -1.
         22    1    3    3    0    0  0.21445962850E+02 -0.15412063839E+02  0.79899547834E+02  0.84151047399E+02  0.00000000000E+00 0. -1.
         22    1    3    3    0    0 -0.16001441237E+03 -0.24911077768E+03  0.63568905329E+03  0.70125698870E+03  0.00000000000E+00 0. -1.
</event>
<event>
 7    1  0.5889087E-006  0.4113300E+03  0.7818608E-02  0.1132732E+00
          2   -1    0    0  502    0  0.00000000000E+00  0.00000000000E+00  0.25682399021E+04  0.25682399021E+04  0.00000000000E+00 0. -1.
          1   -1    0    0  501    0 -0.00000000000E+00 -0.00000000000E+00 -0.19822171427E+03  0.19822171427E+03  0.00000000000E+00 0. -1.
         25    2    1    2    0    0 -0.64352908257E+02 -0.33118875735E+03  0.64023892141E+03  0.73440963486E+03  0.12499738191E+03 0.  0.
          2    1    1    2  501    0 -0.26019709177E+01 -0.11930403166E+03 -0.94224491993E+02  0.15204761463E+03  0.00000000000E+00 0. -1.
          1    1    1    2  502    0  0.66954879174E+02  0.45049278901E+03  0.18240037584E+04  0.18800043669E+04  0.00000000000E+00 0. -1.
         22    1    3    3    0    0 -0.48295642636E+01 -0.14179543149E+03  0.15499831424E+03  0.21012792889E+03  0.00000000000E+00 0. -1.
         22    1    3    3    0    0 -0.59523343993E+02 -0.18939332585E+03  0.48524060718E+03  0.52428170597E+03  0.00000000000E+00 0. -1.
</event>
<event>
 7    1  0.5889087E-006  0.9289911E+02  0.7818608E-02  0.1352548E+00
          2   -1    0    0  502    0  0.00000000000E+00  0.00000000000E+00  0.18795452233E+04  0.18795452233E+04  0.00000000000E+00 0. -1.
          1   -1    0    0  501    0 -0.00000000000E+00 -0.00000000000E+00 -0.37491517969E+03  0.37491517969E+03  0.00000000000E+00 0. -1.
         25    2    1    2    0    0  0.58894600681E+02 -0.49161309881E+02  0.72515875131E+02  0.16361342691E+03  0.12500157175E+03 0.  0.
          2    1    1    2  501    0 -0.37290067100E+02 -0.42069890970E+02 -0.32570918181E+03  0.33052518201E+03  0.00000000000E+00 0. -1.
          1    1    1    2  502    0 -0.21604533581E+02  0.91231200851E+02  0.17578233503E+04  0.17603217940E+04  0.00000000000E+00 0. -1.
         22    1    3    3    0    0  0.85712917941E+02 -0.34931592905E+02  0.89562157191E+02  0.12879557634E+03  0.00000000000E+00 0. -1.
         22    1    3    3    0    0 -0.26818317259E+02 -0.14229716976E+02 -0.17046282061E+02  0.34817850564E+02  0.00000000000E+00 0. -1.
</event>
<event>
 7    1  0.5889087E-006  0.9657697E+02  0.7818608E-02  0.1304473E+00
          2   -1    0    0  502    0  0.00000000000E+00  0.00000000000E+00  0.59621703907E+03  0.59621703907E+03  0.00000000000E+00 0. -1.
          1   -1    0    0  501    0 -0.00000000000E+00 -0.00000000000E+00 -0.18111800028E+03  0.18111800028E+03  0.00000000000E+00 0. -1.
         25    2    1    2    0    0 -0.74851459903E+02  0.26311161555E+02 -0.92100895071E+02  0.17436182807E+03  0.12499781575E+03 0.  0.
          2    1    1    2  501    0  0.13722591426E+03 -0.80512361663E+02  0.10099720897E+03  0.18845059868E+03  0.00000000000E+00 0. -1.
          1    1    1    2  502    0 -0.62374454354E+02  0.54201200108E+02  0.40620272489E+03  0.41452261260E+03  0.00000000000E+00 0. -1.
         22    1    3    3    0    0 -0.65403358216E+02  0.54016719622E+02 -0.11086342019E+03  0.13959263305E+03  0.00000000000E+00 0. -1.
         22    1    3    3    0    0 -0.94481016868E+01 -0.27705558066E+02  0.18762525121E+02  0.34769195018E+02  0.00000000000E+00 0. -1.
</event>
<event>
 7    1  0.5889087E-006  0.8569637E+02  0.7818608E-02  0.1415523E+00
          2   -1    0    0  502    0  0.00000000000E+00  0.00000000000E+00  0.42631531830E+03  0.42631531830E+03  0.00000000000E+00 0. -1.
          1   -1    0    0  501    0 -0.00000000000E+00 -0.00000000000E+00 -0.48538772330E+03  0.48538772330E+03  0.00000000000E+00 0. -1.
         25    2    1    2    0    0 -0.56763503969E+02  0.34856633565E+02 -0.10855472712E+03  0.17845468661E+03  0.12499946443E+03 0.  0.
          2    1    1    2  501    0  0.54197660097E+02 -0.71333821679E+02 -0.33513199115E+03  0.34689962808E+03  0.00000000000E+00 0. -1.
          1    1    1    2  502    0  0.25658438724E+01  0.36477188113E+02  0.38461431327E+03  0.38634872690E+03  0.00000000000E+00 0. -1.
         22    1    3    3    0    0 -0.63068750614E+02  0.51655518416E+01  0.24973432118E+01  0.63329195107E+02  0.00000000000E+00 0. -1.
         22    1    3    3    0    0  0.63052466447E+01  0.29691081724E+02 -0.11105207033E+03  0.11512549151E+03  0.00000000000E+00 0. -1.
</event>
<event>
 7    1  0.5889087E-006  0.5659693E+02  0.7818608E-02  0.1443308E+00
          2   -1    0    0  502    0  0.00000000000E+00  0.00000000000E+00  0.26960171380E+04  0.26960171380E+04  0.00000000000E+00 0. -1.
          1   -1    0    0  501    0 -0.00000000000E+00 -0.00000000000E+00 -0.15393270331E+02  0.15393270331E+02  0.00000000000E+00 0. -1.
         25    2    1    2    0    0  0.25046976898E+01  0.70783212262E+02  0.63542089763E+03  0.65145991484E+03  0.12499506731E+03 0.  0.
          2    1    1    2  501    0  0.34858161957E+02 -0.28211751595E+02  0.65174427766E+02  0.79111948641E+02  0.00000000000E+00 0. -1.
          1    1    1    2  502    0 -0.37362859647E+02 -0.42571460667E+02  0.19800285423E+04  0.19808385449E+04  0.00000000000E+00 0. -1.
         22    1    3    3    0    0 -0.18927223895E+02 -0.32329625148E+02  0.13670778536E+03  0.14174788550E+03  0.00000000000E+00 0. -1.
         22    1    3    3    0    0  0.21431921585E+02  0.10311283741E+03  0.49871311227E+03  0.50971202934E+03  0.00000000000E+00 0. -1.
</event>
<event>
 7    1  0.5889087E-006  0.6521382E+02  0.7818608E-02  0.1397097E+00
          2   -1    0    0  502    0  0.00000000000E+00  0.00000000000E+00  0.21665987926E+04  0.21665987926E+04  0.00000000000E+00 0. -1.
          1   -1    0    0  501    0 -0.00000000000E+00 -0.00000000000E+00 -0.65394698440E+02  0.65394698440E+02  0.00000000000E+00 0. -1.
         25    2    1    2    0    0  0.11777099862E+02 -0.11860720791E+03  0.84890189049E+03  0.86629480476E+03  0.12500359683E+03 0.  0.
          2    1    1    2  501    0 -0.14295591793E+01  0.64053727752E+02 -0.37808517501E+02  0.74393599685E+02  0.00000000000E+00 0. -1.
          1    1    1    2  502    0 -0.10347540683E+02  0.54553480161E+02  0.12901107212E+04  0.12913050866E+04  0.00000000000E+00 0. -1.
         22    1    3    3    0    0  0.64403116595E+02 -0.38956836764E+02  0.44043253502E+03  0.44681787616E+03  0.00000000000E+00 0. -1.
         22    1    3    3    0    0 -0.52626016733E+02 -0.79650371150E+02  0.40846935547E+03  0.41947692859E+03  0.00000000000E+00 0. -1.
</event>
<event>
 7    1  0.5889087E-006  0.1043655E+03  0.7818608E-02  0.1358944E+00
          2   -1    0    0  502    0  0.00000000000E+00  0.00000000000E+00  0.45655209651E+03  0.45655209651E+03  0.00000000000E+00 0. -1.
          1   -1    0    0  501    0 -0.00000000000E+00 -0.00000000000E+00 -0.31477296307E+03  0.31477296307E+03  0.00000000000E+00 0. -1.
         25    2    1    2    0    0 -0.13224460006E+03  0.27020028715E+02  0.16578364781E+02  0.18471083495E+03  0.12499813666E+03 0.  0.
          2    1    1    2  501    0  0.30534271697E+02 -0.36263283865E+02 -0.22081215635E+03  0.22584369793E+03  0.00000000000E+00 0. -1.
          1    1    1    2  502    0  0.10171032837E+03  0.92432551494E+01  0.34601292500E+03  0.36077052670E+03  0.00000000000E+00 0. -1.
         22    1    3    3    0    0 -0.63815639117E+02 -0.44856845002E+02 -0.17202182761E+02  0.79877953349E+02  0.00000000000E+00 0.  1.
         22    1    3    3    0    0 -0.68428960947E+02  0.71876873718E+02  0.33780547542E+02  0.10483288160E+03  0.00000000000E+00 0.  1.
</event>
<event>
 7    1  0.5889087E-006  0.9588270E+02  0.7818608E-02  0.1329462E+00
          2   -1    0    0  502    0  0.00000000000E+00  0.00000000000E+00  0.27733878103E+03  0.27733878103E+03  0.00000000000E+00 0. -1.
          1   -1    0    0  501    0 -0.00000000000E+00 -0.00000000000E+00 -0.40097466557E+03  0.40097466557E+03  0.00000000000E+00 0. -1.
         25    2    1    2    0    0 -0.47121148867E+02  0.60899040058E+02 -0.21999024157E+03  0.26448150932E+03  0.12500266653E+03 0.  0.
          2    1    1    2  501    0 -0.48990347679E+02 -0.44979239615E+02 -0.14174547343E+03  0.15657255635E+03  0.00000000000E+00 0. -1.
          1    1    1    2  502    0  0.96111496547E+02 -0.15919800443E+02  0.23809983046E+03  0.25725938094E+03  0.00000000000E+00 0. -1.
         22    1    3    3    0    0 -0.78288311609E+02  0.24135960836E+02 -0.19199757851E+03  0.20874547778E+03  0.00000000000E+00 0. -1.
         22    1    3    3    0    0  0.31167162741E+02  0.36763079222E+02 -0.27992663059E+02  0.55736031545E+02  0.00000000000E+00 0. -1.
</event>
<event>
 7    1  0.5889087E-006  0.9440689E+02  0.7818608E-02  0.1392041E+00
          2   -1    0    0  502    0  0.00000000000E+00  0.00000000000E+00  0.87633271396E+02  0.87633271396E+02  0.00000000000E+00 0. -1.
          1   -1    0    0  501    0 -0.00000000000E+00 -0.00000000000E+00 -0.21360396381E+04  0.21360396381E+04  0.00000000000E+00 0. -1.
         25    2    1    2    0    0  0.20599326301E+02  0.13085417582E+03 -0.61395481522E+03  0.64039975771E+03  0.12499674785E+03 0.  0.
          2    1    1    2  501    0 -0.87807222288E+01 -0.38958414517E+02 -0.14796465147E+04  0.14801853491E+04  0.00000000000E+00 0. -1.
          1    1    1    2  502    0 -0.11818604072E+02 -0.91895761298E+02  0.45194963287E+02  0.10308780264E+03  0.00000000000E+00 0. -1.
         22    1    3    3    0    0 -0.14294117860E+01  0.15653968543E+02 -0.36352879206E+03  0.36386848257E+03  0.00000000000E+00 0.  1.
         22    1    3    3    0    0  0.22028738087E+02  0.11520020727E+03 -0.25042602316E+03  0.27653127514E+03  0.00000000000E+00 0.  1.
</event>
<event>
 7    1  0.5889087E-006  0.6710019E+03  0.7818608E-02  0.1178070E+00
          2   -1    0    0  502    0  0.00000000000E+00  0.00000000000E+00  0.13637304281E+04  0.13637304281E+04  0.00000000000E+00 0. -1.
          1   -1    0    0  501    0 -0.00000000000E+00 -0.00000000000E+00 -0.19116265602E+04  0.19116265602E+04  0.00000000000E+00 0. -1.
         25    2    1    2    0    0 -0.68718478779E+03  0.52951207603E+02  0.30752003725E+02  0.70114024904E+03  0.12500080054E+03 0.  0.
          2    1    1    2  501    0  0.66748432489E+03 -0.14772167050E+02 -0.15052221366E+04  0.16466472668E+04  0.00000000000E+00 0. -1.
          1    1    1    2  502    0  0.19700462899E+02 -0.38179040553E+02  0.92657400069E+03  0.92756947241E+03  0.00000000000E+00 0. -1.
         22    1    3    3    0    0 -0.21192347014E+03  0.74567742523E+02  0.13903403613E+02  0.22508933793E+03  0.00000000000E+00 0. -1.
         22    1    3    3    0    0 -0.47526131766E+03 -0.21616534920E+02  0.16848600112E+02  0.47605091111E+03  0.00000000000E+00 0. -1.
</event>
<event>
 7    1  0.5889087E-006  0.3190353E+03  0.7818608E-02  0.1173597E+00
          2   -1    0    0  502    0  0.00000000000E+00  0.00000000000E+00  0.13767778982E+04  0.13767778982E+04  0.00000000000E+00 0. -1.
          1   -1    0    0  501    0 -0.00000000000E+00 -0.00000000000E+00 -0.14697511518E+04  0.14697511518E+04  0.00000000000E+00 0. -1.
         25    2    1    2    0    0  0.24580284664E+03 -0.54484787098E+01 -0.26954679003E+03  0.38565451723E+03  0.12500083722E+03 0.  0.
          2    1    1    2  501    0  0.73206468919E+02  0.60628874980E+02 -0.11202374868E+04  0.11242629027E+04  0.00000000000E+00 0. -1.
          1    1    1    2  502    0 -0.31900931556E+03 -0.55180396271E+02  0.12968110232E+04  0.13366116300E+04  0.00000000000E+00 0. -1.
         22    1    3    3    0    0  0.92013742244E+02 -0.39215678874E+02 -0.40950927851E+02  0.10808041785E+03  0.00000000000E+00 0.  1.
         22    1    3    3    0    0  0.15378910440E+03  0.33767200165E+02 -0.22859586218E+03  0.27757409938E+03  0.00000000000E+00 0.  1.
</event>
<event>
 7    1  0.5889087E-006  0.6929116E+02  0.7818608E-02  0.1379920E+00
          2   -1    0    0  502    0  0.00000000000E+00  0.00000000000E+00  0.44057519449E+03  0.44057519449E+03  0.00000000000E+00 0. -1.
          1   -1    0    0  501    0 -0.00000000000E+00 -0.00000000000E+00 -0.11598106228E+04  0.11598106228E+04  0.00000000000E+00 0. -1.
         25    2    1    2    0    0 -0.94335844871E+02  0.40438721979E+02  0.10181987949E+03  0.19112030544E+03  0.12500056571E+03 0.  0.
          2    1    1    2  501    0  0.57688783369E+02  0.16535644095E+02 -0.11104385248E+04  0.11120589645E+04  0.00000000000E+00 0. -1.
          1    1    1    2  502    0  0.36647061502E+02 -0.56974366074E+02  0.28938321698E+03  0.29720654733E+03  0.00000000000E+00 0. -1.
         22    1    3    3    0    0 -0.19004747952E+01 -0.28195078762E+02 -0.10624002064E+02  0.30190125715E+02  0.00000000000E+00 0. -1.
         22    1    3    3    0    0 -0.92435370076E+02  0.68633800740E+02  0.11244388156E+03  0.16093017972E+03  0.00000000000E+00 0. -1.
</event>
<event>
 7    1  0.5889087E-006  0.1358075E+03  0.7818608E-02  0.1291726E+00
          2   -1    0    0  502    0  0.00000000000E+00  0.00000000000E+00  0.89003659410E+03  0.89003659410E+03  0.00000000000E+00 0. -1.
          1   -1    0    0  501    0 -0.00000000000E+00 -0.00000000000E+00 -0.56316187764E+03  0.56316187764E+03  0.00000000000E+00 0. -1.
         25    2    1    2    0    0  0.14843959258E+03 -0.13156897094E+03  0.10386162426E+03  0.25642929024E+03  0.12499614850E+03 0.  0.
          2    1    1    2  501    0 -0.10325057588E+03  0.83309526765E+02 -0.47625199947E+03  0.49438560423E+03  0.00000000000E+00 0. -1.
          1    1    1    2  502    0 -0.45189016701E+02  0.48259444177E+02  0.69926509167E+03  0.70238357727E+03  0.00000000000E+00 0. -1.
         22    1    3    3    0    0  0.10322787478E+03 -0.15100794488E+03  0.96037528496E+02  0.20659767769E+03  0.00000000000E+00 0. -1.
         22    1    3    3    0    0  0.45211717805E+02  0.19438973940E+02  0.78240957646E+01  0.49831612549E+02  0.00000000000E+00 0. -1.
</event>
<event>
 7    1  0.5889087E-006  0.8824075E+02  0.7818608E-02  0.1323267E+00
          2   -1    0    0  502    0  0.00000000000E+00  0.00000000000E+00  0.59078773025E+03  0.59078773025E+03  0.00000000000E+00 0. -1.
          1   -1    0    0  501    0 -0.00000000000E+00 -0.00000000000E+00 -0.40620768026E+04  0.40620768026E+04  0.00000000000E+00 0. -1.
         25    2    1    2    0    0  0.55691485951E+02 -0.49923866785E+02  0.14121921164E+03  0.20288307645E+03  0.12499897156E+03 0.  0.
          2    1    1    2  501    0  0.37976210249E+02  0.66221460937E+02 -0.40254815838E+04  0.40262053419E+04  0.00000000000E+00 0. -1.
          1    1    1    2  502    0 -0.93667696200E+02 -0.16297594152E+02  0.41297329974E+03  0.42377611446E+03  0.00000000000E+00 0. -1.
         22    1    3    3    0    0  0.75926510787E+02 -0.10057917904E+02  0.28670827173E+02  0.81780273193E+02  0.00000000000E+00 0. -1.
         22    1    3    3    0    0 -0.20235024836E+02 -0.39865948881E+02  0.11254838447E+03  0.12110280326E+03  0.00000000000E+00 0. -1.
</event>
<event>
 7    1  0.5889087E-006  0.1463172E+03  0.7818608E-02  0.1310201E+00
          2   -1    0    0  502    0  0.00000000000E+00  0.00000000000E+00  0.16253004450E+04  0.16253004450E+04  0.00000000000E+00 0. -1.
          1   -1    0    0  501    0 -0.00000000000E+00 -0.00000000000E+00 -0.11732571811E+04  0.11732571811E+04  0.00000000000E+00 0. -1.
         25    2    1    2    0    0  0.98012453581E+02 -0.29050385131E+01 -0.19097580690E+02  0.16000939256E+03  0.12499363109E+03 0.  0.
          2    1    1    2  501    0  0.48882059408E+02 -0.17045763561E+02 -0.10795485302E+04  0.10807890834E+04  0.00000000000E+00 0. -1.
          1    1    1    2  502    0 -0.14689451299E+03  0.19950802074E+02  0.15506893749E+04  0.15577591501E+04  0.00000000000E+00 0. -1.
         22    1    3    3    0    0  0.84261685250E+02 -0.43694495480E+02  0.25238273305E+02  0.98215126003E+02  0.00000000000E+00 0. -1.
         22    1    3    3    0    0  0.13750768332E+02  0.40789456967E+02 -0.44335853995E+02  0.61794266553E+02  0.00000000000E+00 0. -1.
</event>
<event>
 7    1  0.5889087E-006  0.4632818E+02  0.7818608E-02  0.1496272E+00
          2   -1    0    0  502    0  0.00000000000E+00  0.00000000000E+00  0.89593704506E+03  0.89593704506E+03  0.00000000000E+00 0. -1.
          1   -1    0    0  501    0 -0.00000000000E+00 -0.00000000000E+00 -0.27270751956E+03  0.27270751956E+03  0.00000000000E+00 0. -1.
         25    2    1    2    0    0  0.26752910226E+02 -0.76812068444E+02  0.75492578546E+00  0.14913603836E+03  0.12500070384E+03 0.  0.
          2    1    1    2  501    0 -0.30301966629E+01  0.37356929202E+02 -0.19609536100E+03  0.19964496702E+03  0.00000000000E+00 0. -1.
          1    1    1    2  502    0 -0.23722713563E+02  0.39455139242E+02  0.81856996072E+03  0.81986355923E+03  0.00000000000E+00 0. -1.
         22    1    3    3    0    0  0.75207341071E+02 -0.44111207299E+02 -0.15284903738E+02  0.88518760964E+02  0.00000000000E+00 0. -1.
         22    1    3    3    0    0 -0.48454430845E+02 -0.32700861145E+02  0.16039829524E+02  0.60617277399E+02  0.00000000000E+00 0. -1.
</event>
<event>
 7    1  0.5889087E-006  0.1388103E+03  0.7818608E-02  0.1283974E+00
          2   -1    0    0  502    0  0.00000000000E+00  0.00000000000E+00  0.14929107005E+04  0.14929107005E+04  0.00000000000E+00 0. -1.
          1   -1    0    0  501    0 -0.00000000000E+00 -0.00000000000E+00 -0.70688340368E+03  0.70688340368E+03  0.00000000000E+00 0. -1.
         25    2    1    2    0    0 -0.87520032975E+02  0.17425519123E+03  0.75083652312E+02  0.24349005434E+03  0.12500089549E+03 0.  0.
          2    1    1    2  501    0 -0.35335554923E+00 -0.69570337858E+02 -0.61721892226E+03  0.62112748673E+03  0.00000000000E+00 0. -1.
          1    1    1    2  502    0  0.87873388524E+02 -0.10468485337E+03  0.13281625668E+04  0.13351765631E+04  0.00000000000E+00 0. -1.
         22    1    3    3    0    0 -0.53693544314E+02  0.18717526419E+03  0.70004603151E+02  0.20692564048E+03  0.00000000000E+00 0.  1.
         22    1    3    3    0    0 -0.33826488661E+02 -0.12920072959E+02  0.50790491615E+01  0.36564413858E+02  0.00000000000E+00 0.  1.
</event>
<event>
 7    1  0.5889087E-006  0.1585283E+03  0.7818608E-02  0.1240666E+00
          2   -1    0    0  502    0  0.00000000000E+00  0.00000000000E+00  0.20590156075E+04  0.20590156075E+04  0.00000000000E+00 0. -1.
          1   -1    0    0  501    0 -0.00000000000E+00 -0.00000000000E+00 -0.36555081429E+03  0.36555081429E+03  0.00000000000E+00 0. -1.
         25    2    1    2    0    0  0.52697247014E+02  0.10995965474E+03 -0.99957119174E+02  0.20120136255E+03  0.12498974800E+03 0.  0.
          2    1    1    2  501    0 -0.14268803787E+03 -0.13381276902E+03 -0.16913758390E+03  0.25859863803E+03  0.00000000000E+00 0. -1.
          1    1    1    2  502    0  0.89990790856E+02  0.23853114278E+02  0.19625594963E+04  0.19647664212E+04  0.00000000000E+00 0. -1.
         22    1    3    3    0    0  0.76115820599E+02  0.27160915328E+02 -0.18919449557E+02  0.83001680938E+02  0.00000000000E+00 0. -1.
         22    1    3    3    0    0 -0.23418573585E+02  0.82798739412E+02 -0.81037669617E+02  0.11819968161E+03  0.00000000000E+00 0. -1.
</event>
<event>
 7    1  0.5889087E-006  0.4760728E+03  0.7818608E-02  0.1262343E+00
          2   -1    0    0  502    0  0.00000000000E+00  0.00000000000E+00  0.59005202669E+03  0.59005202669E+03  0.00000000000E+00 0. -1.
          1   -1    0    0  501    0 -0.00000000000E+00 -0.00000000000E+00 -0.16060359613E+04  0.16060359613E+04  0.00000000000E+00 0. -1.
         25    2    1    2    0    0  0.32221099453E+03 -0.32532677045E+03 -0.22893805528E+03  0.52696750684E+03  0.12499875016E+03 0.  0.
          2    1    1    2  501    0  0.13881936718E+02 -0.20765631870E+02 -0.10959715820E+04  0.10962561873E+04  0.00000000000E+00 0. -1.
          1    1    1    2  502    0 -0.33609293125E+03  0.34609240232E+03  0.30892570268E+03  0.57286429384E+03  0.00000000000E+00 0. -1.
         22    1    3    3    0    0  0.32827719440E+03 -0.31204541185E+03 -0.23603216862E+03  0.51073421663E+03  0.00000000000E+00 0. -1.
         22    1    3    3    0    0 -0.60661998643E+01 -0.13281358601E+02  0.70941133336E+01  0.16233290211E+02  0.00000000000E+00 0. -1.
</event>
<event>
 7    1  0.5889087E-006  0.9684163E+02  0.7818608E-02  0.1411974E+00
          2   -1    0    0  502    0  0.00000000000E+00  0.00000000000E+00  0.44710078879E+03  0.44710078879E+03  0.00000000000E+00 0. -1.
          1   -1    0    0  501    0 -0.00000000000E+00 -0.00000000000E+00 -0.19327924830E+03  0.19327924830E+03  0.00000000000E+00 0. -1.
         25    2    1    2    0    0 -0.11484762893E+03 -0.15546738773E+02  0.11479496788E+03  0.20551020743E+03  0.12499952700E+03 0.  0.
          2    1    1    2  501    0  0.21323427287E+02  0.25528640633E+02 -0.13818748232E+03  0.14213437415E+03  0.00000000000E+00 0. -1.
          1    1    1    2  502    0  0.93524201646E+02 -0.99819018598E+01  0.27721405493E+03  0.29273545551E+03  0.00000000000E+00 0. -1.
         22    1    3    3    0    0 -0.12107163401E+03 -0.19586058606E+02  0.38057235398E+02  0.12841459193E+03  0.00000000000E+00 0.  1.
         22    1    3    3    0    0  0.62240050779E+01  0.40393198332E+01  0.76737732481E+02  0.77095615506E+02  0.00000000000E+00 0.  1.
</event>
<event>
 7    1  0.5889087E-006  0.3681298E+02  0.7818608E-02  0.1567539E+00
          2   -1    0    0  502    0  0.00000000000E+00  0.00000000000E+00  0.41639316577E+03  0.41639316577E+03  0.00000000000E+00 0. -1.
          1   -1    0    0  501    0 -0.00000000000E+00 -0.00000000000E+00 -0.25626399345E+02  0.25626399345E+02  0.00000000000E+00 0. -1.
         25    2    1    2    0    0  0.19669437324E+01 -0.30873892095E+02  0.27175473349E+03  0.30071819680E+03  0.12499493042E+03 0.  0.
          2    1    1    2  501    0 -0.29494717514E+02  0.70598172772E+00  0.24523077837E+02  0.38364281801E+02  0.00000000000E+00 0. -1.
          1    1    1    2  502    0  0.27527773782E+02  0.30167910368E+02  0.94488955099E+02  0.10293708652E+03  0.00000000000E+00 0. -1.
         22    1    3    3    0    0 -0.38216228022E+02 -0.65375815057E+02  0.16500750606E+03  0.18155427380E+03  0.00000000000E+00 0.  1.
         22    1    3    3    0    0  0.40183171754E+02  0.34501922962E+02  0.10674722743E+03  0.11916392300E+03  0.00000000000E+00 0.  1.
</event>
<event>
 7    1  0.5889087E-006  0.5809126E+02  0.7818608E-02  0.1409013E+00
          2   -1    0    0  502    0  0.00000000000E+00  0.00000000000E+00  0.37397700023E+04  0.37397700023E+04  0.00000000000E+00 0. -1.
          1   -1    0    0  501    0 -0.00000000000E+00 -0.00000000000E+00 -0.12423800226E+02  0.12423800226E+02  0.00000000000E+00 0. -1.
         25    2    1    2    0    0 -0.24489774884E+02  0.26919686164E+01  0.77121464255E+03  0.78166770124E+03  0.12500149804E+03 0.  0.
          2    1    1    2  501    0  0.37451334243E+02  0.53934811073E+02  0.14939366564E+03  0.16318711229E+03  0.00000000000E+00 0. -1.
          1    1    1    2  502    0 -0.12961559359E+02 -0.56626779689E+02  0.28067378939E+04  0.28073389890E+04  0.00000000000E+00 0. -1.
         22    1    3    3    0    0  0.13793565227E+02  0.77392107287E+01  0.84610817296E+01  0.17937327794E+02  0.00000000000E+00 0. -1.
         22    1    3    3    0    0 -0.38283340110E+02 -0.50472421123E+01  0.76275356082E+03  0.76373037345E+03  0.00000000000E+00 0. -1.
</event>
<event>
 7    1  0.5889087E-006  0.1207917E+03  0.7818608E-02  0.1292063E+00
          2   -1    0    0  502    0  0.00000000000E+00  0.00000000000E+00  0.54264558410E+03  0.54264558410E+03  0.00000000000E+00 0. -1.
          1   -1    0    0  501    0 -0.00000000000E+00 -0.00000000000E+00 -0.63314665596E+03  0.63314665596E+03  0.00000000000E+00 0. -1.
         25    2    1    2    0    0 -0.14027465526E+03 -0.11278274090E+03  0.13926057675E+03  0.25964682636E+03  0.12500416253E+03 0.  0.
          2    1    1    2  501    0  0.40051810899E+02  0.62342091071E+02 -0.56128252979E+03  0.56615259615E+03  0.00000000000E+00 0. -1.
          1    1    1    2  502    0  0.10022284436E+03  0.50440649831E+02  0.33152088118E+03  0.34999281756E+03  0.00000000000E+00 0. -1.
         22    1    3    3    0    0 -0.12750692332E+03 -0.13340492114E+03  0.91272658874E+02  0.20587760135E+03  0.00000000000E+00 0.  1.
         22    1    3    3    0    0 -0.12767731937E+02  0.20622180234E+02  0.47987917879E+02  0.53769225016E+02  0.00000000000E+00 0.  1.
</event>
<event>
 7    1  0.5889087E-006  0.9176267E+02  0.7818608E-02  0.1384833E+00
          2   -1    0    0  502    0  0.00000000000E+00  0.00000000000E+00  0.19549541904E+04  0.19549541904E+04  0.00000000000E+00 0. -1.
          1   -1    0    0  501    0 -0.00000000000E+00 -0.00000000000E+00 -0.15872172489E+03  0.15872172489E+03  0.00000000000E+00 0. -1.
         25    2    1    2    0    0 -0.11028146354E+03  0.41310898182E+02  0.11142430299E+04  0.11274000878E+04  0.12499934722E+03 0.  0.
          2    1    1    2  501    0  0.70313209912E+02 -0.58586407996E+02 -0.13774906187E+03  0.16538173640E+03  0.00000000000E+00 0. -1.
          1    1    1    2  502    0  0.39968253627E+02  0.17275509814E+02  0.81973849749E+03  0.82089409110E+03  0.00000000000E+00 0. -1.
         22    1    3    3    0    0 -0.60968811143E+02 -0.40628223799E+02  0.58693447703E+03  0.59148958471E+03  0.00000000000E+00 0. -1.
         22    1    3    3    0    0 -0.49312652397E+02  0.81939121981E+02  0.52730855288E+03  0.53591050310E+03  0.00000000000E+00 0. -1.
</event>
<event>
 7    1  0.5889087E-006  0.7115369E+02  0.7818608E-02  0.1464809E+00
          2   -1    0    0  502    0  0.00000000000E+00  0.00000000000E+00  0.72207147900E+03  0.72207147900E+03  0.00000000000E+00 0. -1.
          1   -1    0    0  501    0 -0.00000000000E+00 -0.00000000000E+00 -0.74606909698E+03  0.74606909698E+03  0.00000000000E+00 0. -1.
         25    2    1    2    0    0 -0.85313063622E+00 -0.46949186931E+02  0.14600753826E+02  0.13432412767E+03  0.12499934111E+03 0.  0.
          2    1    1    2  501    0 -0.21599343367E+02 -0.21494137507E+02 -0.68386410217E+03  0.68454265011E+03  0.00000000000E+00 0. -1.
          1    1    1    2  502    0  0.22452474003E+02  0.68443324438E+02  0.64526573036E+03  0.64927379820E+03  0.00000000000E+00 0. -1.
         22    1    3    3    0    0 -0.55304024799E+02  0.52283557424E+01 -0.67143959735E+01  0.55954928076E+02  0.00000000000E+00 0.  1.
         22    1    3    3    0    0  0.54450894162E+02 -0.52177542674E+02  0.21315149800E+02  0.78369199597E+02  0.00000000000E+00 0.  1.
</event>
<event>
 7    1  0.5889087E-006  0.1103650E+03  0.7818608E-02  0.1386270E+00
          2   -1    0    0  502    0  0.00000000000E+00  0.00000000000E+00  0.57977182319E+02  0.57977182319E+02  0.00000000000E+00 0. -1.
          1   -1    0    0  501    0 -0.00000000000E+00 -0.00000000000E+00 -0.17396814368E+04  0.17396814368E+04  0.00000000000E+00 0. -1.
         25    2    1    2    0    0 -0.98136154444E+02  0.16967667784E+02 -0.23230571275E+03  0.28197524626E+03  0.12500195507E+03 0.  0.
          2    1    1    2  501    0 -0.53118952702E+01  0.35388159109E+02 -0.13801939981E+04  0.13806578180E+04  0.00000000000E+00 0. -1.
          1    1    1    2  502    0  0.10344804971E+03 -0.52355826894E+02 -0.69204543609E+02  0.13502555482E+03  0.00000000000E+00 0. -1.
         22    1    3    3    0    0 -0.10264552319E+03 -0.18407057598E+02 -0.22132430930E+03  0.24466175240E+03  0.00000000000E+00 0. -1.
         22    1    3    3    0    0  0.45093687434E+01  0.35374725383E+02 -0.10981403442E+02  0.37313493859E+02  0.00000000000E+00 0. -1.
</event>
<event>
 7    1  0.5889087E-006  0.7994024E+02  0.7818608E-02  0.1504579E+00
          2   -1    0    0  502    0  0.00000000000E+00  0.00000000000E+00  0.22131245783E+04  0.22131245783E+04  0.00000000000E+00 0. -1.
          1   -1    0    0  501    0 -0.00000000000E+00 -0.00000000000E+00 -0.12249018077E+02  0.12249018077E+02  0.00000000000E+00 0. -1.
         25    2    1    2    0    0 -0.73162119224E+02  0.23857822096E+01  0.14825274814E+04  0.14895875969E+04  0.12500035223E+03 0.  0.
          2    1    1    2  501    0  0.77933530806E+02 -0.22339594154E+02  0.18429361186E+03  0.20133759724E+03  0.00000000000E+00 0. -1.
          1    1    1    2  502    0 -0.47714115820E+01  0.19953811944E+02  0.53405446688E+03  0.53444840217E+03  0.00000000000E+00 0. -1.
         22    1    3    3    0    0 -0.11307172948E+02  0.31664145739E+02  0.11288243215E+04  0.11293249395E+04  0.00000000000E+00 0. -1.
         22    1    3    3    0    0 -0.61854946276E+02 -0.29278363530E+02  0.35370315999E+03  0.36026265742E+03  0.00000000000E+00 0. -1.
</event>
<event>
 7    1  0.5889087E-006  0.4984174E+02  0.7818608E-02  0.1543737E+00
          2   -1    0    0  502    0  0.00000000000E+00  0.00000000000E+00  0.29616403209E+03  0.29616403209E+03  0.00000000000E+00 0. -1.
          1   -1    0    0  501    0 -0.00000000000E+00 -0.00000000000E+00 -0.32778380004E+03  0.32778380004E+03  0.00000000000E+00 0. -1.
         25    2    1    2    0    0  0.43299220108E+01  0.28905211034E+02 -0.36891818877E+02  0.13356654566E+03  0.12499902548E+03 0.  0.
          2    1    1    2  501    0 -0.23742371629E+02 -0.45226217724E+02 -0.23920212876E+03  0.24459511316E+03  0.00000000000E+00 0. -1.
          1    1    1    2  502    0  0.19412449618E+02  0.16321006690E+02  0.24447417968E+03  0.24578617331E+03  0.00000000000E+00 0. -1.
         22    1    3    3    0    0  0.11597829840E+01  0.39186770213E+02  0.39951396269E+02  0.55973762783E+02  0.00000000000E+00 0. -1.
         22    1    3    3    0    0  0.31701390268E+01 -0.10281559179E+02 -0.76843215146E+02  0.77592782877E+02  0.00000000000E+00 0. -1.
</event>
<event>
 7    1  0.5889087E-006  0.1462258E+03  0.7818608E-02  0.1231381E+00
          2   -1    0    0  502    0  0.00000000000E+00  0.00000000000E+00  0.92154880501E+03  0.92154880501E+03  0.00000000000E+00 0. -1.
          1   -1    0    0  501    0 -0.00000000000E+00 -0.00000000000E+00 -0.58906677905E+03  0.58906677905E+03  0.00000000000E+00 0. -1.
         25    2    1    2    0    0 -0.23601157089E+02 -0.21027080794E+03  0.10314856945E+03  0.26652512184E+03  0.12500074363E+03 0.  0.
          2    1    1    2  501    0 -0.55791968791E+02  0.13272540976E+03 -0.49283995743E+03  0.51343938475E+03  0.00000000000E+00 0. -1.
          1    1    1    2  502    0  0.79393125880E+02  0.77545398182E+02  0.72217341394E+03  0.73065107747E+03  0.00000000000E+00 0. -1.
         22    1    3    3    0    0  0.51359916218E+02 -0.77199587190E+02  0.45385011233E+02  0.10323476401E+03  0.00000000000E+00 0.  1.
         22    1    3    3    0    0 -0.74961073307E+02 -0.13307122075E+03  0.57763558220E+02  0.16329035783E+03  0.00000000000E+00 0.  1.
</event>
<event>
 7    1  0.5889087E-006  0.1987803E+03  0.7818608E-02  0.1279284E+00
          2   -1    0    0  502    0  0.00000000000E+00  0.00000000000E+00  0.50463737104E+03  0.50463737104E+03  0.00000000000E+00 0. -1.
          1   -1    0    0  501    0 -0.00000000000E+00 -0.00000000000E+00 -0.12616134039E+04  0.12616134039E+04  0.00000000000E+00 0. -1.
         25    2    1    2    0    0  0.23316020655E+03 -0.45525048208E+02 -0.73601123803E+01  0.26854272326E+03  0.12499924411E+03 0.  0.
          2    1    1    2  501    0 -0.19606697518E+03  0.10825304958E+02 -0.11133046047E+04  0.11304895350E+04  0.00000000000E+00 0. -1.
          1    1    1    2  502    0 -0.37093231366E+02  0.34699743251E+02  0.36368868418E+03  0.36721851669E+03  0.00000000000E+00 0. -1.
         22    1    3    3    0    0  0.21442646664E+03 -0.27457990039E+02 -0.46899550696E+02  0.22120628080E+03  0.00000000000E+00 0. -1.
         22    1    3    3    0    0  0.18733739912E+02 -0.18067058169E+02  0.39539438315E+02  0.47336442455E+02  0.00000000000E+00 0. -1.
</event>
<event>
 7    1  0.5889087E-006  0.7847541E+02  0.7818608E-02  0.1368865E+00
          2   -1    0    0  502    0  0.00000000000E+00  0.00000000000E+00  0.32058245049E+03  0.32058245049E+03  0.00000000000E+00 0. -1.
          1   -1    0    0  501    0 -0.00000000000E+00 -0.00000000000E+00 -0.38676064335E+03  0.38676064335E+03  0.00000000000E+00 0. -1.
         25    2    1    2    0    0  0.39904876140E+01  0.84079802947E+02  0.12350608101E+01  0.15070247923E+03  0.12499749844E+03 0.  0.
          2    1    1    2  501    0 -0.53758918060E+02 -0.21854833206E+02 -0.30270817044E+03  0.30822052407E+03  0.00000000000E+00 0. -1.
          1    1    1    2  502    0  0.49768430446E+02 -0.62224969741E+02  0.23529491677E+03  0.24842009054E+03  0.00000000000E+00 0. -1.
         22    1    3    3    0    0 -0.28380179199E+02  0.77445519280E+02  0.46479558210E+02  0.94676250239E+02  0.00000000000E+00 0.  1.
         22    1    3    3    0    0  0.32370666813E+02  0.66342836665E+01 -0.45244497400E+02  0.56026228988E+02  0.00000000000E+00 0.  1.
</event>
<event>
 7    1  0.5889087E-006  0.1936527E+03  0.7818608E-02  0.1245691E+00
          2   -1    0    0  502    0  0.00000000000E+00  0.00000000000E+00  0.24341745723E+04  0.24341745723E+04  0.00000000000E+00 0. -1.
          1   -1    0    0  501    0 -0.00000000000E+00 -0.00000000000E+00 -0.24417918293E+04  0.24417918293E+04  0.00000000000E+00 0. -1.
         25    2    1    2    0    0  0.80431337722E+02  0.17923858363E+03 -0.54467511240E+03  0.59235842411E+03  0.12498741776E+03 0.  0.
          2    1    1    2  501    0  0.57865831331E+02 -0.43579223632E+02 -0.18686795728E+04  0.18700831396E+04  0.00000000000E+00 0. -1.
          1    1    1    2  502    0 -0.13829716905E+03 -0.13565936000E+03  0.24057374282E+04  0.24135248378E+04  0.00000000000E+00 0. -1.
         22    1    3    3    0    0  0.64674478371E+02  0.24849777174E+02 -0.24862565674E+03  0.25809885077E+03  0.00000000000E+00 0. -1.
         22    1    3    3    0    0  0.15756859350E+02  0.15438880646E+03 -0.29604945566E+03  0.33425957334E+03  0.00000000000E+00 0. -1.
</event>
<event>
 7    1  0.5889087E-006  0.1037933E+03  0.7818608E-02  0.1346112E+00
          2   -1    0    0  502    0  0.00000000000E+00  0.00000000000E+00  0.31645052948E+03  0.31645052948E+03  0.00000000000E+00 0. -1.
          1   -1    0    0  501    0 -0.00000000000E+00 -0.00000000000E+00 -0.16858809624E+03  0.16858809624E+03  0.00000000000E+00 0. -1.
         25    2    1    2    0    0  0.48634482696E+02  0.66933268608E+02  0.70071211488E+01  0.15006460621E+03  0.12499964374E+03 0.  0.
          2    1    1    2  501    0 -0.33588604514E+02  0.41204717433E+02 -0.75671750740E+02  0.92478305304E+02  0.00000000000E+00 0. -1.
          1    1    1    2  502    0 -0.15045878183E+02 -0.10813798604E+03  0.21652706283E+03  0.24249571421E+03  0.00000000000E+00 0. -1.
         22    1    3    3    0    0  0.74225463753E+02  0.82262251832E+02  0.27140904154E+02  0.11407509029E+03  0.00000000000E+00 0. -1.
         22    1    3    3    0    0 -0.25590981057E+02 -0.15328983224E+02 -0.20133783005E+02  0.35989515921E+02  0.00000000000E+00 0. -1.
</event>
<event>
 7    1  0.5889087E-006  0.3542859E+03  0.7818608E-02  0.1261916E+00
          2   -1    0    0  502    0  0.00000000000E+00  0.00000000000E+00  0.18871175969E+04  0.18871175969E+04  0.00000000000E+00 0. -1.
          1   -1    0    0  501    0 -0.00000000000E+00 -0.00000000000E+00 -0.16027403979E+04  0.16027403979E+04  0.00000000000E+00 0. -1.
         25    2    1    2    0    0  0.32447944819E+03  0.17997042033E+02  0.32154383423E+03  0.47394788477E+03  0.12500141732E+03 0.  0.
          2    1    1    2  501    0 -0.35578430116E+03 -0.55047985196E+01 -0.15056070850E+04  0.15470828893E+04  0.00000000000E+00 0. -1.
          1    1    1    2  502    0  0.31304852978E+02 -0.12492243513E+02  0.14684404498E+04  0.14688272208E+04  0.00000000000E+00 0. -1.
         22    1    3    3    0    0  0.26403714198E+03 -0.83391317792E+00  0.18191953626E+03  0.32064158406E+03  0.00000000000E+00 0.  1.
         22    1    3    3    0    0  0.60442306206E+02  0.18830955211E+02  0.13962429797E+03  0.15330630071E+03  0.00000000000E+00 0.  1.
</event>
<event>
 7    1  0.5889087E-006  0.6970710E+02  0.7818608E-02  0.1486317E+00
          2   -1    0    0  502    0  0.00000000000E+00  0.00000000000E+00  0.10043292994E+04  0.10043292994E+04  0.00000000000E+00 0. -1.
          1   -1    0    0  501    0 -0.00000000000E+00 -0.00000000000E+00 -0.14684796055E+03  0.14684796055E+03  0.00000000000E+00 0. -1.
         25    2    1    2    0    0 -0.33046742126E+02  0.88912741548E+02  0.56518084127E+03  0.58655930199E+03  0.12499947451E+03 0.  0.
          2    1    1    2  501    0  0.17793711062E+02 -0.67004735466E+02 -0.12688183319E+03  0.14458648043E+03  0.00000000000E+00 0. -1.
          1    1    1    2  502    0  0.15253031064E+02 -0.21908006082E+02  0.41918233081E+03  0.42003147757E+03  0.00000000000E+00 0. -1.
         22    1    3    3    0    0  0.17567540962E+02  0.11135635744E+02  0.36849919023E+03  0.36908572728E+03  0.00000000000E+00 0. -1.
         22    1    3    3    0    0 -0.50614283088E+02  0.77777105803E+02  0.19668165104E+03  0.21747357471E+03  0.00000000000E+00 0. -1.
</event>
<event>
 7    1  0.5889087E-006  0.2370221E+02  0.7818608E-02  0.1699418E+00
          2   -1    0    0  502    0  0.00000000000E+00  0.00000000000E+00  0.30386771078E+03  0.30386771078E+03  0.00000000000E+00 0. -1.
          1   -1    0    0  501    0 -0.00000000000E+00 -0.00000000000E+00 -0.10146426882E+04  0.10146426882E+04  0.00000000000E+00 0. -1.
         25    2    1    2    0    0 -0.30711078184E+02  0.31053364104E+02  0.91635954139E+02  0.16102708636E+03  0.12500037082E+03 0.  0.
          2    1    1    2  501    0  0.18020508258E+02 -0.11534622362E+02 -0.97906647019E+03  0.97930022939E+03  0.00000000000E+00 0. -1.
          1    1    1    2  502    0  0.12690569926E+02 -0.19518741743E+02  0.17665553859E+03  0.17818308326E+03  0.00000000000E+00 0. -1.
         22    1    3    3    0    0 -0.24462281055E+02 -0.47566660341E+02  0.39305141838E+02  0.66376837416E+02  0.00000000000E+00 0.  1.
         22    1    3    3    0    0 -0.62487971293E+01  0.78620024446E+02  0.52330812302E+02  0.94650248946E+02  0.00000000000E+00 0.  1.
</event>
<event>
 7    1  0.5889087E-006  0.8193587E+02  0.7818608E-02  0.1453348E+00
          2   -1    0    0  502    0  0.00000000000E+00  0.00000000000E+00  0.87252890254E+03  0.87252890254E+03  0.00000000000E+00 0. -1.
          1   -1    0    0  501    0 -0.00000000000E+00 -0.00000000000E+00 -0.25713029198E+03  0.25713029198E+03  0.00000000000E+00 0. -1.
         25    2    1    2    0    0  0.93021640436E+01  0.66842472840E+02  0.34750970531E+03  0.37542355324E+03  0.12500161044E+03 0.  0.
          2    1    1    2  501    0  0.26221423464E+02  0.11819858891E+02 -0.23865952539E+03  0.24038644132E+03  0.00000000000E+00 0. -1.
          1    1    1    2  502    0 -0.35523587508E+02 -0.78662331731E+02  0.50654843064E+03  0.51384919995E+03  0.00000000000E+00 0. -1.
         22    1    3    3    0    0 -0.25997467578E+02  0.79425364999E+02  0.12887390978E+03  0.15359928889E+03  0.00000000000E+00 0.  1.
         22    1    3    3    0    0  0.35299631621E+02 -0.12582892160E+02  0.21863579553E+03  0.22182426435E+03  0.00000000000E+00 0.  1.
</event>
<event>
 7    1  0.5889087E-006  0.2480458E+02  0.7818608E-02  0.1695078E+00
          2   -1    0    0  502    0  0.00000000000E+00  0.00000000000E+00  0.72881881820E+02  0.72881881820E+02  0.00000000000E+00 0. -1.
          1   -1    0    0  501    0 -0.00000000000E+00 -0.00000000000E+00 -0.78778037844E+03  0.78778037844E+03  0.00000000000E+00 0. -1.
         25    2    1    2    0    0  0.10288741702E+02  0.41477323284E+02 -0.12817179867E+03  0.18406095215E+03  0.12499679028E+03 0.  0.
          2    1    1    2  501    0 -0.13305645937E+02 -0.20772691891E+02 -0.62897351682E+03  0.62945709131E+03  0.00000000000E+00 0. -1.
          1    1    1    2  502    0  0.30169042350E+01 -0.20704631392E+02  0.42246818872E+02  0.47144216794E+02  0.00000000000E+00 0. -1.
         22    1    3    3    0    0  0.55582054310E+02  0.46920401567E+02 -0.35872158488E+02  0.81103024599E+02  0.00000000000E+00 0.  1.
         22    1    3    3    0    0 -0.45293312607E+02 -0.54430782830E+01 -0.92299640179E+02  0.10295792755E+03  0.00000000000E+00 0.  1.
</event>
<event>
 7    1  0.5889087E-006  0.1729228E+03  0.7818608E-02  0.1306506E+00
          2   -1    0    0  502    0  0.00000000000E+00  0.00000000000E+00  0.25775949843E+04  0.25775949843E+04  0.00000000000E+00 0. -1.
          1   -1    0    0  501    0 -0.00000000000E+00 -0.00000000000E+00 -0.19916941471E+03  0.19916941471E+03  0.00000000000E+00 0. -1.
         25    2    1    2    0    0 -0.95310878528E+02  0.12814937893E+03  0.35230397901E+03  0.40650820173E+03  0.12499759022E+03 0.  0.
          2    1    1    2  501    0 -0.41357308625E+02 -0.18487203609E+02 -0.16552695857E+03  0.17161403698E+03  0.00000000000E+00 0. -1.
          1    1    1    2  502    0  0.13666818715E+03 -0.10966217532E+03  0.21916485492E+04  0.21986421603E+04  0.00000000000E+00 0. -1.
         22    1    3    3    0    0 -0.52948884048E+02 -0.11701810943E+02  0.12540103958E+03  0.13662334145E+03  0.00000000000E+00 0. -1.
         22    1    3    3    0    0 -0.42361994480E+02  0.13985118987E+03  0.22690293944E+03  0.26988486028E+03  0.00000000000E+00 0. -1.
</event>
<event>
 7    1  0.5889087E-006  0.1085546E+03  0.7818608E-02  0.1312706E+00
          2   -1    0    0  502    0  0.00000000000E+00  0.00000000000E+00  0.38688556228E+03  0.38688556228E+03  0.00000000000E+00 0. -1.
          1   -1    0    0  501    0 -0.00000000000E+00 -0.00000000000E+00 -0.65738047705E+03  0.65738047705E+03  0.00000000000E+00 0. -1.
         25    2    1    2    0    0  0.53197453826E+02 -0.86118409552E+01 -0.10763235366E+03  0.17353547369E+03  0.12500281668E+03 0.  0.
          2    1    1    2  501    0  0.54357241353E+02  0.41210430940E+02 -0.50552611735E+03  0.51010750301E+03  0.00000000000E+00 0. -1.
          1    1    1    2  502    0 -0.10755469518E+03 -0.32598589985E+02  0.34266355623E+03  0.36062306262E+03  0.00000000000E+00 0. -1.
         22    1    3    3    0    0  0.58767926308E+02 -0.56754545813E+02 -0.91007781201E+02  0.12229948435E+03  0.00000000000E+00 0.  1.
         22    1    3    3    0    0 -0.55704724818E+01  0.48142704858E+02 -0.16624572455E+02  0.51235989343E+02  0.00000000000E+00 0.  1.
</event>
<event>
 7    1  0.5889087E-006  0.8248963E+02  0.7818608E-02  0.1326689E+00
          2   -1    0    0  502    0  0.00000000000E+00  0.00000000000E+00  0.32733416313E+02  0.32733416313E+02  0.00000000000E+00 0. -1.
          1   -1    0    0  501    0 -0.00000000000E+00 -0.00000000000E+00 -0.13694209907E+04  0.13694209907E+04  0.00000000000E+00 0. -1.
         25    2    1    2    0    0 -0.40829915542E+01  0.31578399993E+02 -0.36480344154E+03  0.38694039530E+03  0.12500980918E+03 0.  0.
          2    1    1    2  501    0  0.86551717308E+02 -0.33435499552E+02 -0.90297362938E+03  0.90772821249E+03  0.00000000000E+00 0. -1.
          1    1    1    2  502    0 -0.82468725754E+02  0.18570995581E+01 -0.68910503481E+02  0.10748579923E+03  0.00000000000E+00 0. -1.
         22    1    3    3    0    0 -0.31978003751E+01 -0.33772620873E+02 -0.28386216405E+02  0.44233393829E+02  0.00000000000E+00 0. -1.
         22    1    3    3    0    0 -0.88519117913E+00  0.65351020866E+02 -0.33641722513E+03  0.34270700147E+03  0.00000000000E+00 0. -1.
</event>
<event>
 7    1  0.5889087E-006  0.7848379E+02  0.7818608E-02  0.1469895E+00
          2   -1    0    0  502    0  0.00000000000E+00  0.00000000000E+00  0.29673295709E+03  0.29673295709E+03  0.00000000000E+00 0. -1.
          1   -1    0    0  501    0 -0.00000000000E+00 -0.00000000000E+00 -0.87197188044E+03  0.87197188044E+03  0.00000000000E+00 0. -1.
         25    2    1    2    0    0 -0.83394115420E+02 -0.16869264044E+02 -0.12122832693E+03  0.19380474293E+03  0.12499928231E+03 0.  0.
          2    1    1    2  501    0  0.68111212668E+02  0.38682082784E+02 -0.71161980277E+03  0.71591772189E+03  0.00000000000E+00 0. -1.
          1    1    1    2  502    0  0.15282902752E+02 -0.21812818740E+02  0.25760920635E+03  0.25898237271E+03  0.00000000000E+00 0. -1.
         22    1    3    3    0    0 -0.57801198727E+02 -0.70048859640E+02 -0.60506780434E+02  0.10912786899E+03  0.00000000000E+00 0.  1.
         22    1    3    3    0    0 -0.25592916693E+02  0.53179595596E+02 -0.60721546493E+02  0.84676873945E+02  0.00000000000E+00 0.  1.
</event>
<event>
 7    1  0.5889087E-006  0.1850268E+03  0.7818608E-02  0.1211424E+00
          2   -1    0    0  502    0  0.00000000000E+00  0.00000000000E+00  0.50770111201E+03  0.50770111201E+03  0.00000000000E+00 0. -1.
          1   -1    0    0  501    0 -0.00000000000E+00 -0.00000000000E+00 -0.99013300605E+03  0.99013300605E+03  0.00000000000E+00 0. -1.
         25    2    1    2    0    0  0.28478080618E+03 -0.15309380844E+02  0.30057543872E+02  0.31283061620E+03  0.12500021511E+03 0.  0.
          2    1    1    2  501    0 -0.17930256170E+03 -0.83455973736E+01 -0.83021242994E+03  0.84939492373E+03  0.00000000000E+00 0. -1.
          1    1    1    2  502    0 -0.10547824448E+03  0.23654978217E+02  0.31772299203E+03  0.33560857813E+03  0.00000000000E+00 0. -1.
         22    1    3    3    0    0  0.22255543014E+00 -0.26582877982E+02  0.16281768175E+01  0.26633623345E+02  0.00000000000E+00 0.  1.
         22    1    3    3    0    0  0.28455825075E+03  0.11273497138E+02  0.28429367055E+02  0.28619699285E+03  0.00000000000E+00 0.  1.
</event>
<event>
 7    1  0.5889087E-006  0.2155978E+03  0.7818608E-02  0.1284832E+00
          2   -1    0    0  502    0  0.00000000000E+00  0.00000000000E+00  0.13749996831E+04  0.13749996831E+04  0.00000000000E+00 0. -1.
          1   -1    0    0  501    0 -0.00000000000E+00 -0.00000000000E+00 -0.67877854135E+03  0.67877854135E+03  0.00000000000E+00 0. -1.
         25    2    1    2    0    0  0.21910570902E+03  0.13354724190E+03  0.63903896100E+02  0.29249129660E+03  0.12500109242E+03 0.  0.
          2    1    1    2  501    0 -0.36850969042E+02 -0.24822322261E+02 -0.55418073836E+03  0.55595902040E+03  0.00000000000E+00 0. -1.
          1    1    1    2  502    0 -0.18225473998E+03 -0.10872491964E+03  0.11864979840E+04  0.12053279074E+04  0.00000000000E+00 0. -1.
         22    1    3    3    0    0  0.89143149559E+01  0.63109921863E+02  0.15242203002E+02  0.65533594446E+02  0.00000000000E+00 0.  1.
         22    1    3    3    0    0  0.21019139406E+03  0.70437320041E+02  0.48661693098E+02  0.22695770216E+03  0.00000000000E+00 0.  1.
</event>
<event>
 7    1  0.5889087E-006  0.1165393E+03  0.7818608E-02  0.1364159E+00
          2   -1    0    0  502    0  0.00000000000E+00  0.00000000000E+00  0.14985098639E+03  0.14985098639E+03  0.00000000000E+00 0. -1.
          1   -1    0    0  501    0 -0.00000000000E+00 -0.00000000000E+00 -0.20036601765E+04  0.20036601765E+04  0.00000000000E+00 0. -1.
         25    2    1    2    0    0  0.16049267390E+02 -0.83083554631E+02 -0.54637927623E+02  0.16053374967E+03  0.12500130245E+03 0.  0.
          2    1    1    2  501    0  0.54016493306E+01  0.11759907515E+03 -0.18899001692E+04  0.18935631412E+04  0.00000000000E+00 0. -1.
          1    1    1    2  502    0 -0.21450916721E+02 -0.34515520518E+02  0.90728906652E+02  0.99414272049E+02  0.00000000000E+00 0. -1.
         22    1    3    3    0    0  0.55568404063E+02 -0.90791966513E+02 -0.55935499560E+02  0.12024894521E+03  0.00000000000E+00 0.  1.
         22    1    3    3    0    0 -0.39519136673E+02  0.77084118822E+01  0.12975719366E+01  0.40284804456E+02  0.00000000000E+00 0.  1.
</event>
<event>
 7    1  0.5889087E-006  0.4191218E+02  0.7818608E-02  0.1496480E+00
          2   -1    0    0  502    0  0.00000000000E+00  0.00000000000E+00  0.16700132906E+04  0.16700132906E+04  0.00000000000E+00 0. -1.
          1   -1    0    0  501    0 -0.00000000000E+00 -0.00000000000E+00 -0.35555203733E+03  0.35555203733E+03  0.00000000000E+00 0. -1.
         25    2    1    2    0    0 -0.11935910571E+02  0.63145204300E+02  0.49292779799E+03  0.51257465810E+03  0.12500073321E+03 0.  0.
          2    1    1    2  501    0  0.31713443681E+02 -0.26564415578E+02 -0.34411896974E+03  0.34659670515E+03  0.00000000000E+00 0. -1.
          1    1    1    2  502    0 -0.19777533110E+02 -0.36580788722E+02  0.11656524250E+04  0.11663939647E+04  0.00000000000E+00 0. -1.
         22    1    3    3    0    0 -0.29188705753E+01 -0.29618357927E+02  0.38364874347E+02  0.48555437547E+02  0.00000000000E+00 0. -1.
         22    1    3    3    0    0 -0.90170399961E+01  0.92763562227E+02  0.45456292365E+03  0.46401922055E+03  0.00000000000E+00 0. -1.
</event>
<event>
 7    1  0.5889087E-006  0.4343993E+02  0.7818608E-02  0.1487629E+00
          2   -1    0    0  502    0  0.00000000000E+00  0.00000000000E+00  0.26791502996E+03  0.26791502996E+03  0.00000000000E+00 0. -1.
          1   -1    0    0  501    0 -0.00000000000E+00 -0.00000000000E+00 -0.45962946648E+03  0.45962946648E+03  0.00000000000E+00 0. -1.
         25    2    1    2    0    0  0.20044565723E+02 -0.27965032813E+00  0.18624508156E+03  0.22519868016E+03  0.12500140928E+03 0.  0.
          2    1    1    2  501    0  0.35509674095E+02 -0.25021797125E+02 -0.42379083159E+03  0.42601138039E+03  0.00000000000E+00 0. -1.
          1    1    1    2  502    0 -0.55554239818E+02  0.25301447453E+02  0.45831313498E+02  0.76334435885E+02  0.00000000000E+00 0. -1.
         22    1    3    3    0    0 -0.52251613207E+02 -0.85435886087E+01  0.91780094489E+02  0.10595664082E+03  0.00000000000E+00 0.  1.
         22    1    3    3    0    0  0.72296178931E+02  0.82639382806E+01  0.94464987075E+02  0.11924203934E+03  0.00000000000E+00 0.  1.
</event>
<event>
 7    1  0.5889087E-006  0.8338716E+02  0.7818608E-02  0.1449627E+00
          2   -1    0    0  502    0  0.00000000000E+00  0.00000000000E+00  0.55276879162E+03  0.55276879162E+03  0.00000000000E+00 0. -1.
          1   -1    0    0  501    0 -0.00000000000E+00 -0.00000000000E+00 -0.87002481758E+03  0.87002481758E+03  0.00000000000E+00 0. -1.
         25    2    1    2    0    0 -0.72311973512E+02 -0.84036759551E+02  0.16407589007E+02  0.16788122151E+03  0.12499478825E+03 0.  0.
          2    1    1    2  501    0  0.16377473083E+02  0.23987966275E+02 -0.79036401318E+03  0.79089753918E+03  0.00000000000E+00 0. -1.
          1    1    1    2  502    0  0.55934500428E+02  0.60048793276E+02  0.45670039821E+03  0.46401484851E+03  0.00000000000E+00 0. -1.
         22    1    3    3    0    0 -0.10473648376E+02  0.22928884811E+02  0.34794810104E+02  0.42966380802E+02  0.00000000000E+00 0.  1.
         22    1    3    3    0    0 -0.61838325135E+02 -0.10696564436E+03 -0.18387221098E+02  0.12491484071E+03  0.00000000000E+00 0.  1.
</event>
<event>
 7    1  0.5889087E-006  0.7120072E+02  0.7818608E-02  0.1487856E+00
          2   -1    0    0  502    0  0.00000000000E+00  0.00000000000E+00  0.42754212603E+03  0.42754212603E+03  0.00000000000E+00 0. -1.
          1   -1    0    0  501    0 -0.00000000000E+00 -0.00000000000E+00 -0.62287370318E+02  0.62287370318E+02  0.00000000000E+00 0. -1.
         25    2    1    2    0    0 -0.41947813122E+02 -0.73788597888E+02  0.12128574535E+03  0.19375126540E+03  0.12499977847E+03 0.  0.
          2    1    1    2  501    0 -0.76649444198E+01  0.24692757797E+02 -0.13603960720E+02  0.29215602131E+02  0.00000000000E+00 0. -1.
          1    1    1    2  502    0  0.49612757542E+02  0.49095840091E+02  0.25757297108E+03  0.26686262881E+03  0.00000000000E+00 0. -1.
         22    1    3    3    0    0 -0.52340054775E+02 -0.54807683783E+02  0.14378491209E+03  0.16253450243E+03  0.00000000000E+00 0.  1.
         22    1    3    3    0    0  0.10392241653E+02 -0.18980914105E+02 -0.22499166737E+02  0.31216762976E+02  0.00000000000E+00 0.  1.
</event>
<event>
 7    1  0.5889087E-006  0.6162975E+02  0.7818608E-02  0.1542306E+00
          2   -1    0    0  502    0  0.00000000000E+00  0.00000000000E+00  0.35335773884E+03  0.35335773884E+03  0.00000000000E+00 0. -1.
          1   -1    0    0  501    0 -0.00000000000E+00 -0.00000000000E+00 -0.40231284505E+03  0.40231284505E+03  0.00000000000E+00 0. -1.
         25    2    1    2    0    0  0.51452898855E+02 -0.61751327738E+01  0.25364684532E+03  0.28748566493E+03  0.12500300929E+03 0.  0.
          2    1    1    2  501    0  0.19214921269E+02  0.77044301840E+01 -0.36996420382E+03  0.37054295777E+03  0.00000000000E+00 0. -1.
          1    1    1    2  502    0 -0.70667820124E+02 -0.15292974103E+01  0.67362252296E+02  0.97641961195E+02  0.00000000000E+00 0. -1.
         22    1    3    3    0    0  0.83172903798E+02 -0.30284754130E+02  0.12762786758E+03  0.15531828882E+03  0.00000000000E+00 0. -1.
         22    1    3    3    0    0 -0.31720004943E+02  0.24109621356E+02  0.12601897774E+03  0.13216737611E+03  0.00000000000E+00 0. -1.
</event>
<event>
 7    1  0.5889087E-006  0.3874315E+02  0.7818608E-02  0.1592842E+00
          2   -1    0    0  502    0  0.00000000000E+00  0.00000000000E+00  0.18693385417E+04  0.18693385417E+04  0.00000000000E+00 0. -1.
          1   -1    0    0  501    0 -0.00000000000E+00 -0.00000000000E+00 -0.88789345728E+02  0.88789345728E+02  0.00000000000E+00 0. -1.
         25    2    1    2    0    0  0.11028574859E+02  0.17054603622E+02  0.70044567349E+03  0.71180182169E+03  0.12500081154E+03 0.  0.
          2    1    1    2  501    0 -0.35007502698E+02 -0.16917789401E+02 -0.78433077992E+02  0.87541330620E+02  0.00000000000E+00 0. -1.
          1    1    1    2  502    0  0.23978927839E+02 -0.13681422108E+00  0.11585366005E+04  0.11587847351E+04  0.00000000000E+00 0. -1.
         22    1    3    3    0    0 -0.27848254543E+02 -0.44191460648E+02  0.23485300195E+03  0.24059165198E+03  0.00000000000E+00 0. -1.
         22    1    3    3    0    0  0.38876829402E+02  0.61246064271E+02  0.46559267154E+03  0.47121016971E+03  0.00000000000E+00 0. -1.
</event>
<event>
 7    1  0.5889087E-006  0.1706845E+03  0.7818608E-02  0.1238379E+00
          2   -1    0    0  502    0  0.00000000000E+00  0.00000000000E+00  0.32453056910E+03  0.32453056910E+03  0.00000000000E+00 0. -1.
          1   -1    0    0  501    0 -0.00000000000E+00 -0.00000000000E+00 -0.13532764889E+04  0.13532764889E+04  0.00000000000E+00 0. -1.
         25    2    1    2    0    0  0.20963674293E+02  0.13272885489E+03 -0.41498453755E+03  0.45375537421E+03  0.12500139462E+03 0.  0.
          2    1    1    2  501    0 -0.10358314186E+03 -0.16445482864E+03 -0.90191220128E+03  0.92261610475E+03  0.00000000000E+00 0. -1.
          1    1    1    2  502    0  0.82619467567E+02  0.31725973749E+02  0.28815081900E+03  0.30143557906E+03  0.00000000000E+00 0. -1.
         22    1    3    3    0    0  0.60875317142E+02  0.81455865413E+02 -0.33825732002E+03  0.35321222628E+03  0.00000000000E+00 0. -1.
         22    1    3    3    0    0 -0.39911642849E+02  0.51272989481E+02 -0.76727217532E+02  0.10054314793E+03  0.00000000000E+00 0. -1.
</event>
<event>
 7    1  0.5889087E-006  0.1221919E+03  0.7818608E-02  0.1249281E+00
          2   -1    0    0  502    0  0.00000000000E+00  0.00000000000E+00  0.19182418308E+04  0.19182418308E+04  0.00000000000E+00 0. -1.
          1   -1    0    0  501    0 -0.00000000000E+00 -0.00000000000E+00 -0.40663884720E+03  0.40663884720E+03  0.00000000000E+00 0. -1.
         25    2    1    2    0    0  0.57444718224E+02  0.11048173788E+03 -0.42302947598E+02  0.18144362716E+03  0.12500456153E+03 0.  0.
          2    1    1    2  501    0 -0.11074468430E+03  0.42846917560E+00 -0.28223105711E+03  0.30318136203E+03  0.00000000000E+00 0. -1.
          1    1    1    2  502    0  0.53299966074E+02 -0.11091020706E+03  0.18361369883E+04  0.18402556888E+04  0.00000000000E+00 0. -1.
         22    1    3    3    0    0  0.11467399452E+02  0.52676693798E+02 -0.81584478301E+02  0.97787332612E+02  0.00000000000E+00 0. -1.
         22    1    3    3    0    0  0.45977318771E+02  0.57805044082E+02  0.39281530703E+02  0.83656294546E+02  0.00000000000E+00 0. -1.
</event>
<event>
 7    1  0.5889087E-006  0.1314688E+03  0.7818608E-02  0.1275285E+00
          2   -1    0    0  502    0  0.00000000000E+00  0.00000000000E+00  0.95530615497E+03  0.95530615497E+03  0.00000000000E+00 0. -1.
          1   -1    0    0  501    0 -0.00000000000E+00 -0.00000000000E+00 -0.87954294586E+03  0.87954294586E+03  0.00000000000E+00 0. -1.
         25    2    1    2    0    0  0.13087182742E+02  0.20967475980E+03  0.44347884686E+03  0.50639281885E+03  0.12500168048E+03 0.  0.
          2    1    1    2  501    0 -0.23043609314E+01 -0.13061467965E+03 -0.83968674898E+03  0.84978782119E+03  0.00000000000E+00 0. -1.
          1    1    1    2  502    0 -0.10782821811E+02 -0.79060080142E+02  0.47197111123E+03  0.47866846079E+03  0.00000000000E+00 0. -1.
         22    1    3    3    0    0  0.61041512398E+02  0.17148493220E+03  0.30958407967E+03  0.35913152269E+03  0.00000000000E+00 0.  1.
         22    1    3    3    0    0 -0.47954329656E+02  0.38189827595E+02  0.13389476719E+03  0.14726129616E+03  0.00000000000E+00 0.  1.
</event>
<event>
 7    1  0.5889087E-006  0.1513354E+03  0.7818608E-02  0.1260051E+00
          2   -1    0    0  502    0  0.00000000000E+00  0.00000000000E+00  0.11166354512E+04  0.11166354512E+04  0.00000000000E+00 0. -1.
          1   -1    0    0  501    0 -0.00000000000E+00 -0.00000000000E+00 -0.49506228876E+03  0.49506228876E+03  0.00000000000E+00 0. -1.
         25    2    1    2    0    0 -0.11848778998E+03 -0.22724481439E+02 -0.70743130669E+02  0.18757493616E+03  0.12499603076E+03 0.  0.
          2    1    1    2  501    0  0.12898100485E+03  0.10239946713E+03 -0.34574054742E+03  0.38295988904E+03  0.00000000000E+00 0. -1.
          1    1    1    2  502    0 -0.10493214870E+02 -0.79674985691E+02  0.10380568406E+04  0.10411629148E+04  0.00000000000E+00 0. -1.
         22    1    3    3    0    0 -0.73358619575E+02 -0.32921272453E+02  0.22489983077E+02  0.83493093036E+02  0.00000000000E+00 0.  1.
         22    1    3    3    0    0 -0.45129170404E+02  0.10196791014E+02 -0.93233113746E+02  0.10408184312E+03  0.00000000000E+00 0.  1.
</event>
<event>
 7    1  0.5889087E-006  0.1126740E+03  0.7818608E-02  0.1410561E+00
          2   -1    0    0  502    0  0.00000000000E+00  0.00000000000E+00  0.56091646801E+03  0.56091646801E+03  0.00000000000E+00 0. -1.
          1   -1    0    0  501    0 -0.00000000000E+00 -0.00000000000E+00 -0.79471689413E+02  0.79471689413E+02  0.00000000000E+00 0. -1.
         25    2    1    2    0    0 -0.90008750968E+01 -0.89818986831E+02  0.10072622491E+03  0.18417089557E+03  0.12499872096E+03 0.  0.
          2    1    1    2  501    0 -0.14403067314E+02 -0.25061047482E+02 -0.22290292385E+02  0.36501528509E+02  0.00000000000E+00 0. -1.
          1    1    1    2  502    0  0.23403942411E+02  0.11488003431E+03  0.40300884607E+03  0.41971573335E+03  0.00000000000E+00 0. -1.
         22    1    3    3    0    0 -0.39779765888E+02 -0.74051796707E+02  0.11850097210E+03  0.14528791676E+03  0.00000000000E+00 0. -1.
         22    1    3    3    0    0  0.30778890792E+02 -0.15767190124E+02 -0.17774747192E+02  0.38882978802E+02  0.00000000000E+00 0. -1.
</event>
<event>
 7    1  0.5889087E-006  0.1792968E+03  0.7818608E-02  0.1193172E+00
          2   -1    0    0  502    0  0.00000000000E+00  0.00000000000E+00  0.48793722131E+03  0.48793722131E+03  0.00000000000E+00 0. -1.
          1   -1    0    0  501    0 -0.00000000000E+00 -0.00000000000E+00 -0.22822410844E+03  0.22822410844E+03  0.00000000000E+00 0. -1.
         25    2    1    2    0    0  0.84992732082E+02  0.33358064665E+02  0.11428716447E+03  0.19240131304E+03  0.12498073577E+03 0.  0.
          2    1    1    2  501    0 -0.17720684065E+03 -0.13319056109E+03 -0.10002073198E+03  0.24319978775E+03  0.00000000000E+00 0. -1.
          1    1    1    2  502    0  0.92214108564E+02  0.99832496427E+02  0.24544668039E+03  0.28056022896E+03  0.00000000000E+00 0. -1.
         22    1    3    3    0    0  0.49978738406E+02 -0.10969085364E+02 -0.13300084083E+02  0.52868585786E+02  0.00000000000E+00 0.  1.
         22    1    3    3    0    0  0.35013993676E+02  0.44327150029E+02  0.12758724855E+03  0.13953272725E+03  0.00000000000E+00 0.  1.
</event>
<event>
 7    1  0.5889087E-006  0.7895527E+02  0.7818608E-02  0.1359409E+00
          2   -1    0    0  502    0  0.00000000000E+00  0.00000000000E+00  0.23468083126E+04  0.23468083126E+04  0.00000000000E+00 0. -1.
          1   -1    0    0  501    0 -0.00000000000E+00 -0.00000000000E+00 -0.17024122777E+03  0.17024122777E+03  0.00000000000E+00 0. -1.
         25    2    1    2    0    0 -0.90847958585E+02 -0.94514939463E+02  0.95057661171E+02  0.20457160313E+03  0.12500862570E+03 0.  0.
          2    1    1    2  501    0  0.64863677094E+02  0.37762037123E+02 -0.10279628715E+03  0.12728057474E+03  0.00000000000E+00 0. -1.
          1    1    1    2  502    0  0.25984281491E+02  0.56752902340E+02  0.21843057108E+04  0.21851973625E+04  0.00000000000E+00 0. -1.
         22    1    3    3    0    0  0.12103749633E+02  0.22334228107E+02  0.14043826834E+02  0.29026670020E+02  0.00000000000E+00 0.  1.
         22    1    3    3    0    0 -0.10295170822E+03 -0.11684916757E+03  0.81013834337E+02  0.17554493311E+03  0.00000000000E+00 0.  1.
</event>
<event>
 7    1  0.5889087E-006  0.5996596E+02  0.7818608E-02  0.1440643E+00
          2   -1    0    0  502    0  0.00000000000E+00  0.00000000000E+00  0.29975409950E+04  0.29975409950E+04  0.00000000000E+00 0. -1.
          1   -1    0    0  501    0 -0.00000000000E+00 -0.00000000000E+00 -0.27101342208E+03  0.27101342208E+03  0.00000000000E+00 0. -1.
         25    2    1    2    0    0 -0.35940125610E+02  0.30089712868E+02  0.13187382862E+03  0.18765405124E+03  0.12500501120E+03 0.  0.
          2    1    1    2  501    0  0.31059596768E+02  0.29987936816E+02 -0.24088379927E+03  0.24472225003E+03  0.00000000000E+00 0. -1.
          1    1    1    2  502    0  0.48805288416E+01 -0.60077649683E+02  0.28355375436E+04  0.28361781159E+04  0.00000000000E+00 0. -1.
         22    1    3    3    0    0 -0.80124397263E+02  0.82446477211E+01  0.10218396178E+03  0.13011324028E+03  0.00000000000E+00 0.  1.
         22    1    3    3    0    0  0.44184271653E+02  0.21845065146E+02  0.29689866839E+02  0.57540810958E+02  0.00000000000E+00 0.  1.
</event>
<event>
 7    1  0.5889087E-006  0.4404391E+02  0.7818608E-02  0.1550634E+00
          2   -1    0    0  502    0  0.00000000000E+00  0.00000000000E+00  0.81080560991E+02  0.81080560991E+02  0.00000000000E+00 0. -1.
          1   -1    0    0  501    0 -0.00000000000E+00 -0.00000000000E+00 -0.24389288800E+04  0.24389288800E+04  0.00000000000E+00 0. -1.
         25    2    1    2    0    0 -0.65900160218E+02  0.14625761838E+02 -0.42059398391E+03  0.44394043317E+03  0.12500825920E+03 0.  0.
          2    1    1    2  501    0  0.22222283857E+02 -0.16117918738E+02 -0.19996784911E+04  0.19998669168E+04  0.00000000000E+00 0. -1.
          1    1    1    2  502    0  0.43677876361E+02  0.14921569000E+01  0.62424156026E+02  0.76202090990E+02  0.00000000000E+00 0. -1.
         22    1    3    3    0    0 -0.53378528277E+02  0.21266474476E+02 -0.42517880526E+03  0.42904375845E+03  0.00000000000E+00 0. -1.
         22    1    3    3    0    0 -0.12521631941E+02 -0.66407126380E+01  0.45848213494E+01  0.14896674717E+02  0.00000000000E+00 0. -1.
</event>
<event>
 7    1  0.5889087E-006  0.9470977E+02  0.7818608E-02  0.1304170E+00
          2   -1    0    0  502    0  0.00000000000E+00  0.00000000000E+00  0.22030931041E+03  0.22030931041E+03  0.00000000000E+00 0. -1.
          1   -1    0    0  501    0 -0.00000000000E+00 -0.00000000000E+00 -0.93160623339E+03  0.93160623339E+03  0.00000000000E+00 0. -1.
         25    2    1    2    0    0 -0.30895733351E+02  0.12287227953E+02  0.15163010331E+02  0.13023495316E+03  0.12500281530E+03 0.  0.
          2    1    1    2  501    0 -0.54349951900E+02 -0.77563027656E+02 -0.85156750286E+03  0.85681803929E+03  0.00000000000E+00 0. -1.
          1    1    1    2  502    0  0.85245685250E+02  0.65275799703E+02  0.12510756955E+03  0.16486255135E+03  0.00000000000E+00 0. -1.
         22    1    3    3    0    0 -0.26683528014E+02 -0.16036118185E+02  0.65387918302E+02  0.72420629752E+02  0.00000000000E+00 0. -1.
         22    1    3    3    0    0 -0.42122053363E+01  0.28323346138E+02 -0.50224907971E+02  0.57814323406E+02  0.00000000000E+00 0. -1.
</event>
<event>
 7    1  0.5889087E-006  0.2893699E+02  0.7818608E-02  0.1627957E+00
          2   -1    0    0  502    0  0.00000000000E+00  0.00000000000E+00  0.16004310502E+04  0.16004310502E+04  0.00000000000E+00 0. -1.
          1   -1    0    0  501    0 -0.00000000000E+00 -0.00000000000E+00 -0.17280290575E+03  0.17280290575E+03  0.00000000000E+00 0. -1.
         25    2    1    2    0    0  0.12820106402E+01  0.88358245295E+01 -0.62978002153E+02  0.14025818605E+03  0.12500565848E+03 0.  0.
          2    1    1    2  501    0  0.20438830673E+02 -0.23241103761E+02 -0.67706568282E+02  0.74445107910E+02  0.00000000000E+00 0. -1.
          1    1    1    2  502    0 -0.21720841313E+02  0.14405279231E+02  0.15583127149E+04  0.15585306620E+04  0.00000000000E+00 0. -1.
         22    1    3    3    0    0  0.50735675562E+02  0.21111879415E+02  0.51380235152E+01  0.55192567551E+02  0.00000000000E+00 0.  1.
         22    1    3    3    0    0 -0.49453664922E+02 -0.12276054886E+02 -0.68116025668E+02  0.85065618499E+02  0.00000000000E+00 0.  1.
</event>
<event>
 7    1  0.5889087E-006  0.6204942E+02  0.7818608E-02  0.1475630E+00
          2   -1    0    0  502    0  0.00000000000E+00  0.00000000000E+00  0.15086322499E+04  0.15086322499E+04  0.00000000000E+00 0. -1.
          1   -1    0    0  501    0 -0.00000000000E+00 -0.00000000000E+00 -0.13703426434E+02  0.13703426434E+02  0.00000000000E+00 0. -1.
         25    2    1    2    0    0  0.43202306131E+02 -0.40344930499E+02  0.97832308278E+03  0.98804794426E+03  0.12501413193E+03 0.  0.
          2    1    1    2  501    0 -0.61786044735E+02  0.13880670361E+02  0.11418276632E+03  0.13056757813E+03  0.00000000000E+00 0. -1.
          1    1    1    2  502    0  0.18583738604E+02  0.26464260138E+02  0.40242297432E+03  0.40372015390E+03  0.00000000000E+00 0. -1.
         22    1    3    3    0    0  0.63069613932E+02 -0.75199399150E+02  0.70187350749E+03  0.70870243851E+03  0.00000000000E+00 0.  1.
         22    1    3    3    0    0 -0.19867307802E+02  0.34854468650E+02  0.27644957529E+03  0.27934550575E+03  0.00000000000E+00 0.  1.
</event>
<event>
 7    1  0.5889087E-006  0.1808280E+03  0.7818608E-02  0.1253182E+00
          2   -1    0    0  502    0  0.00000000000E+00  0.00000000000E+00  0.34460916999E+03  0.34460916999E+03  0.00000000000E+00 0. -1.
          1   -1    0    0  501    0 -0.00000000000E+00 -0.00000000000E+00 -0.52506304738E+03  0.52506304738E+03  0.00000000000E+00 0. -1.
         25    2    1    2    0    0 -0.11708149479E+03 -0.44959807906E+02 -0.28957921605E+03  0.33942677466E+03  0.12499980894E+03 0.  0.
          2    1    1    2  501    0 -0.67796110353E+02  0.24183187072E+02 -0.17579732816E+03  0.18996273241E+03  0.00000000000E+00 0. -1.
          1    1    1    2  502    0  0.18487760515E+03  0.20776620834E+02  0.28492266683E+03  0.34028271030E+03  0.00000000000E+00 0. -1.
         22    1    3    3    0    0 -0.98356700438E+02  0.10587644008E+02 -0.98669979019E+02  0.13972080549E+03  0.00000000000E+00 0. -1.
         22    1    3    3    0    0 -0.18724794355E+02 -0.55547451915E+02 -0.19090923703E+03  0.19970596917E+03  0.00000000000E+00 0. -1.
</event>
<event>
 7    1  0.5889087E-006  0.8807046E+02  0.7818608E-02  0.1474253E+00
          2   -1    0    0  502    0  0.00000000000E+00  0.00000000000E+00  0.91803389492E+03  0.91803389492E+03  0.00000000000E+00 0. -1.
          1   -1    0    0  501    0 -0.00000000000E+00 -0.00000000000E+00 -0.20619531085E+03  0.20619531085E+03  0.00000000000E+00 0. -1.
         25    2    1    2    0    0 -0.24554013523E+02  0.67938007158E+02  0.35555107036E+02  0.14868676914E+03  0.12500046914E+03 0.  0.
          2    1    1    2  501    0  0.11544277927E+02  0.19901680002E+02 -0.14634132524E+03  0.14813888987E+03  0.00000000000E+00 0. -1.
          1    1    1    2  502    0  0.13009735596E+02 -0.87839687159E+02  0.82262480228E+03  0.82740354676E+03  0.00000000000E+00 0. -1.
         22    1    3    3    0    0 -0.25371050999E+02  0.87027755623E+01 -0.42767989701E+02  0.50482962218E+02  0.00000000000E+00 0.  1.
         22    1    3    3    0    0  0.81703747600E+00  0.59235231595E+02  0.78323096737E+02  0.98203806927E+02  0.00000000000E+00 0.  1.
</event>
<event>
 7    1  0.5889087E-006  0.4726705E+02  0.7818608E-02  0.1495551E+00
          2   -1    0    0  502    0  0.00000000000E+00  0.00000000000E+00  0.72952633585E+03  0.72952633585E+03  0.00000000000E+00 0. -1.
          1   -1    0    0  501    0 -0.00000000000E+00 -0.00000000000E+00 -0.10314840227E+04  0.10314840227E+04  0.00000000000E+00 0. -1.
         25    2    1    2    0    0 -0.31089519760E+02  0.21447403426E+02  0.55447093954E+03  0.56965198113E+03  0.12505521764E+03 0.  0.
          2    1    1    2  501    0  0.45134497589E+01 -0.47073500328E+02 -0.10213049851E+04  0.10223992167E+04  0.00000000000E+00 0. -1.
          1    1    1    2  502    0  0.26576070001E+02  0.25626096902E+02  0.16487635872E+03  0.16895916075E+03  0.00000000000E+00 0. -1.
         22    1    3    3    0    0  0.21966757304E+01  0.23000256020E+02  0.52396636102E+03  0.52447553292E+03  0.00000000000E+00 0.  1.
         22    1    3    3    0    0 -0.33286195490E+02 -0.15528525942E+01  0.30504578520E+02  0.45176448201E+02  0.00000000000E+00 0.  1.
</event>
<event>
 7    1  0.5889087E-006  0.8029286E+02  0.7818608E-02  0.1442614E+00
          2   -1    0    0  502    0  0.00000000000E+00  0.00000000000E+00  0.55048001931E+03  0.55048001931E+03  0.00000000000E+00 0. -1.
          1   -1    0    0  501    0 -0.00000000000E+00 -0.00000000000E+00 -0.23145827875E+03  0.23145827875E+03  0.00000000000E+00 0. -1.
         25    2    1    2    0    0 -0.12325973166E+02 -0.69907850658E+02  0.84637228562E+02  0.16681623803E+03  0.12500063846E+03 0.  0.
          2    1    1    2  501    0  0.30231974812E+02 -0.97763437483E+01 -0.18507650853E+03  0.18778408667E+03  0.00000000000E+00 0. -1.
          1    1    1    2  502    0 -0.17906001646E+02  0.79684194406E+02  0.41946102053E+03  0.42733797336E+03  0.00000000000E+00 0. -1.
         22    1    3    3    0    0  0.23109758111E+02 -0.32805152040E+02 -0.23940698855E+02  0.46726822939E+02  0.00000000000E+00 0. -1.
         22    1    3    3    0    0 -0.35435731276E+02 -0.37102698618E+02  0.10857792742E+03  0.12008941510E+03  0.00000000000E+00 0. -1.
</event>
<event>
 7    1  0.5889087E-006  0.8147186E+02  0.7818608E-02  0.1425993E+00
          2   -1    0    0  502    0  0.00000000000E+00  0.00000000000E+00  0.70888275219E+03  0.70888275219E+03  0.00000000000E+00 0. -1.
          1   -1    0    0  501    0 -0.00000000000E+00 -0.00000000000E+00 -0.48701972879E+03  0.48701972879E+03  0.00000000000E+00 0. -1.
         25    2    1    2    0    0  0.96503440645E+02  0.20895460132E+02  0.43269765126E+03  0.46108711367E+03  0.12499813868E+03 0.  0.
          2    1    1    2  501    0 -0.20886510136E+02 -0.28694427484E+02 -0.46662262085E+03  0.46797039091E+03  0.00000000000E+00 0. -1.
          1    1    1    2  502    0 -0.75616930509E+02  0.77989673519E+01  0.25578799300E+03  0.26684497640E+03  0.00000000000E+00 0. -1.
         22    1    3    3    0    0  0.19651947383E+02 -0.32014099483E+02  0.27728194386E+03  0.27981489952E+03  0.00000000000E+00 0.  1.
         22    1    3    3    0    0  0.76851493262E+02  0.52909559615E+02  0.15541570740E+03  0.18127221414E+03  0.00000000000E+00 0.  1.
</event>
<event>
 7    1  0.5889087E-006  0.9094815E+02  0.7818608E-02  0.1303972E+00
          2   -1    0    0  502    0  0.00000000000E+00  0.00000000000E+00  0.13022456543E+04  0.13022456543E+04  0.00000000000E+00 0. -1.
          1   -1    0    0  501    0 -0.00000000000E+00 -0.00000000000E+00 -0.37500906109E+02  0.37500906109E+02  0.00000000000E+00 0. -1.
         25    2    1    2    0    0 -0.29547589570E+01 -0.24161064770E+02  0.18347310380E+03  0.22333996977E+03  0.12500349846E+03 0.  0.
          2    1    1    2  501    0 -0.83729588621E+02 -0.27569680710E+02  0.11511332673E+03  0.14498899716E+03  0.00000000000E+00 0. -1.
          1    1    1    2  502    0  0.86684347578E+02  0.51730745481E+02  0.96615831765E+03  0.97141759348E+03  0.00000000000E+00 0. -1.
         22    1    3    3    0    0  0.23372608164E+02 -0.69486492926E+02  0.12412422539E+03  0.14415781228E+03  0.00000000000E+00 0.  1.
         22    1    3    3    0    0 -0.26327367121E+02  0.45325428156E+02  0.59348878407E+02  0.79182157492E+02  0.00000000000E+00 0.  1.
</event>
<event>
 7    1  0.5889087E-006  0.4108864E+02  0.7818608E-02  0.1501499E+00
          2   -1    0    0  502    0  0.00000000000E+00  0.00000000000E+00  0.24399945840E+03  0.24399945840E+03  0.00000000000E+00 0. -1.
          1   -1    0    0  501    0 -0.00000000000E+00 -0.00000000000E+00 -0.54360152702E+03  0.54360152702E+03  0.00000000000E+00 0. -1.
         25    2    1    2    0    0  0.87760355655E+01  0.10527969098E+02  0.75866176779E+02  0.14686150348E+03  0.12499906997E+03 0.  0.
          2    1    1    2  501    0 -0.29021025200E+02  0.29087051292E+02 -0.50351277927E+03  0.50518649561E+03  0.00000000000E+00 0. -1.
          1    1    1    2  502    0  0.20244989634E+02 -0.39615020390E+02  0.12804453388E+03  0.13555298633E+03  0.00000000000E+00 0. -1.
         22    1    3    3    0    0  0.40595343019E+02 -0.43772075955E+01  0.97426691894E+02  0.10563665138E+03  0.00000000000E+00 0. -1.
         22    1    3    3    0    0 -0.31819307453E+02  0.14905176694E+02 -0.21560515115E+02  0.41224852105E+02  0.00000000000E+00 0. -1.
</event>
<event>
 7    1  0.5889087E-006  0.2164023E+03  0.7818608E-02  0.1177410E+00
          2   -1    0    0  502    0  0.00000000000E+00  0.00000000000E+00  0.32985605945E+03  0.32985605945E+03  0.00000000000E+00 0. -1.
          1   -1    0    0  501    0 -0.00000000000E+00 -0.00000000000E+00 -0.23820377941E+04  0.23820377941E+04  0.00000000000E+00 0. -1.
         25    2    1    2    0    0 -0.16458916731E+03  0.39767503230E+02 -0.10449665294E+04  0.10659511476E+04  0.12500301286E+03 0.  0.
          2    1    1    2  501    0  0.26280789992E+03 -0.13122922468E+03 -0.12952675278E+04  0.13281592789E+04  0.00000000000E+00 0. -1.
          1    1    1    2  502    0 -0.98218732606E+02  0.91461721452E+02  0.28805232256E+03  0.31778342697E+03  0.00000000000E+00 0. -1.
         22    1    3    3    0    0 -0.11864982279E+03  0.84977728155E+02 -0.73753623574E+03  0.75183687976E+03  0.00000000000E+00 0.  1.
         22    1    3    3    0    0 -0.45939344523E+02 -0.45210224925E+02 -0.30743029364E+03  0.31411426784E+03  0.00000000000E+00 0.  1.
</event>
<event>
 7    1  0.5889087E-006  0.2511483E+03  0.7818608E-02  0.1345169E+00
          2   -1    0    0  502    0  0.00000000000E+00  0.00000000000E+00  0.13400918879E+04  0.13400918879E+04  0.00000000000E+00 0. -1.
          1   -1    0    0  501    0 -0.00000000000E+00 -0.00000000000E+00 -0.12441387054E+04  0.12441387054E+04  0.00000000000E+00 0. -1.
         25    2    1    2    0    0  0.15564644050E+03 -0.16908294762E+03  0.32796558374E+03  0.41952517198E+03  0.12500035277E+03 0.  0.
          2    1    1    2  501    0 -0.17184807665E+03  0.18418460736E+03 -0.11849907696E+04  0.12114697087E+04  0.00000000000E+00 0. -1.
          1    1    1    2  502    0  0.16201636151E+02 -0.15101659743E+02  0.95297836835E+03  0.95323571255E+03  0.00000000000E+00 0. -1.
         22    1    3    3    0    0  0.80856412563E+02 -0.65696662771E+01  0.12449002142E+03  0.14858898142E+03  0.00000000000E+00 0.  1.
         22    1    3    3    0    0  0.74790027932E+02 -0.16251328134E+03  0.20347556232E+03  0.27093619056E+03  0.00000000000E+00 0.  1.
</event>
<event>
 7    1  0.5889087E-006  0.1986866E+03  0.7818608E-02  0.1244163E+00
          2   -1    0    0  502    0  0.00000000000E+00  0.00000000000E+00  0.30986735610E+04  0.30986735610E+04  0.00000000000E+00 0. -1.
          1   -1    0    0  501    0 -0.00000000000E+00 -0.00000000000E+00 -0.10051289203E+04  0.10051289203E+04  0.00000000000E+00 0. -1.
         25    2    1    2    0    0 -0.15472299547E+03  0.19473901137E+03 -0.44398490817E+03  0.52403173733E+03  0.12499670067E+03 0.  0.
          2    1    1    2  501    0  0.12388465224E+03 -0.13000949272E+03 -0.50521430924E+03  0.53618222044E+03  0.00000000000E+00 0. -1.
          1    1    1    2  502    0  0.30838343230E+02 -0.64729518645E+02  0.30427438581E+04  0.30435885234E+04  0.00000000000E+00 0. -1.
         22    1    3    3    0    0 -0.10597842615E+03  0.11380340573E+03 -0.15325093061E+03  0.21833114688E+03  0.00000000000E+00 0.  1.
         22    1    3    3    0    0 -0.48744569311E+02  0.80935605638E+02 -0.29073397755E+03  0.30570059045E+03  0.00000000000E+00 0.  1.
</event>
<event>
 7    1  0.5889087E-006  0.3946340E+02  0.7818608E-02  0.1517797E+00
          2   -1    0    0  502    0  0.00000000000E+00  0.00000000000E+00  0.67713250850E+03  0.67713250850E+03  0.00000000000E+00 0. -1.
          1   -1    0    0  501    0 -0.00000000000E+00 -0.00000000000E+00 -0.78773853351E+02  0.78773853351E+02  0.00000000000E+00 0. -1.
         25    2    1    2    0    0 -0.25187263571E+02 -0.16039883831E+02  0.41439469055E+03  0.43386514029E+03  0.12499729711E+03 0.  0.
          2    1    1    2  501    0 -0.14379076071E+02  0.35178220997E+02 -0.61706338899E+02  0.72470251286E+02  0.00000000000E+00 0. -1.
          1    1    1    2  502    0  0.39566339642E+02 -0.19138337166E+02  0.24567030349E+03  0.24957097027E+03  0.00000000000E+00 0. -1.
         22    1    3    3    0    0 -0.29026546556E+02 -0.59909885179E+02  0.34720744441E+03  0.35353181498E+03  0.00000000000E+00 0. -1.
         22    1    3    3    0    0  0.38392829843E+01  0.43870001348E+02  0.67187246136E+02  0.80333325310E+02  0.00000000000E+00 0. -1.
</event>
<event>
 7    1  0.5889087E-006  0.3486832E+02  0.7818608E-02  0.1585872E+00
          2   -1    0    0  502    0  0.00000000000E+00  0.00000000000E+00  0.53008182773E+03  0.53008182773E+03  0.00000000000E+00 0. -1.
          1   -1    0    0  501    0 -0.00000000000E+00 -0.00000000000E+00 -0.18350132374E+03  0.18350132374E+03  0.00000000000E+00 0. -1.
         25    2    1    2    0    0  0.42963893077E+02 -0.38531269674E+02  0.39811578005E+02  0.14331882376E+03  0.12499907460E+03 0.  0.
          2    1    1    2  501    0 -0.31805563043E+02  0.13067531616E+02 -0.12905362446E+03  0.13355595161E+03  0.00000000000E+00 0. -1.
          1    1    1    2  502    0 -0.11158330034E+02  0.25463738058E+02  0.43582255044E+03  0.43670837610E+03  0.00000000000E+00 0. -1.
         22    1    3    3    0    0 -0.27540991520E+02 -0.37286113807E+02 -0.20351305110E+02  0.50625449296E+02  0.00000000000E+00 0. -1.
         22    1    3    3    0    0  0.70504884597E+02 -0.12451558671E+01  0.60162883115E+02  0.92693374466E+02  0.00000000000E+00 0. -1.
</event>
<event>
 7    1  0.5889087E-006  0.1130942E+03  0.7818608E-02  0.1348015E+00
          2   -1    0    0  502    0  0.00000000000E+00  0.00000000000E+00  0.49590335341E+02  0.49590335341E+02  0.00000000000E+00 0. -1.
          1   -1    0    0  501    0 -0.00000000000E+00 -0.00000000000E+00 -0.26294521030E+04  0.26294521030E+04  0.00000000000E+00 0. -1.
         25    2    1    2    0    0 -0.73721934874E+02 -0.10103839911E+03 -0.88152437512E+03  0.89908502057E+03  0.12499987404E+03 0.  0.
          2    1    1    2  501    0 -0.22609809710E+02  0.42340346763E+02 -0.16601779732E+04  0.16608717022E+04  0.00000000000E+00 0. -1.
          1    1    1    2  502    0  0.96331744585E+02  0.58698052350E+02 -0.38159419312E+02  0.11908571554E+03  0.00000000000E+00 0. -1.
         22    1    3    3    0    0  0.19970279140E+02 -0.57146893913E+01 -0.36357324108E+03  0.36416613153E+03  0.00000000000E+00 0. -1.
         22    1    3    3    0    0 -0.93692214014E+02 -0.95323709722E+02 -0.51795113404E+03  0.53491888904E+03  0.00000000000E+00 0. -1.
</event>
<event>
 7    1  0.5889087E-006  0.6241511E+02  0.7818608E-02  0.1449243E+00
          2   -1    0    0  502    0  0.00000000000E+00  0.00000000000E+00  0.10584973517E+04  0.10584973517E+04  0.00000000000E+00 0. -1.
          1   -1    0    0  501    0 -0.00000000000E+00 -0.00000000000E+00 -0.21897871372E+03  0.21897871372E+03  0.00000000000E+00 0. -1.
         25    2    1    2    0    0 -0.38342736680E+01 -0.66849942149E+02 -0.13484407597E+03  0.19568822768E+03  0.12500936449E+03 0.  0.
          2    1    1    2  501    0 -0.33186351680E+02  0.54855657036E+02 -0.34070831466E+02  0.72603709295E+02  0.00000000000E+00 0. -1.
          1    1    1    2  502    0  0.37020625348E+02  0.11994285113E+02  0.10084335454E+04  0.10091841285E+04  0.00000000000E+00 0. -1.
         22    1    3    3    0    0  0.16889573446E+02 -0.64413198293E+01 -0.13042425261E+03  0.13167093058E+03  0.00000000000E+00 0. -1.
         22    1    3    3    0    0 -0.20723847114E+02 -0.60408622320E+02 -0.44198233668E+01  0.64017297103E+02  0.00000000000E+00 0. -1.
</event>
<event>
 7    1  0.5889087E-006  0.7619933E+02  0.7818608E-02  0.1390437E+00
          2   -1    0    0  502    0  0.00000000000E+00  0.00000000000E+00  0.88108011145E+03  0.88108011145E+03  0.00000000000E+00 0. -1.
          1   -1    0    0  501    0 -0.00000000000E+00 -0.00000000000E+00 -0.79873587723E+02  0.79873587723E+02  0.00000000000E+00 0. -1.
         25    2    1    2    0    0 -0.85001616006E+02  0.35185068593E+02  0.23147281634E+03  0.27868946610E+03  0.12499956014E+03 0.  0.
          2    1    1    2  501    0  0.41964597438E+02  0.27401963459E+02 -0.42270606912E+02  0.65564466354E+02  0.00000000000E+00 0. -1.
          1    1    1    2  502    0  0.43037018568E+02 -0.62587032053E+02  0.61200431430E+03  0.61669976672E+03  0.00000000000E+00 0. -1.
         22    1    3    3    0    0  0.30130380248E+02 -0.47305644895E+01  0.70347885197E+02  0.76674917711E+02  0.00000000000E+00 0.  1.
         22    1    3    3    0    0 -0.11513199625E+03  0.39915633083E+02  0.16112493115E+03  0.20201454839E+03  0.00000000000E+00 0.  1.
</event>
<event>
 7    1  0.5889087E-006  0.3907740E+02  0.7818608E-02  0.1560583E+00
          2   -1    0    0  502    0  0.00000000000E+00  0.00000000000E+00  0.46742312033E+03  0.46742312033E+03  0.00000000000E+00 0. -1.
          1   -1    0    0  501    0 -0.00000000000E+00 -0.00000000000E+00 -0.14643626779E+03  0.14643626779E+03  0.00000000000E+00 0. -1.
         25    2    1    2    0    0  0.45156611102E+02  0.47399343182E+02  0.59481145661E+02  0.15313104469E+03  0.12500117158E+03 0.  0.
          2    1    1    2  501    0 -0.13213214125E+02 -0.25859299284E+02 -0.96438931730E+02  0.10071623474E+03  0.00000000000E+00 0. -1.
          1    1    1    2  502    0 -0.31943396978E+02 -0.21540043899E+02  0.35794463860E+03  0.36001210870E+03  0.00000000000E+00 0. -1.
         22    1    3    3    0    0  0.56385800845E+02  0.84704057720E+02  0.48055064724E+02  0.11253188516E+03  0.00000000000E+00 0. -1.
         22    1    3    3    0    0 -0.11229189743E+02 -0.37304714537E+02  0.11426080937E+02  0.40599159530E+02  0.00000000000E+00 0. -1.
</event>
<event>
 7    1  0.5889087E-006  0.1142941E+03  0.7818608E-02  0.1319909E+00
          2   -1    0    0  502    0  0.00000000000E+00  0.00000000000E+00  0.10018782011E+04  0.10018782011E+04  0.00000000000E+00 0. -1.
          1   -1    0    0  501    0 -0.00000000000E+00 -0.00000000000E+00 -0.47947665699E+02  0.47947665699E+02  0.00000000000E+00 0. -1.
         25    2    1    2    0    0 -0.68628555559E+02 -0.28508895331E+02  0.28760945173E+03  0.32228422945E+03  0.12500116830E+03 0.  0.
          2    1    1    2  501    0  0.12301605715E+03  0.55523505852E+02  0.12867013381E+03  0.18647201761E+03  0.00000000000E+00 0. -1.
          1    1    1    2  502    0 -0.54387501592E+02 -0.27014610521E+02  0.53765094987E+03  0.54106961974E+03  0.00000000000E+00 0. -1.
         22    1    3    3    0    0 -0.63192861309E+02  0.30119558619E+02  0.79135005624E+02  0.10565450604E+03  0.00000000000E+00 0.  1.
         22    1    3    3    0    0 -0.54356942508E+01 -0.58628453950E+02  0.20847444611E+03  0.21662972341E+03  0.00000000000E+00 0.  1.
</event>
<event>
 7    1  0.5889087E-006  0.6695767E+02  0.7818608E-02  0.1414344E+00
          2   -1    0    0  502    0  0.00000000000E+00  0.00000000000E+00  0.13329588881E+03  0.13329588881E+03  0.00000000000E+00 0. -1.
          1   -1    0    0  501    0 -0.00000000000E+00 -0.00000000000E+00 -0.30234537903E+03  0.30234537903E+03  0.00000000000E+00 0. -1.
         25    2    1    2    0    0 -0.26264070188E+02 -0.47489518799E+01 -0.54796924435E+02  0.13906818263E+03  0.12499961027E+03 0.  0.
          2    1    1    2  501    0  0.73444953836E+02  0.25787749131E+01 -0.19201103471E+03  0.20559437924E+03  0.00000000000E+00 0. -1.
          1    1    1    2  502    0 -0.47180883648E+02  0.21701769667E+01  0.77758468922E+02  0.90978705964E+02  0.00000000000E+00 0. -1.
         22    1    3    3    0    0  0.15851579152E+02  0.41793885572E+02 -0.61406135938E+02  0.75952057007E+02  0.00000000000E+00 0.  1.
         22    1    3    3    0    0 -0.42115649340E+02 -0.46542837452E+02  0.66092115026E+01  0.63116125627E+02  0.00000000000E+00 0.  1.
</event>
<event>
 7    1  0.5889087E-006  0.2591845E+03  0.7818608E-02  0.1200501E+00
          2   -1    0    0  502    0  0.00000000000E+00  0.00000000000E+00  0.23586502263E+04  0.23586502263E+04  0.00000000000E+00 0. -1.
          1   -1    0    0  501    0 -0.00000000000E+00 -0.00000000000E+00 -0.19240202341E+03  0.19240202341E+03  0.00000000000E+00 0. -1.
         25    2    1    2    0    0 -0.16473435197E+03  0.87981936684E+02  0.56793113184E+03  0.61077786966E+03  0.12500243058E+03 0.  0.
          2    1    1    2  501    0  0.24711466385E+03 -0.11527538395E+03 -0.60399837113E+02  0.27928876017E+03  0.00000000000E+00 0. -1.
          1    1    1    2  502    0 -0.82380311875E+02  0.27293447270E+02  0.16587169082E+04  0.16609856199E+04  0.00000000000E+00 0. -1.
         22    1    3    3    0    0 -0.58868464847E+02 -0.18711966599E+02  0.27126465508E+03  0.27820881896E+03  0.00000000000E+00 0.  1.
         22    1    3    3    0    0 -0.10586588712E+03  0.10669390328E+03  0.29666647675E+03  0.33256905070E+03  0.00000000000E+00 0.  1.
</event>
<event>
 7    1  0.5889087E-006  0.5635416E+02  0.7818608E-02  0.1491561E+00
          2   -1    0    0  502    0  0.00000000000E+00  0.00000000000E+00  0.92095284572E+02  0.92095284572E+02  0.00000000000E+00 0. -1.
          1   -1    0    0  501    0 -0.00000000000E+00 -0.00000000000E+00 -0.18744172781E+04  0.18744172781E+04  0.00000000000E+00 0. -1.
         25    2    1    2    0    0 -0.38916008565E+02  0.42935719160E+02 -0.15810883748E+02  0.13868552799E+03  0.12500303966E+03 0.  0.
          2    1    1    2  501    0  0.96955006575E+01 -0.55567550825E+02 -0.17883389953E+04  0.17892283581E+04  0.00000000000E+00 0. -1.
          1    1    1    2  502    0  0.29220507907E+02  0.12631831666E+02  0.21827885452E+02  0.38598676621E+02  0.00000000000E+00 0. -1.
         22    1    3    3    0    0  0.20577801098E+02  0.34023726177E+02  0.40161773982E+02  0.56515731707E+02  0.00000000000E+00 0.  1.
         22    1    3    3    0    0 -0.59493809662E+02  0.89119929828E+01 -0.55972657730E+02  0.82169796278E+02  0.00000000000E+00 0.  1.
</event>
<event>
 7    1  0.5889087E-006  0.9389190E+02  0.7818608E-02  0.1323673E+00
          2   -1    0    0  502    0  0.00000000000E+00  0.00000000000E+00  0.17998325086E+04  0.17998325086E+04  0.00000000000E+00 0. -1.
          1   -1    0    0  501    0 -0.00000000000E+00 -0.00000000000E+00 -0.34432063022E+03  0.34432063022E+03  0.00000000000E+00 0. -1.
         25    2    1    2    0    0 -0.90597501213E+02  0.13467300398E+03  0.36726581459E+03  0.42053829133E+03  0.12499420258E+03 0.  0.
          2    1    1    2  501    0  0.61576394429E+02 -0.69343728181E+02 -0.30998391551E+03  0.32355870080E+03  0.00000000000E+00 0. -1.
          1    1    1    2  502    0  0.29021106784E+02 -0.65329275797E+02  0.13982299793E+04  0.14000561467E+04  0.00000000000E+00 0. -1.
         22    1    3    3    0    0 -0.71101016464E+02  0.13244145172E+03  0.19039731694E+03  0.24258448213E+03  0.00000000000E+00 0. -1.
         22    1    3    3    0    0 -0.19496484749E+02  0.22315522578E+01  0.17686849766E+03  0.17795380920E+03  0.00000000000E+00 0. -1.
</event>
<event>
 7    1  0.5889087E-006  0.7827502E+02  0.7818608E-02  0.1427232E+00
          2   -1    0    0  502    0  0.00000000000E+00  0.00000000000E+00  0.91322908669E+02  0.91322908669E+02  0.00000000000E+00 0. -1.
          1   -1    0    0  501    0 -0.00000000000E+00 -0.00000000000E+00 -0.20243664900E+04  0.20243664900E+04  0.00000000000E+00 0. -1.
         25    2    1    2    0    0  0.41509877826E+02  0.32851990604E+02 -0.96622447316E+03  0.97571355402E+03  0.12499953491E+03 0.  0.
          2    1    1    2  501    0 -0.61313924906E+02 -0.63623591737E+02 -0.10475860078E+04  0.10513057607E+04  0.00000000000E+00 0. -1.
          1    1    1    2  502    0  0.19804047080E+02  0.30771601133E+02  0.80766899594E+02  0.88670083946E+02  0.00000000000E+00 0. -1.
         22    1    3    3    0    0  0.82492400120E+02  0.11746668227E+02 -0.46789247753E+03  0.47525398559E+03  0.00000000000E+00 0.  1.
         22    1    3    3    0    0 -0.40982522294E+02  0.21105322377E+02 -0.49833199563E+03  0.50045956843E+03  0.00000000000E+00 0.  1.
</event>
<event>
 7    1  0.5889087E-006  0.2572639E+03  0.7818608E-02  0.1191345E+00
          2   -1    0    0  502    0  0.00000000000E+00  0.00000000000E+00  0.35661068078E+03  0.35661068078E+03  0.00000000000E+00 0. -1.
          1   -1    0    0  501    0 -0.00000000000E+00 -0.00000000000E+00 -0.69812846711E+03  0.69812846711E+03  0.00000000000E+00 0. -1.
         25    2    1    2    0    0 -0.14874405362E+03 -0.13544755651E+03 -0.35430967429E+02  0.23948087422E+03  0.12499960645E+03 0.  0.
          2    1    1    2  501    0 -0.90624391705E+02 -0.33563787654E+02 -0.46977741806E+03  0.47961456476E+03  0.00000000000E+00 0. -1.
          1    1    1    2  502    0  0.23936844533E+03  0.16901134416E+03  0.16369059915E+03  0.33564370890E+03  0.00000000000E+00 0. -1.
         22    1    3    3    0    0 -0.51519410757E+02 -0.12451055314E+03 -0.42756383263E+02  0.14136914740E+03  0.00000000000E+00 0. -1.
         22    1    3    3    0    0 -0.97224642865E+02 -0.10937003375E+02  0.73254158337E+01  0.98111726823E+02  0.00000000000E+00 0. -1.
</event>
<event>
 7    1  0.5889087E-006  0.1123501E+03  0.7818608E-02  0.1278525E+00
          2   -1    0    0  502    0  0.00000000000E+00  0.00000000000E+00  0.37456082568E+03  0.37456082568E+03  0.00000000000E+00 0. -1.
          1   -1    0    0  501    0 -0.00000000000E+00 -0.00000000000E+00 -0.73696307160E+03  0.73696307160E+03  0.00000000000E+00 0. -1.
         25    2    1    2    0    0  0.10205468886E+03  0.16102542594E+03  0.10436292227E+03  0.25072012508E+03  0.12499845702E+03 0.  0.
          2    1    1    2  501    0 -0.83430730600E+02 -0.72440603196E+02 -0.64846127229E+03  0.65780722819E+03  0.00000000000E+00 0. -1.
          1    1    1    2  502    0 -0.18623958265E+02 -0.88584822740E+02  0.18169610409E+03  0.20299654402E+03  0.00000000000E+00 0. -1.
         22    1    3    3    0    0  0.40700858043E+01  0.10349412875E+03  0.88023505302E+02  0.13592548609E+03  0.00000000000E+00 0.  1.
         22    1    3    3    0    0  0.97984603060E+02  0.57531297189E+02  0.16339416970E+02  0.11479463899E+03  0.00000000000E+00 0.  1.
</event>
<event>
 7    1  0.5889087E-006  0.1489777E+03  0.7818608E-02  0.1270076E+00
          2   -1    0    0  502    0  0.00000000000E+00  0.00000000000E+00  0.10216614727E+04  0.10216614727E+04  0.00000000000E+00 0. -1.
          1   -1    0    0  501    0 -0.00000000000E+00 -0.00000000000E+00 -0.10985771829E+03  0.10985771829E+03  0.00000000000E+00 0. -1.
         25    2    1    2    0    0  0.80690973704E+02 -0.17268086505E+03  0.11629932808E+03  0.25588614334E+03  0.12498988059E+03 0.  0.
          2    1    1    2  501    0 -0.80112521621E+02  0.98647733484E+02  0.67539586706E+02  0.14391312384E+03  0.00000000000E+00 0. -1.
          1    1    1    2  502    0 -0.57845208310E+00  0.74033131562E+02  0.72796483963E+03  0.73171992382E+03  0.00000000000E+00 0. -1.
         22    1    3    3    0    0  0.56342951935E+02 -0.85850709813E+02  0.12892999596E+03  0.16482662548E+03  0.00000000000E+00 0. -1.
         22    1    3    3    0    0  0.24348021770E+02 -0.86830155233E+02 -0.12630667877E+02  0.91059517860E+02  0.00000000000E+00 0. -1.
</event>
<event>
 7    1  0.5889087E-006  0.1054617E+03  0.7818608E-02  0.1390291E+00
          2   -1    0    0  502    0  0.00000000000E+00  0.00000000000E+00  0.34313645539E+03  0.34313645539E+03  0.00000000000E+00 0. -1.
          1   -1    0    0  501    0 -0.00000000000E+00 -0.00000000000E+00 -0.16101290186E+04  0.16101290186E+04  0.00000000000E+00 0. -1.
         25    2    1    2    0    0 -0.56877251192E+02 -0.44208390409E+02 -0.97179947999E+02  0.17394696637E+03  0.12499680529E+03 0.  0.
          2    1    1    2  501    0 -0.23719819423E+02 -0.27418647413E+02 -0.14647967412E+04  0.14652453396E+04  0.00000000000E+00 0. -1.
          1    1    1    2  502    0  0.80597070615E+02  0.71627037822E+02  0.29498412597E+03  0.31407316809E+03  0.00000000000E+00 0. -1.
         22    1    3    3    0    0 -0.87233825272E+02 -0.39011336797E+02 -0.10519961831E+03  0.14212172375E+03  0.00000000000E+00 0. -1.
         22    1    3    3    0    0  0.30356574080E+02 -0.51970536120E+01  0.80196703065E+01  0.31825242622E+02  0.00000000000E+00 0. -1.
</event>
