<event>
 7    1  0.6262315E-006  0.1247281E+03  0.7818608E-02  0.1288282E+00
          2   -1    0    0  502    0  0.00000000000E+00  0.00000000000E+00  0.66836775553E+03  0.66836775553E+03  0.00000000000E+00 0. -1.
          1   -1    0    0  501    0 -0.00000000000E+00 -0.00000000000E+00 -0.10412218159E+04  0.10412218159E+04  0.00000000000E+00 0. -1.
         25    2    1    2    0    0  0.44839491363E+02 -0.90217350166E+02  0.15361381763E+03  0.22219641097E+03  0.12499715927E+03 0.  0.
          2    1    1    2  501    0  0.71287309056E+02  0.21105829762E+02 -0.99601539047E+03  0.99878626069E+03  0.00000000000E+00 0. -1.
          1    1    1    2  502    0 -0.11612680042E+03  0.69111520404E+02  0.46954751247E+03  0.48860689976E+03  0.00000000000E+00 0. -1.
         22    1    3    3    0    0  0.80392689694E+02 -0.48155167355E+02  0.13444240210E+03  0.16388002984E+03  0.00000000000E+00 0. -1.
         22    1    3    3    0    0 -0.35553198331E+02 -0.42062182812E+02  0.19171415529E+02  0.58316381128E+02  0.00000000000E+00 0. -1.
</event>
<event>
 7    1  0.1201926E-005  0.1053699E+03  0.7818608E-02  0.1352141E+00
          2   -1    0    0  502    0  0.00000000000E+00  0.00000000000E+00  0.97266997173E+03  0.97266997173E+03  0.00000000000E+00 0. -1.
          1   -1    0    0  501    0 -0.00000000000E+00 -0.00000000000E+00 -0.11447983032E+04  0.11447983032E+04  0.00000000000E+00 0. -1.
         25    2    1    2    0    0 -0.61098222087E+01 -0.70049499719E+02 -0.46444947060E+03  0.48608920236E+03  0.12500055827E+03 0.  0.
          2    1    1    2  501    0 -0.44190043265E+02 -0.22823327283E+02 -0.66569901363E+03  0.66755437302E+03  0.00000000000E+00 0. -1.
          1    1    1    2  502    0  0.50299865474E+02  0.92872827002E+02  0.95802015273E+03  0.96382469957E+03  0.00000000000E+00 0. -1.
         22    1    3    3    0    0  0.36202135403E+02 -0.88415586929E+02 -0.34683318142E+03  0.35975153420E+03  0.00000000000E+00 0. -1.
         22    1    3    3    0    0 -0.42311957612E+02  0.18366087209E+02 -0.11761628918E+03  0.12633766816E+03  0.00000000000E+00 0. -1.
</event>
<event>
 7    1  0.6262315E-006  0.1135470E+03  0.7818608E-02  0.1426264E+00
          2   -1    0    0  502    0  0.00000000000E+00  0.00000000000E+00  0.21069852816E+04  0.21069852816E+04  0.00000000000E+00 0. -1.
          1   -1    0    0  501    0 -0.00000000000E+00 -0.00000000000E+00 -0.45966647591E+02  0.45966647591E+02  0.00000000000E+00 0. -1.
         25    2    1    2    0    0 -0.81882681955E+02 -0.40991798300E+02  0.71916145172E+03  0.73566574787E+03  0.12500319125E+03 0.  0.
          2    1    1    2  501    0  0.10679858572E+03  0.45992616127E+02  0.52338249953E+02  0.12751686578E+03  0.00000000000E+00 0. -1.
          1    1    1    2  502    0 -0.24915903770E+02 -0.50008178269E+01  0.12895189323E+04  0.12897693155E+04  0.00000000000E+00 0. -1.
         22    1    3    3    0    0 -0.91174783385E+02  0.19911120550E+02  0.43939956990E+03  0.44920070779E+03  0.00000000000E+00 0.  1.
         22    1    3    3    0    0  0.92921014303E+01 -0.60902918850E+02  0.27976188182E+03  0.28646504009E+03  0.00000000000E+00 0.  1.
</event>
<event>
 7    1  0.6262315E-006  0.1814080E+03  0.7818608E-02  0.1263465E+00
          2   -1    0    0  502    0  0.00000000000E+00  0.00000000000E+00  0.53637985988E+03  0.53637985988E+03  0.00000000000E+00 0. -1.
          1   -1    0    0  501    0 -0.00000000000E+00 -0.00000000000E+00 -0.17292782586E+04  0.17292782586E+04  0.00000000000E+00 0. -1.
         25    2    1    2    0    0 -0.18863870544E+03 -0.13954938426E+03 -0.18718664068E+02  0.26652111338E+03  0.12499809461E+03 0.  0.
          2    1    1    2  501    0  0.36612480239E+02  0.53508246739E+02 -0.15674631833E+04  0.15688035049E+04  0.00000000000E+00 0. -1.
          1    1    1    2  502    0  0.15202622520E+03  0.86041137524E+02  0.39328344857E+03  0.43033350022E+03  0.00000000000E+00 0. -1.
         22    1    3    3    0    0 -0.37400877778E+02 -0.89760516469E+02  0.26898977436E+02  0.10089267051E+03  0.00000000000E+00 0.  1.
         22    1    3    3    0    0 -0.15123782766E+03 -0.49788867794E+02 -0.45617641504E+02  0.16562844287E+03  0.00000000000E+00 0.  1.
</event>
<event>
 7    1  0.6262315E-006  0.1170353E+03  0.7818608E-02  0.1417752E+00
          2   -1    0    0  502    0  0.00000000000E+00  0.00000000000E+00  0.17428757388E+03  0.17428757388E+03  0.00000000000E+00 0. -1.
          1   -1    0    0  501    0 -0.00000000000E+00 -0.00000000000E+00 -0.29368769529E+03  0.29368769529E+03  0.00000000000E+00 0. -1.
         25    2    1    2    0    0 -0.61144112160E+02 -0.90644472966E+02 -0.16900677444E+03  0.23693755563E+03  0.12498436914E+03 0.  0.
          2    1    1    2  501    0 -0.24653501336E+02  0.92122508515E+01 -0.62654674539E+02  0.67957846754E+02  0.00000000000E+00 0. -1.
          1    1    1    2  502    0  0.85797613496E+02  0.81432222115E+02  0.11226132757E+03  0.16307986678E+03  0.00000000000E+00 0. -1.
         22    1    3    3    0    0 -0.81385667761E+02 -0.95627369438E+01 -0.93268144044E+02  0.12415320998E+03  0.00000000000E+00 0.  1.
         22    1    3    3    0    0  0.20241555601E+02 -0.81081736022E+02 -0.75738630400E+02  0.11278434565E+03  0.00000000000E+00 0.  1.
</event>
<event>
 7    1  0.6262315E-006  0.4535524E+02  0.7818608E-02  0.1483705E+00
          2   -1    0    0  502    0  0.00000000000E+00  0.00000000000E+00  0.84951519028E+03  0.84951519028E+03  0.00000000000E+00 0. -1.
          1   -1    0    0  501    0 -0.00000000000E+00 -0.00000000000E+00 -0.36290174274E+03  0.36290174274E+03  0.00000000000E+00 0. -1.
         25    2    1    2    0    0 -0.31135403765E+02  0.25057791353E+02 -0.63901303074E+02  0.14596512437E+03  0.12500053889E+03 0.  0.
          2    1    1    2  501    0  0.44174843096E+02  0.14642163082E+02 -0.25532386315E+03  0.25953050841E+03  0.00000000000E+00 0. -1.
          1    1    1    2  502    0 -0.13039439330E+02 -0.39699954435E+02  0.80583861376E+03  0.80692130025E+03  0.00000000000E+00 0. -1.
         22    1    3    3    0    0 -0.51624624759E+02  0.17567809025E+02  0.20902205436E+02  0.58400616329E+02  0.00000000000E+00 0.  1.
         22    1    3    3    0    0  0.20489220993E+02  0.74899823277E+01 -0.84803508511E+02  0.87564508038E+02  0.00000000000E+00 0.  1.
</event>
<event>
 7    1  0.6262315E-006  0.7193540E+02  0.7818608E-02  0.1375065E+00
          2   -1    0    0  502    0  0.00000000000E+00  0.00000000000E+00  0.23749564840E+03  0.23749564840E+03  0.00000000000E+00 0. -1.
          1   -1    0    0  501    0 -0.00000000000E+00 -0.00000000000E+00 -0.36221453260E+03  0.36221453260E+03  0.00000000000E+00 0. -1.
         25    2    1    2    0    0 -0.78668652411E+02 -0.10068880628E+03 -0.16418273517E+03  0.24271367513E+03  0.12500785970E+03 0.  0.
          2    1    1    2  501    0  0.46364878144E+02  0.38317805029E+02 -0.14641523607E+03  0.15828890504E+03  0.00000000000E+00 0. -1.
          1    1    1    2  502    0  0.32303774267E+02  0.62371001252E+02  0.18587908703E+03  0.19870760083E+03  0.00000000000E+00 0. -1.
         22    1    3    3    0    0 -0.54948349801E+02 -0.11621107712E+03 -0.74318399984E+02  0.14848420848E+03  0.00000000000E+00 0. -1.
         22    1    3    3    0    0 -0.23720302611E+02  0.15522270835E+02 -0.89864335188E+02  0.94229466658E+02  0.00000000000E+00 0. -1.
</event>
<event>
 7    1  0.6262315E-006  0.1090473E+03  0.7818608E-02  0.1302604E+00
          2   -1    0    0  502    0  0.00000000000E+00  0.00000000000E+00  0.77287291185E+02  0.77287291185E+02  0.00000000000E+00 0. -1.
          1   -1    0    0  501    0 -0.00000000000E+00 -0.00000000000E+00 -0.22295218193E+04  0.22295218193E+04  0.00000000000E+00 0. -1.
         25    2    1    2    0    0  0.64899954950E+02  0.41722261540E+02 -0.59825353312E+03  0.61602433312E+03  0.12500375132E+03 0.  0.
          2    1    1    2  501    0  0.46873670236E+02 -0.57840207067E+02 -0.15742849052E+04  0.15760442866E+04  0.00000000000E+00 0. -1.
          1    1    1    2  502    0 -0.11177362519E+03  0.16117945527E+02  0.20303910209E+02  0.11474049078E+03  0.00000000000E+00 0. -1.
         22    1    3    3    0    0 -0.15158493931E+02  0.12556587731E+02 -0.39686178905E+03  0.39734962872E+03  0.00000000000E+00 0. -1.
         22    1    3    3    0    0  0.80058448881E+02  0.29165673809E+02 -0.20139174407E+03  0.21867470440E+03  0.00000000000E+00 0. -1.
</event>
<event>
 7    1  0.6262315E-006  0.2666936E+02  0.7818608E-02  0.1689024E+00
          2   -1    0    0  502    0  0.00000000000E+00  0.00000000000E+00  0.10976098058E+03  0.10976098058E+03  0.00000000000E+00 0. -1.
          1   -1    0    0  501    0 -0.00000000000E+00 -0.00000000000E+00 -0.69711810622E+03  0.69711810622E+03  0.00000000000E+00 0. -1.
         25    2    1    2    0    0  0.11379541414E+02  0.32641791739E+02 -0.13077345782E+02  0.13035596209E+03  0.12500671722E+03 0.  0.
          2    1    1    2  501    0  0.74489892486E+01 -0.25600205373E+02 -0.62312914897E+03  0.62369928191E+03  0.00000000000E+00 0. -1.
          1    1    1    2  502    0 -0.18828530663E+02 -0.70415863661E+01  0.48849369116E+02  0.52823842803E+02  0.00000000000E+00 0. -1.
         22    1    3    3    0    0  0.11001518510E+02  0.37969024604E+02  0.51854943144E+02  0.65204412177E+02  0.00000000000E+00 0.  1.
         22    1    3    3    0    0  0.37802290434E+00 -0.53272328651E+01 -0.64932288926E+02  0.65151549916E+02  0.00000000000E+00 0.  1.
</event>
<event>
 7    1  0.6262315E-006  0.4030134E+02  0.7818608E-02  0.1583334E+00
          2   -1    0    0  502    0  0.00000000000E+00  0.00000000000E+00  0.63893912143E+03  0.63893912143E+03  0.00000000000E+00 0. -1.
          1   -1    0    0  501    0 -0.00000000000E+00 -0.00000000000E+00 -0.45337697441E+03  0.45337697441E+03  0.00000000000E+00 0. -1.
         25    2    1    2    0    0  0.43118013860E+02 -0.11860178769E+02  0.30489124634E+03  0.33253969195E+03  0.12499659063E+03 0.  0.
          2    1    1    2  501    0 -0.38444109256E+02 -0.12119629211E+02 -0.43816029269E+03  0.44001054197E+03  0.00000000000E+00 0. -1.
          1    1    1    2  502    0 -0.46739046036E+01  0.23979807980E+02  0.31883119337E+03  0.31976586191E+03  0.00000000000E+00 0. -1.
         22    1    3    3    0    0  0.60324047785E+02  0.29598049550E+01  0.30386373763E+03  0.30980787955E+03  0.00000000000E+00 0.  1.
         22    1    3    3    0    0 -0.17206033926E+02 -0.14819983724E+02  0.10275087134E+01  0.22731812404E+02  0.00000000000E+00 0.  1.
</event>
<event>
 7    1  0.6262315E-006  0.6540093E+02  0.7818608E-02  0.1500782E+00
          2   -1    0    0  502    0  0.00000000000E+00  0.00000000000E+00  0.29964072466E+03  0.29964072466E+03  0.00000000000E+00 0. -1.
          1   -1    0    0  501    0 -0.00000000000E+00 -0.00000000000E+00 -0.10741262230E+04  0.10741262230E+04  0.00000000000E+00 0. -1.
         25    2    1    2    0    0  0.13448223172E+02  0.63105415501E+02 -0.17064706222E+03  0.22115250299E+03  0.12499944625E+03 0.  0.
          2    1    1    2  501    0 -0.37492775515E+02 -0.53924618306E+02 -0.87639140556E+03  0.87884894517E+03  0.00000000000E+00 0. -1.
          1    1    1    2  502    0  0.24044552343E+02 -0.91807971946E+01  0.27255296947E+03  0.27376549948E+03  0.00000000000E+00 0. -1.
         22    1    3    3    0    0  0.34031974702E+02 -0.27198900178E+02 -0.82474620532E+02  0.93273889728E+02  0.00000000000E+00 0.  1.
         22    1    3    3    0    0 -0.20583751530E+02  0.90304315679E+02 -0.88172441687E+02  0.12787861326E+03  0.00000000000E+00 0.  1.
</event>
<event>
 7    1  0.6262315E-006  0.8318590E+02  0.7818608E-02  0.1497417E+00
          2   -1    0    0  502    0  0.00000000000E+00  0.00000000000E+00  0.13499489270E+04  0.13499489270E+04  0.00000000000E+00 0. -1.
          1   -1    0    0  501    0 -0.00000000000E+00 -0.00000000000E+00 -0.89859397573E+03  0.89859397573E+03  0.00000000000E+00 0. -1.
         25    2    1    2    0    0  0.34005106573E+02 -0.77618430491E+02 -0.36782948033E+03  0.39762398103E+03  0.12500134268E+03 0.  0.
          2    1    1    2  501    0 -0.51038740894E+02  0.65840628018E+02 -0.51242296924E+03  0.51915049915E+03  0.00000000000E+00 0. -1.
          1    1    1    2  502    0  0.17033634321E+02  0.11777802473E+02  0.13316074008E+04  0.13317684225E+04  0.00000000000E+00 0. -1.
         22    1    3    3    0    0 -0.33198251878E+02 -0.76898463803E+02 -0.20923902973E+03  0.22538072062E+03  0.00000000000E+00 0. -1.
         22    1    3    3    0    0  0.67203358451E+02 -0.71996668790E+00 -0.15859045060E+03  0.17224326042E+03  0.00000000000E+00 0. -1.
</event>
<event>
 7    1  0.6262315E-006  0.4862395E+02  0.7818608E-02  0.1454261E+00
          2   -1    0    0  502    0  0.00000000000E+00  0.00000000000E+00  0.12795816083E+04  0.12795816083E+04  0.00000000000E+00 0. -1.
          1   -1    0    0  501    0 -0.00000000000E+00 -0.00000000000E+00 -0.11326043485E+03  0.11326043485E+03  0.00000000000E+00 0. -1.
         25    2    1    2    0    0  0.26103279251E+02 -0.92274687519E+01  0.21684310672E+03  0.25181845114E+03  0.12500028816E+03 0.  0.
          2    1    1    2  501    0  0.15926836458E+01  0.49192732969E+02 -0.88842565200E+02  0.10156506786E+03  0.00000000000E+00 0. -1.
          1    1    1    2  502    0 -0.27695962897E+02 -0.39965264217E+02  0.10383206320E+04  0.10394585242E+04  0.00000000000E+00 0. -1.
         22    1    3    3    0    0 -0.41073007992E+02 -0.21971576777E+02  0.14647218949E+03  0.15370050249E+03  0.00000000000E+00 0.  1.
         22    1    3    3    0    0  0.67176287243E+02  0.12744108025E+02  0.70370917230E+02  0.98117948658E+02  0.00000000000E+00 0.  1.
</event>
<event>
 7    1  0.6262315E-006  0.5131529E+02  0.7818608E-02  0.1439804E+00
          2   -1    0    0  502    0  0.00000000000E+00  0.00000000000E+00  0.90487611402E+03  0.90487611402E+03  0.00000000000E+00 0. -1.
          1   -1    0    0  501    0 -0.00000000000E+00 -0.00000000000E+00 -0.12567863818E+04  0.12567863818E+04  0.00000000000E+00 0. -1.
         25    2    1    2    0    0 -0.11681229947E+02 -0.37171175208E+02  0.55838963813E+02  0.14233291003E+03  0.12499007960E+03 0.  0.
          2    1    1    2  501    0  0.51234890537E+02  0.53434964933E+01 -0.12121921674E+04  0.12132862060E+04  0.00000000000E+00 0. -1.
          1    1    1    2  502    0 -0.39553660590E+02  0.31827678715E+02  0.80444293579E+03  0.80604337981E+03  0.00000000000E+00 0. -1.
         22    1    3    3    0    0  0.52195177594E+02  0.37517759457E+01  0.37232118770E+02  0.64223384020E+02  0.00000000000E+00 0. -1.
         22    1    3    3    0    0 -0.63876407540E+02 -0.40922951154E+02  0.18606845043E+02  0.78109526012E+02  0.00000000000E+00 0. -1.
</event>
<event>
 7    1  0.6262315E-006  0.7162140E+02  0.7818608E-02  0.1374135E+00
          2   -1    0    0  502    0  0.00000000000E+00  0.00000000000E+00  0.70179335183E+03  0.70179335183E+03  0.00000000000E+00 0. -1.
          1   -1    0    0  501    0 -0.00000000000E+00 -0.00000000000E+00 -0.39188890961E+02  0.39188890961E+02  0.00000000000E+00 0. -1.
         25    2    1    2    0    0 -0.25669473253E+02 -0.58462476610E+02  0.32629549144E+03  0.35520622352E+03  0.12500372180E+03 0.  0.
          2    1    1    2  501    0 -0.34242273081E+02  0.69258162671E+02  0.47662035430E+02  0.90779380828E+02  0.00000000000E+00 0. -1.
          1    1    1    2  502    0  0.59911746333E+02 -0.10795686061E+02  0.28864693399E+03  0.29499663844E+03  0.00000000000E+00 0. -1.
         22    1    3    3    0    0  0.35168450511E+02 -0.20912967279E+02  0.23849847370E+03  0.24198283838E+03  0.00000000000E+00 0. -1.
         22    1    3    3    0    0 -0.60837923763E+02 -0.37549509332E+02  0.87797017745E+02  0.11322338515E+03  0.00000000000E+00 0. -1.
</event>
<event>
 7    1  0.6262315E-006  0.1350525E+03  0.7818608E-02  0.1255022E+00
          2   -1    0    0  502    0  0.00000000000E+00  0.00000000000E+00  0.98001466578E+02  0.98001466578E+02  0.00000000000E+00 0. -1.
          1   -1    0    0  501    0 -0.00000000000E+00 -0.00000000000E+00 -0.33245409361E+04  0.33245409361E+04  0.00000000000E+00 0. -1.
         25    2    1    2    0    0 -0.99581245661E+02 -0.25497455491E+02 -0.10795606557E+04  0.10916238454E+04  0.12499946347E+03 0.  0.
          2    1    1    2  501    0  0.25830132852E+02 -0.91040026563E+02 -0.21856404551E+04  0.21876882048E+04  0.00000000000E+00 0. -1.
          1    1    1    2  502    0  0.73751112810E+02  0.11653748205E+03  0.38661641295E+02  0.14323035248E+03  0.00000000000E+00 0. -1.
         22    1    3    3    0    0  0.52145115857E+01 -0.21409519218E+02 -0.61406683825E+03  0.61446207408E+03  0.00000000000E+00 0.  1.
         22    1    3    3    0    0 -0.10479575725E+03 -0.40879362729E+01 -0.46549381741E+03  0.47716177132E+03  0.00000000000E+00 0.  1.
</event>
<event>
 7    1  0.6262315E-006  0.7911365E+02  0.7818608E-02  0.1375707E+00
          2   -1    0    0  502    0  0.00000000000E+00  0.00000000000E+00  0.34649183525E+03  0.34649183525E+03  0.00000000000E+00 0. -1.
          1   -1    0    0  501    0 -0.00000000000E+00 -0.00000000000E+00 -0.22395119526E+03  0.22395119526E+03  0.00000000000E+00 0. -1.
         25    2    1    2    0    0 -0.86569771079E+02 -0.54066058215E+02  0.63982976102E+02  0.17359797843E+03  0.12499989187E+03 0.  0.
          2    1    1    2  501    0  0.34656317662E+02  0.70339170871E+02 -0.15648239303E+03  0.17502970788E+03  0.00000000000E+00 0. -1.
          1    1    1    2  502    0  0.51913453417E+02 -0.16273112656E+02  0.21504005691E+03  0.22181534419E+03  0.00000000000E+00 0. -1.
         22    1    3    3    0    0  0.29764033556E+02  0.61019508032E+01  0.13156289591E+02  0.33109204958E+02  0.00000000000E+00 0.  1.
         22    1    3    3    0    0 -0.11633380464E+03 -0.60168009018E+02  0.50826686511E+02  0.14048877347E+03  0.00000000000E+00 0.  1.
</event>
<event>
 7    1  0.6262315E-006  0.1391228E+03  0.7818608E-02  0.1352947E+00
          2   -1    0    0  502    0  0.00000000000E+00  0.00000000000E+00  0.38519915001E+03  0.38519915001E+03  0.00000000000E+00 0. -1.
          1   -1    0    0  501    0 -0.00000000000E+00 -0.00000000000E+00 -0.11509505561E+04  0.11509505561E+04  0.00000000000E+00 0. -1.
         25    2    1    2    0    0 -0.17583923074E+02 -0.11614900016E+03 -0.18297836319E+03  0.25081096036E+03  0.12500108740E+03 0.  0.
          2    1    1    2  501    0 -0.34446575820E+02 -0.14598092059E+02 -0.91956763728E+03  0.92032837097E+03  0.00000000000E+00 0. -1.
          1    1    1    2  502    0  0.52030498894E+02  0.13074709222E+03  0.33679459435E+03  0.36501037481E+03  0.00000000000E+00 0. -1.
         22    1    3    3    0    0 -0.18835091036E+02 -0.87617941213E+02 -0.28982548594E+02  0.94189449514E+02  0.00000000000E+00 0.  1.
         22    1    3    3    0    0  0.12511679619E+01 -0.28531058946E+02 -0.15399581460E+03  0.15662151084E+03  0.00000000000E+00 0.  1.
</event>
<event>
 7    1  0.6262315E-006  0.1336901E+03  0.7818608E-02  0.1314629E+00
          2   -1    0    0  502    0  0.00000000000E+00  0.00000000000E+00  0.10497197586E+04  0.10497197586E+04  0.00000000000E+00 0. -1.
          1   -1    0    0  501    0 -0.00000000000E+00 -0.00000000000E+00 -0.13403213909E+04  0.13403213909E+04  0.00000000000E+00 0. -1.
         25    2    1    2    0    0  0.80095260518E+02 -0.27190100653E+02  0.32227738874E+03  0.35585096521E+03  0.12495055749E+03 0.  0.
          2    1    1    2  501    0 -0.13328865474E+03  0.15629095719E+02 -0.13190825737E+04  0.13258917642E+04  0.00000000000E+00 0. -1.
          1    1    1    2  502    0  0.53193394226E+02  0.11561004933E+02  0.70620355272E+03  0.70829842009E+03  0.00000000000E+00 0. -1.
         22    1    3    3    0    0  0.52765274975E+00 -0.54239484001E+02  0.62181873152E+02  0.82515364574E+02  0.00000000000E+00 0.  1.
         22    1    3    3    0    0  0.79567607769E+02  0.27049383349E+02  0.26009551559E+03  0.27333560063E+03  0.00000000000E+00 0.  1.
</event>
<event>
 7    1  0.6262315E-006  0.1141325E+03  0.7818608E-02  0.1348584E+00
          2   -1    0    0  502    0  0.00000000000E+00  0.00000000000E+00  0.17239547616E+04  0.17239547616E+04  0.00000000000E+00 0. -1.
          1   -1    0    0  501    0 -0.00000000000E+00 -0.00000000000E+00 -0.19533677798E+04  0.19533677798E+04  0.00000000000E+00 0. -1.
         25    2    1    2    0    0  0.13765154535E+03 -0.77821030942E+02  0.15842777944E+03  0.25637527862E+03  0.12499944557E+03 0.  0.
          2    1    1    2  501    0 -0.91400406240E+02  0.67766117209E+02 -0.19023244554E+04  0.19057241707E+04  0.00000000000E+00 0. -1.
          1    1    1    2  502    0 -0.46251139107E+02  0.10054913733E+02  0.15144836578E+04  0.15152230921E+04  0.00000000000E+00 0. -1.
         22    1    3    3    0    0  0.15898922693E+03 -0.77351552441E+02  0.12431739006E+03  0.21613803556E+03  0.00000000000E+00 0. -1.
         22    1    3    3    0    0 -0.21337681580E+02 -0.46947850119E+00  0.34110389375E+02  0.40237243055E+02  0.00000000000E+00 0. -1.
</event>
<event>
 7    1  0.6262315E-006  0.3879846E+02  0.7818608E-02  0.1584217E+00
          2   -1    0    0  502    0  0.00000000000E+00  0.00000000000E+00  0.18132308900E+04  0.18132308900E+04  0.00000000000E+00 0. -1.
          1   -1    0    0  501    0 -0.00000000000E+00 -0.00000000000E+00 -0.10565082574E+03  0.10565082574E+03  0.00000000000E+00 0. -1.
         25    2    1    2    0    0 -0.25911139437E+01 -0.15493454797E+02  0.20353562654E+03  0.23937172049E+03  0.12500123314E+03 0.  0.
          2    1    1    2  501    0 -0.77988123388E+01  0.38495787824E+02 -0.83231259817E+02  0.92033633878E+02  0.00000000000E+00 0. -1.
          1    1    1    2  502    0  0.10389926282E+02 -0.23002333027E+02  0.15872756975E+04  0.15874763613E+04  0.00000000000E+00 0. -1.
         22    1    3    3    0    0 -0.48744500895E+02 -0.31823756161E+02  0.17087790263E+03  0.18052156501E+03  0.00000000000E+00 0. -1.
         22    1    3    3    0    0  0.46153386951E+02  0.16330301363E+02  0.32657723904E+02  0.58850155482E+02  0.00000000000E+00 0. -1.
</event>
<event>
 7    1  0.6262315E-006  0.1128920E+03  0.7818608E-02  0.1289942E+00
          2   -1    0    0  502    0  0.00000000000E+00  0.00000000000E+00  0.27260279467E+02  0.27260279467E+02  0.00000000000E+00 0. -1.
          1   -1    0    0  501    0 -0.00000000000E+00 -0.00000000000E+00 -0.17309287541E+04  0.17309287541E+04  0.00000000000E+00 0. -1.
         25    2    1    2    0    0 -0.13207254568E+03 -0.22663105404E+02 -0.40318203604E+03  0.44287369235E+03  0.12499831809E+03 0.  0.
          2    1    1    2  501    0  0.10036701677E+03 -0.51734628885E+02 -0.63852018954E+03  0.64842736087E+03  0.00000000000E+00 0. -1.
          1    1    1    2  502    0  0.31705528910E+02  0.74397734289E+02 -0.66196624903E+03  0.66688798031E+03  0.00000000000E+00 0. -1.
         22    1    3    3    0    0 -0.46805674117E+02 -0.71148379349E+02 -0.18691920812E+03  0.20540606948E+03  0.00000000000E+00 0.  1.
         22    1    3    3    0    0 -0.85266871566E+02  0.48485273944E+02 -0.21626282792E+03  0.23746762288E+03  0.00000000000E+00 0.  1.
</event>
<event>
 7    1  0.6262315E-006  0.5634975E+02  0.7818608E-02  0.1429932E+00
          2   -1    0    0  502    0  0.00000000000E+00  0.00000000000E+00  0.47072544661E+02  0.47072544661E+02  0.00000000000E+00 0. -1.
          1   -1    0    0  501    0 -0.00000000000E+00 -0.00000000000E+00 -0.10966028867E+04  0.10966028867E+04  0.00000000000E+00 0. -1.
         25    2    1    2    0    0 -0.48485461117E+01 -0.58777351704E+02 -0.50622263575E+03  0.52475520995E+03  0.12501355109E+03 0.  0.
          2    1    1    2  501    0 -0.42228613730E+02  0.26396168048E+02 -0.55776290454E+03  0.55998167040E+03  0.00000000000E+00 0. -1.
          1    1    1    2  502    0  0.47077159842E+02  0.32381183656E+02  0.14455198279E+02  0.58938550975E+02  0.00000000000E+00 0. -1.
         22    1    3    3    0    0 -0.64497269260E+02 -0.36091803079E+02 -0.24926250706E+03  0.25998906404E+03  0.00000000000E+00 0.  1.
         22    1    3    3    0    0  0.59648723149E+02 -0.22685548625E+02 -0.25696012868E+03  0.26476614591E+03  0.00000000000E+00 0.  1.
</event>
<event>
 7    1  0.6262315E-006  0.1120149E+03  0.7818608E-02  0.1309092E+00
          2   -1    0    0  502    0  0.00000000000E+00  0.00000000000E+00  0.21362164606E+04  0.21362164606E+04  0.00000000000E+00 0. -1.
          1   -1    0    0  501    0 -0.00000000000E+00 -0.00000000000E+00 -0.67209084573E+02  0.67209084573E+02  0.00000000000E+00 0. -1.
         25    2    1    2    0    0 -0.90988917164E+02 -0.71560719618E+02  0.13961711277E+03  0.22026704271E+03  0.12499884915E+03 0.  0.
          2    1    1    2  501    0 -0.21490774370E+02  0.64837741449E+02  0.21024481992E+02  0.71468978881E+02  0.00000000000E+00 0. -1.
          1    1    1    2  502    0  0.11247969153E+03  0.67229781691E+01  0.19083657812E+04  0.19116895235E+04  0.00000000000E+00 0. -1.
         22    1    3    3    0    0 -0.11728107538E+03 -0.54069393972E+02  0.77580509381E+02  0.15065551912E+03  0.00000000000E+00 0.  1.
         22    1    3    3    0    0  0.26292158217E+02 -0.17491325647E+02  0.62036603384E+02  0.69611523586E+02  0.00000000000E+00 0.  1.
</event>
<event>
 7    1  0.6262315E-006  0.1398352E+03  0.7818608E-02  0.1257999E+00
          2   -1    0    0  502    0  0.00000000000E+00  0.00000000000E+00  0.10333989476E+04  0.10333989476E+04  0.00000000000E+00 0. -1.
          1   -1    0    0  501    0 -0.00000000000E+00 -0.00000000000E+00 -0.12689910948E+04  0.12689910948E+04  0.00000000000E+00 0. -1.
         25    2    1    2    0    0  0.12909620231E+03  0.18101447455E+03 -0.83453211885E+02  0.26836748409E+03  0.12499839398E+03 0.  0.
          2    1    1    2  501    0 -0.66860914281E+02 -0.58358420886E+02 -0.10862350956E+04  0.10898544719E+04  0.00000000000E+00 0. -1.
          1    1    1    2  502    0 -0.62235288025E+02 -0.12265605366E+03  0.93409616030E+03  0.94416808634E+03  0.00000000000E+00 0. -1.
         22    1    3    3    0    0  0.10534214554E+03  0.12094859322E+03 -0.11413735075E+03  0.19685747297E+03  0.00000000000E+00 0.  1.
         22    1    3    3    0    0  0.23754056768E+02  0.60065881327E+02  0.30684138863E+02  0.71510011119E+02  0.00000000000E+00 0.  1.
</event>
<event>
 7    1  0.6262315E-006  0.7775339E+02  0.7818608E-02  0.1399347E+00
          2   -1    0    0  502    0  0.00000000000E+00  0.00000000000E+00  0.57907719013E+03  0.57907719013E+03  0.00000000000E+00 0. -1.
          1   -1    0    0  501    0 -0.00000000000E+00 -0.00000000000E+00 -0.58236950426E+03  0.58236950426E+03  0.00000000000E+00 0. -1.
         25    2    1    2    0    0 -0.38012980402E+02 -0.10176293109E+03  0.24517240295E+03  0.29588046128E+03  0.12504023103E+03 0.  0.
          2    1    1    2  501    0 -0.82548970071E+01  0.44996097415E+02 -0.55170993683E+03  0.55360332957E+03  0.00000000000E+00 0. -1.
          1    1    1    2  502    0  0.46267877409E+02  0.56766833678E+02  0.30324521975E+03  0.31196290354E+03  0.00000000000E+00 0. -1.
         22    1    3    3    0    0 -0.52915486722E+02 -0.12432903931E+03  0.22373412964E+03  0.26137084672E+03  0.00000000000E+00 0.  1.
         22    1    3    3    0    0  0.14902506320E+02  0.22566108216E+02  0.21438273316E+02  0.34509614565E+02  0.00000000000E+00 0.  1.
</event>
<event>
 7    1  0.6262315E-006  0.1583493E+03  0.7818608E-02  0.1291525E+00
          2   -1    0    0  502    0  0.00000000000E+00  0.00000000000E+00  0.92904221488E+02  0.92904221488E+02  0.00000000000E+00 0. -1.
          1   -1    0    0  501    0 -0.00000000000E+00 -0.00000000000E+00 -0.13911259210E+04  0.13911259210E+04  0.00000000000E+00 0. -1.
         25    2    1    2    0    0 -0.94796487128E+02 -0.63535799598E+02 -0.15815496457E+03  0.23164968308E+03  0.12500164419E+03 0.  0.
          2    1    1    2  501    0  0.11938581556E+03  0.11474687607E+03 -0.11743909560E+04  0.11860075615E+04  0.00000000000E+00 0. -1.
          1    1    1    2  502    0 -0.24589328432E+02 -0.51211076469E+02  0.34324221024E+02  0.66372897894E+02  0.00000000000E+00 0. -1.
         22    1    3    3    0    0 -0.56350865183E+02 -0.77943644552E+02 -0.35861456610E+02  0.10264831125E+03  0.00000000000E+00 0.  1.
         22    1    3    3    0    0 -0.38445621944E+02  0.14407844954E+02 -0.12229350796E+03  0.12900137183E+03  0.00000000000E+00 0.  1.
</event>
<event>
 7    1  0.6262315E-006  0.9572251E+02  0.7818608E-02  0.1303407E+00
          2   -1    0    0  502    0  0.00000000000E+00  0.00000000000E+00  0.35406215465E+03  0.35406215465E+03  0.00000000000E+00 0. -1.
          1   -1    0    0  501    0 -0.00000000000E+00 -0.00000000000E+00 -0.34797679382E+03  0.34797679382E+03  0.00000000000E+00 0. -1.
         25    2    1    2    0    0 -0.89421799861E+02 -0.29835990135E+02  0.17533076743E+03  0.23505844681E+03  0.12500060325E+03 0.  0.
          2    1    1    2  501    0  0.32219210543E+02  0.91607652887E+02 -0.29784395637E+03  0.31327473876E+03  0.00000000000E+00 0. -1.
          1    1    1    2  502    0  0.57202589318E+02 -0.61771662752E+02  0.12859854978E+03  0.15370576290E+03  0.00000000000E+00 0. -1.
         22    1    3    3    0    0 -0.53505264795E+02  0.40722901682E+02  0.39912090072E+02  0.78192985722E+02  0.00000000000E+00 0.  1.
         22    1    3    3    0    0 -0.35916535065E+02 -0.70558891818E+02  0.13541867736E+03  0.15686546109E+03  0.00000000000E+00 0.  1.
</event>
<event>
 7    1  0.6262315E-006  0.6342760E+02  0.7818608E-02  0.1423791E+00
          2   -1    0    0  502    0  0.00000000000E+00  0.00000000000E+00  0.13932158808E+04  0.13932158808E+04  0.00000000000E+00 0. -1.
          1   -1    0    0  501    0 -0.00000000000E+00 -0.00000000000E+00 -0.64115991849E+03  0.64115991849E+03  0.00000000000E+00 0. -1.
         25    2    1    2    0    0  0.64960121464E+02  0.58486198523E+02  0.31185527154E+02  0.15568363942E+03  0.12499762270E+03 0.  0.
          2    1    1    2  501    0 -0.46318129053E+02  0.19872052398E+01 -0.57721066401E+03  0.57906948522E+03  0.00000000000E+00 0. -1.
          1    1    1    2  502    0 -0.18641992411E+02 -0.60473403762E+02  0.12980810991E+04  0.12996226746E+04  0.00000000000E+00 0. -1.
         22    1    3    3    0    0  0.81824453575E+02  0.64208604380E+02 -0.16014950330E+02  0.10523528264E+03  0.00000000000E+00 0. -1.
         22    1    3    3    0    0 -0.16864332111E+02 -0.57224058572E+01  0.47200477484E+02  0.50448356772E+02  0.00000000000E+00 0. -1.
</event>
<event>
 7    1  0.6262315E-006  0.7335750E+02  0.7818608E-02  0.1389838E+00
          2   -1    0    0  502    0  0.00000000000E+00  0.00000000000E+00  0.10795684754E+04  0.10795684754E+04  0.00000000000E+00 0. -1.
          1   -1    0    0  501    0 -0.00000000000E+00 -0.00000000000E+00 -0.40392470136E+02  0.40392470136E+02  0.00000000000E+00 0. -1.
         25    2    1    2    0    0  0.87295073570E+01  0.29425608208E+02  0.54290577285E+03  0.55794634530E+03  0.12496149537E+03 0.  0.
          2    1    1    2  501    0  0.15530902112E+02 -0.75770988554E+02  0.16101119804E+02  0.79004415610E+02  0.00000000000E+00 0. -1.
          1    1    1    2  502    0 -0.24260409469E+02  0.46345380346E+02  0.48016911263E+03  0.48301018464E+03  0.00000000000E+00 0. -1.
         22    1    3    3    0    0 -0.85194014424E+01  0.33161661786E+02  0.32409250661E+02  0.47144835791E+02  0.00000000000E+00 0.  1.
         22    1    3    3    0    0  0.17248908799E+02 -0.37360535783E+01  0.51049652219E+03  0.51080150951E+03  0.00000000000E+00 0.  1.
</event>
<event>
 7    1  0.6262315E-006  0.9053019E+02  0.7818608E-02  0.1345553E+00
          2   -1    0    0  502    0  0.00000000000E+00  0.00000000000E+00  0.30828127493E+02  0.30828127493E+02  0.00000000000E+00 0. -1.
          1   -1    0    0  501    0 -0.00000000000E+00 -0.00000000000E+00 -0.15353205011E+04  0.15353205011E+04  0.00000000000E+00 0. -1.
         25    2    1    2    0    0 -0.12258023240E+03 -0.53738668329E+02 -0.52372741446E+03  0.55481637600E+03  0.12496819024E+03 0.  0.
          2    1    1    2  501    0  0.40912501807E+02  0.45570803438E+02 -0.87650970986E+03  0.87864657423E+03  0.00000000000E+00 0. -1.
          1    1    1    2  502    0  0.81667730592E+02  0.81678648915E+01 -0.10425524926E+03  0.13268567834E+03  0.00000000000E+00 0. -1.
         22    1    3    3    0    0 -0.10361127911E+03 -0.49691656997E+02 -0.20117003205E+03  0.23167636851E+03  0.00000000000E+00 0. -1.
         22    1    3    3    0    0 -0.18968953289E+02 -0.40470113323E+01 -0.32255738242E+03  0.32314000749E+03  0.00000000000E+00 0. -1.
</event>
<event>
 7    1  0.6262315E-006  0.1373366E+03  0.7818608E-02  0.1342054E+00
          2   -1    0    0  502    0  0.00000000000E+00  0.00000000000E+00  0.22089094234E+04  0.22089094234E+04  0.00000000000E+00 0. -1.
          1   -1    0    0  501    0 -0.00000000000E+00 -0.00000000000E+00 -0.80276377375E+02  0.80276377375E+02  0.00000000000E+00 0. -1.
         25    2    1    2    0    0  0.13808417663E+02  0.10346588021E+03  0.12066021235E+03  0.20268127922E+03  0.12499981335E+03 0.  0.
          2    1    1    2  501    0 -0.21394231187E+02  0.35682254300E+02 -0.25147375129E+02  0.48614060475E+02  0.00000000000E+00 0. -1.
          1    1    1    2  502    0  0.75858135244E+01 -0.13914813451E+03  0.20331202088E+04  0.20378904611E+04  0.00000000000E+00 0. -1.
         22    1    3    3    0    0  0.31741172296E+02  0.12810994801E+03  0.10332808488E+03  0.16761967046E+03  0.00000000000E+00 0. -1.
         22    1    3    3    0    0 -0.17932754633E+02 -0.24644067804E+02  0.17332127473E+02  0.35061608768E+02  0.00000000000E+00 0. -1.
</event>
<event>
 7    1  0.6262315E-006  0.6119716E+02  0.7818608E-02  0.1408155E+00
          2   -1    0    0  502    0  0.00000000000E+00  0.00000000000E+00  0.25854534649E+04  0.25854534649E+04  0.00000000000E+00 0. -1.
          1   -1    0    0  501    0 -0.00000000000E+00 -0.00000000000E+00 -0.26482994589E+03  0.26482994589E+03  0.00000000000E+00 0. -1.
         25    2    1    2    0    0 -0.21874439127E+02 -0.61563716308E+02 -0.57394575585E+02  0.15227444881E+03  0.12499915280E+03 0.  0.
          2    1    1    2  501    0 -0.35755833100E+02  0.40770738024E+02 -0.15501933520E+03  0.16423071261E+03  0.00000000000E+00 0. -1.
          1    1    1    2  502    0  0.57630272226E+02  0.20792978284E+02  0.25330374298E+04  0.25337782494E+04  0.00000000000E+00 0. -1.
         22    1    3    3    0    0 -0.32417017914E+02 -0.96057322505E+02 -0.26507529906E+02  0.10478798308E+03  0.00000000000E+00 0. -1.
         22    1    3    3    0    0  0.10542578787E+02  0.34493606197E+02 -0.30887045679E+02  0.47486465722E+02  0.00000000000E+00 0. -1.
</event>
<event>
 7    1  0.6262315E-006  0.3119541E+02  0.7818608E-02  0.1649184E+00
          2   -1    0    0  502    0  0.00000000000E+00  0.00000000000E+00  0.10403777038E+03  0.10403777038E+03  0.00000000000E+00 0. -1.
          1   -1    0    0  501    0 -0.00000000000E+00 -0.00000000000E+00 -0.13525674249E+03  0.13525674249E+03  0.00000000000E+00 0. -1.
         25    2    1    2    0    0  0.14016931997E+02 -0.20022981239E+01  0.43888423360E+02  0.13323711406E+03  0.12500180510E+03 0.  0.
          2    1    1    2  501    0 -0.24058324727E+02  0.20909901734E+02 -0.78181073119E+02  0.84429302811E+02  0.00000000000E+00 0. -1.
          1    1    1    2  502    0  0.10041392730E+02 -0.18907603610E+02  0.30736776482E+01  0.21628095998E+02  0.00000000000E+00 0. -1.
         22    1    3    3    0    0  0.58460932837E+02  0.27327959870E+02  0.47096190553E+02  0.79890858197E+02  0.00000000000E+00 0. -1.
         22    1    3    3    0    0 -0.44444000840E+02 -0.29330257994E+02 -0.32077671933E+01  0.53346255867E+02  0.00000000000E+00 0. -1.
</event>
<event>
 7    1  0.6262315E-006  0.6367448E+02  0.7818608E-02  0.1494385E+00
          2   -1    0    0  502    0  0.00000000000E+00  0.00000000000E+00  0.10785948467E+03  0.10785948467E+03  0.00000000000E+00 0. -1.
          1   -1    0    0  501    0 -0.00000000000E+00 -0.00000000000E+00 -0.12898065996E+04  0.12898065996E+04  0.00000000000E+00 0. -1.
         25    2    1    2    0    0  0.46000662732E+02  0.62710257414E+02 -0.26056404870E+03  0.29927779865E+03  0.12499975974E+03 0.  0.
          2    1    1    2  501    0 -0.27540529521E+02 -0.21906391836E+01 -0.99836140049E+03  0.99874359355E+03  0.00000000000E+00 0. -1.
          1    1    1    2  502    0 -0.18460133211E+02 -0.60519618230E+02  0.76978334274E+02  0.99644692064E+02  0.00000000000E+00 0. -1.
         22    1    3    3    0    0  0.62853053001E+02  0.58350563522E+02 -0.78130969360E+02  0.11601613210E+03  0.00000000000E+00 0.  1.
         22    1    3    3    0    0 -0.16852390269E+02  0.43596938913E+01 -0.18243307934E+03  0.18326166655E+03  0.00000000000E+00 0.  1.
</event>
<event>
 7    1  0.6262315E-006  0.9260692E+02  0.7818608E-02  0.1345784E+00
          2   -1    0    0  502    0  0.00000000000E+00  0.00000000000E+00  0.21076097985E+04  0.21076097985E+04  0.00000000000E+00 0. -1.
          1   -1    0    0  501    0 -0.00000000000E+00 -0.00000000000E+00 -0.26933025589E+02  0.26933025589E+02  0.00000000000E+00 0. -1.
         25    2    1    2    0    0  0.13001901447E+03 -0.24374405530E+02  0.14914227089E+04  0.15024863400E+04  0.12499779694E+03 0.  0.
          2    1    1    2  501    0 -0.54875022155E+02  0.23638325486E+02  0.28338602674E+02  0.66129531147E+02  0.00000000000E+00 0. -1.
          1    1    1    2  502    0 -0.75143992315E+02  0.73608004481E+00  0.56091546130E+03  0.56592695299E+03  0.00000000000E+00 0. -1.
         22    1    3    3    0    0 -0.69640963037E+01 -0.14675091363E+02  0.26094243983E+02  0.30737054395E+02  0.00000000000E+00 0. -1.
         22    1    3    3    0    0  0.13698311077E+03 -0.96993141677E+01  0.14653284650E+04  0.14717492856E+04  0.00000000000E+00 0. -1.
</event>
<event>
 7    1  0.6262315E-006  0.7281155E+02  0.7818608E-02  0.1372297E+00
          2   -1    0    0  502    0  0.00000000000E+00  0.00000000000E+00  0.19037239265E+04  0.19037239265E+04  0.00000000000E+00 0. -1.
          1   -1    0    0  501    0 -0.00000000000E+00 -0.00000000000E+00 -0.24386925221E+02  0.24386925221E+02  0.00000000000E+00 0. -1.
         25    2    1    2    0    0 -0.33124419364E+02 -0.35192981397E+02  0.35526114212E+03  0.37970495374E+03  0.12501839743E+03 0.  0.
          2    1    1    2  501    0 -0.32708330491E+02  0.66298776617E+02  0.11046179485E+03  0.13291790995E+03  0.00000000000E+00 0. -1.
          1    1    1    2  502    0  0.65832749855E+02 -0.31105795220E+02  0.14136140643E+04  0.14154879881E+04  0.00000000000E+00 0. -1.
         22    1    3    3    0    0 -0.50140034068E+02 -0.75137821536E+02  0.25127838973E+03  0.26702161783E+03  0.00000000000E+00 0. -1.
         22    1    3    3    0    0  0.17015614704E+02  0.39944840138E+02  0.10398275239E+03  0.11268333591E+03  0.00000000000E+00 0. -1.
</event>
<event>
 7    1  0.6262315E-006  0.1391798E+03  0.7818608E-02  0.1396510E+00
          2   -1    0    0  502    0  0.00000000000E+00  0.00000000000E+00  0.98483802624E+03  0.98483802624E+03  0.00000000000E+00 0. -1.
          1   -1    0    0  501    0 -0.00000000000E+00 -0.00000000000E+00 -0.15852847650E+04  0.15852847650E+04  0.00000000000E+00 0. -1.
         25    2    1    2    0    0 -0.13880972747E+03 -0.27245105863E+02  0.41224046158E+03  0.45340538060E+03  0.12499521893E+03 0.  0.
          2    1    1    2  501    0  0.13917634477E+03  0.11085951538E+01 -0.15612954665E+04  0.15674867839E+04  0.00000000000E+00 0. -1.
          1    1    1    2  502    0 -0.36661730179E+00  0.26136510709E+02  0.54860826620E+03  0.54923062673E+03  0.00000000000E+00 0. -1.
         22    1    3    3    0    0 -0.46134993872E+02  0.43023389732E+02  0.83169834593E+02  0.10438712138E+03  0.00000000000E+00 0. -1.
         22    1    3    3    0    0 -0.92674733601E+02 -0.70268495594E+02  0.32907062699E+03  0.34901825922E+03  0.00000000000E+00 0. -1.
</event>
<event>
 7    1  0.6262315E-006  0.2269501E+03  0.7818608E-02  0.1212335E+00
          2   -1    0    0  502    0  0.00000000000E+00  0.00000000000E+00  0.24193158748E+04  0.24193158748E+04  0.00000000000E+00 0. -1.
          1   -1    0    0  501    0 -0.00000000000E+00 -0.00000000000E+00 -0.67961401264E+03  0.67961401264E+03  0.00000000000E+00 0. -1.
         25    2    1    2    0    0 -0.19875622900E+03  0.15817859219E+03  0.49881990837E+03  0.57355967300E+03  0.12499956767E+03 0.  0.
          2    1    1    2  501    0  0.21461572903E+03 -0.72351879112E+02 -0.62122314757E+03  0.66122076845E+03  0.00000000000E+00 0. -1.
          1    1    1    2  502    0 -0.15859500033E+02 -0.85826713080E+02  0.18621051013E+04  0.18641494459E+04  0.00000000000E+00 0. -1.
         22    1    3    3    0    0 -0.13926209703E+03  0.84496557453E+02  0.41954112080E+03  0.45005372116E+03  0.00000000000E+00 0.  1.
         22    1    3    3    0    0 -0.59494131966E+02  0.73682034739E+02  0.79278787572E+02  0.12350595184E+03  0.00000000000E+00 0.  1.
</event>
<event>
 7    1  0.6262315E-006  0.4789767E+02  0.7818608E-02  0.1485088E+00
          2   -1    0    0  502    0  0.00000000000E+00  0.00000000000E+00  0.19569557855E+04  0.19569557855E+04  0.00000000000E+00 0. -1.
          1   -1    0    0  501    0 -0.00000000000E+00 -0.00000000000E+00 -0.69497495769E+03  0.69497495769E+03  0.00000000000E+00 0. -1.
         25    2    1    2    0    0  0.12711077303E+02 -0.72730575452E+02  0.22187008447E+03  0.26514857020E+03  0.12500448713E+03 0.  0.
          2    1    1    2  501    0 -0.29765426180E+02  0.37450331618E+02 -0.67226158661E+03  0.67396153359E+03  0.00000000000E+00 0. -1.
          1    1    1    2  502    0  0.17054348877E+02  0.35280243833E+02  0.17123723299E+04  0.17128206394E+04  0.00000000000E+00 0. -1.
         22    1    3    3    0    0  0.67931577235E+02 -0.50600177064E+02  0.11489050518E+03  0.14274069247E+03  0.00000000000E+00 0.  1.
         22    1    3    3    0    0 -0.55220499932E+02 -0.22130398388E+02  0.10697957929E+03  0.12240787773E+03  0.00000000000E+00 0.  1.
</event>
<event>
 7    1  0.6262315E-006  0.1699439E+03  0.7818608E-02  0.1226639E+00
          2   -1    0    0  502    0  0.00000000000E+00  0.00000000000E+00  0.19186192413E+04  0.19186192413E+04  0.00000000000E+00 0. -1.
          1   -1    0    0  501    0 -0.00000000000E+00 -0.00000000000E+00 -0.17468283729E+04  0.17468283729E+04  0.00000000000E+00 0. -1.
         25    2    1    2    0    0 -0.25103557095E+03 -0.81888677074E+02  0.21326725203E+03  0.36171053266E+03  0.12500790109E+03 0.  0.
          2    1    1    2  501    0  0.91452844067E+02  0.41165927986E+02 -0.16669383665E+04  0.16699526262E+04  0.00000000000E+00 0. -1.
          1    1    1    2  502    0  0.15958272689E+03  0.40722749088E+02  0.16254619828E+04  0.16337844554E+04  0.00000000000E+00 0. -1.
         22    1    3    3    0    0 -0.93799454397E+01  0.16738941250E+02  0.50715795605E+02  0.54224233092E+02  0.00000000000E+00 0. -1.
         22    1    3    3    0    0 -0.24165562551E+03 -0.98627618324E+02  0.16255145642E+03  0.30748629957E+03  0.00000000000E+00 0. -1.
</event>
<event>
 7    1  0.6262315E-006  0.1147133E+03  0.7818608E-02  0.1266525E+00
          2   -1    0    0  502    0  0.00000000000E+00  0.00000000000E+00  0.20628247850E+04  0.20628247850E+04  0.00000000000E+00 0. -1.
          1   -1    0    0  501    0 -0.00000000000E+00 -0.00000000000E+00 -0.10804637228E+03  0.10804637228E+03  0.00000000000E+00 0. -1.
         25    2    1    2    0    0  0.49903817752E+02  0.11304595761E+03  0.13911782548E+03  0.22416106426E+03  0.12499853522E+03 0.  0.
          2    1    1    2  501    0  0.49600863528E+02 -0.11145205534E+03 -0.61857474140E+01  0.12214773749E+03  0.00000000000E+00 0. -1.
          1    1    1    2  502    0 -0.99504681280E+02 -0.15939022672E+01  0.18218463346E+04  0.18245623555E+04  0.00000000000E+00 0. -1.
         22    1    3    3    0    0  0.74046566903E+02  0.64148595932E+02  0.13847209376E+03  0.16962445926E+03  0.00000000000E+00 0. -1.
         22    1    3    3    0    0 -0.24142749151E+02  0.48897361674E+02  0.64573172071E+00  0.54536604998E+02  0.00000000000E+00 0. -1.
</event>
<event>
 7    1  0.6262315E-006  0.7662767E+02  0.7818608E-02  0.1383413E+00
          2   -1    0    0  502    0  0.00000000000E+00  0.00000000000E+00  0.20031679426E+04  0.20031679426E+04  0.00000000000E+00 0. -1.
          1   -1    0    0  501    0 -0.00000000000E+00 -0.00000000000E+00 -0.62195017252E+02  0.62195017252E+02  0.00000000000E+00 0. -1.
         25    2    1    2    0    0 -0.26824222003E+02 -0.66607081534E+02  0.17928632485E+03  0.23005378733E+03  0.12500046636E+03 0.  0.
          2    1    1    2  501    0 -0.24915329718E+02  0.76860632073E+02  0.84046910044E+01  0.81234039962E+02  0.00000000000E+00 0. -1.
          1    1    1    2  502    0  0.51739551721E+02 -0.10253550540E+02  0.17532819095E+04  0.17540751326E+04  0.00000000000E+00 0. -1.
         22    1    3    3    0    0 -0.10141569160E+02 -0.10273420019E+03  0.11587554222E+03  0.15519120013E+03  0.00000000000E+00 0.  1.
         22    1    3    3    0    0 -0.16682652843E+02  0.36127118655E+02  0.63410782634E+02  0.74862587201E+02  0.00000000000E+00 0.  1.
</event>
<event>
 7    1  0.6262315E-006  0.5342685E+02  0.7818608E-02  0.1458116E+00
          2   -1    0    0  502    0  0.00000000000E+00  0.00000000000E+00  0.21888414970E+04  0.21888414970E+04  0.00000000000E+00 0. -1.
          1   -1    0    0  501    0 -0.00000000000E+00 -0.00000000000E+00 -0.17254639903E+03  0.17254639903E+03  0.00000000000E+00 0. -1.
         25    2    1    2    0    0  0.15244447004E+01 -0.15250660972E+02 -0.63300593385E+02  0.14095184254E+03  0.12500220078E+03 0.  0.
          2    1    1    2  501    0 -0.30349340942E+02 -0.29894247746E+02 -0.63612247913E+02  0.76558909530E+02  0.00000000000E+00 0. -1.
          1    1    1    2  502    0  0.28824896242E+02  0.45144908718E+02  0.21432079393E+04  0.21438771440E+04  0.00000000000E+00 0. -1.
         22    1    3    3    0    0 -0.27235169871E+02 -0.33441563629E+02  0.22503013259E+02  0.48646461964E+02  0.00000000000E+00 0.  1.
         22    1    3    3    0    0  0.28759614572E+02  0.18190902658E+02 -0.85803606645E+02  0.92305380575E+02  0.00000000000E+00 0.  1.
</event>
<event>
 7    1  0.6262315E-006  0.1068765E+03  0.7818608E-02  0.1429665E+00
          2   -1    0    0  502    0  0.00000000000E+00  0.00000000000E+00  0.12355199800E+04  0.12355199800E+04  0.00000000000E+00 0. -1.
          1   -1    0    0  501    0 -0.00000000000E+00 -0.00000000000E+00 -0.44417893195E+03  0.44417893195E+03  0.00000000000E+00 0. -1.
         25    2    1    2    0    0  0.20700229259E+01  0.12799759062E+03  0.82288730603E+03  0.84211411335E+03  0.12499997306E+03 0.  0.
          2    1    1    2  501    0 -0.15784226445E+02 -0.10554492164E+03 -0.42757057988E+03  0.44068750047E+03  0.00000000000E+00 0. -1.
          1    1    1    2  502    0  0.13714203519E+02 -0.22452668987E+02  0.39602432191E+03  0.39689729813E+03  0.00000000000E+00 0. -1.
         22    1    3    3    0    0 -0.81888520217E+01  0.93621150902E+02  0.78238260862E+03  0.78800667730E+03  0.00000000000E+00 0. -1.
         22    1    3    3    0    0  0.10258874948E+02  0.34376439722E+02  0.40504697411E+02  0.54107436047E+02  0.00000000000E+00 0. -1.
</event>
<event>
 7    1  0.6262315E-006  0.6570847E+02  0.7818608E-02  0.1376274E+00
          2   -1    0    0  502    0  0.00000000000E+00  0.00000000000E+00  0.12717752908E+04  0.12717752908E+04  0.00000000000E+00 0. -1.
          1   -1    0    0  501    0 -0.00000000000E+00 -0.00000000000E+00 -0.23191598871E+03  0.23191598871E+03  0.00000000000E+00 0. -1.
         25    2    1    2    0    0  0.18106682588E+02 -0.39587534451E+02  0.11353914326E+03  0.17438831098E+03  0.12500048446E+03 0.  0.
          2    1    1    2  501    0 -0.65248037337E+02 -0.77650955181E+01 -0.19511337726E+03  0.20588062820E+03  0.00000000000E+00 0. -1.
          1    1    1    2  502    0  0.47141354749E+02  0.47352629969E+02  0.11214335361E+04  0.11234223404E+04  0.00000000000E+00 0. -1.
         22    1    3    3    0    0  0.65022965259E+02 -0.45809366097E+02  0.45890862122E+02  0.91828401160E+02  0.00000000000E+00 0.  1.
         22    1    3    3    0    0 -0.46916282670E+02  0.62218316462E+01  0.67648281143E+02  0.82559909824E+02  0.00000000000E+00 0.  1.
</event>
<event>
 7    1  0.6262315E-006  0.4355575E+02  0.7818608E-02  0.1499551E+00
          2   -1    0    0  502    0  0.00000000000E+00  0.00000000000E+00  0.48811522615E+03  0.48811522615E+03  0.00000000000E+00 0. -1.
          1   -1    0    0  501    0 -0.00000000000E+00 -0.00000000000E+00 -0.13607812737E+04  0.13607812737E+04  0.00000000000E+00 0. -1.
         25    2    1    2    0    0 -0.30308437574E+01 -0.45332219988E+02 -0.21073297124E+03  0.24917549825E+03  0.12496338496E+03 0.  0.
          2    1    1    2  501    0 -0.32554935455E+02  0.29436783801E+02 -0.11295902339E+04  0.11304425879E+04  0.00000000000E+00 0. -1.
          1    1    1    2  502    0  0.35585779212E+02  0.15895436187E+02  0.46765715755E+03  0.46927841372E+03  0.00000000000E+00 0. -1.
         22    1    3    3    0    0 -0.59731496451E+02 -0.42956140788E+01 -0.70926449978E+02  0.92827071886E+02  0.00000000000E+00 0.  1.
         22    1    3    3    0    0  0.56700652693E+02 -0.41036605910E+02 -0.13980652126E+03  0.15634842637E+03  0.00000000000E+00 0.  1.
</event>
<event>
 7    1  0.6262315E-006  0.1410801E+03  0.7818608E-02  0.1263176E+00
          2   -1    0    0  502    0  0.00000000000E+00  0.00000000000E+00  0.95543807165E+03  0.95543807165E+03  0.00000000000E+00 0. -1.
          1   -1    0    0  501    0 -0.00000000000E+00 -0.00000000000E+00 -0.23925021766E+03  0.23925021766E+03  0.00000000000E+00 0. -1.
         25    2    1    2    0    0  0.74548704441E+02  0.11722914096E+03  0.46883841322E+03  0.50471229320E+03  0.12499944148E+03 0.  0.
          2    1    1    2  501    0 -0.13100989718E+03 -0.55570097151E+02 -0.19410023020E+03  0.24067930576E+03  0.00000000000E+00 0. -1.
          1    1    1    2  502    0  0.56461192743E+02 -0.61659043813E+02  0.44144967096E+03  0.44929669035E+03  0.00000000000E+00 0. -1.
         22    1    3    3    0    0  0.37159797223E+02  0.50947913929E+02  0.54209603697E+02  0.83157811397E+02  0.00000000000E+00 0. -1.
         22    1    3    3    0    0  0.37388907217E+02  0.66281227035E+02  0.41462880953E+03  0.42155448180E+03  0.00000000000E+00 0. -1.
</event>
<event>
 7    1  0.6262315E-006  0.1311985E+03  0.7818608E-02  0.1367120E+00
          2   -1    0    0  502    0  0.00000000000E+00  0.00000000000E+00  0.90991048042E+03  0.90991048042E+03  0.00000000000E+00 0. -1.
          1   -1    0    0  501    0 -0.00000000000E+00 -0.00000000000E+00 -0.23440478436E+03  0.23440478436E+03  0.00000000000E+00 0. -1.
         25    2    1    2    0    0  0.82622148845E+02  0.12167210052E+03  0.89501590561E+02  0.21275851306E+03  0.12500052257E+03 0.  0.
          2    1    1    2  501    0 -0.94147192360E+02 -0.88393558319E+02 -0.14816404628E+03  0.19654439598E+03  0.00000000000E+00 0. -1.
          1    1    1    2  502    0  0.11525043516E+02 -0.33278542197E+02  0.73416815178E+03  0.73501235573E+03  0.00000000000E+00 0. -1.
         22    1    3    3    0    0 -0.39039310418E+01 -0.21406657634E+02 -0.25144511857E+01  0.21904523127E+02  0.00000000000E+00 0. -1.
         22    1    3    3    0    0  0.86526079887E+02  0.14307875815E+03  0.92016041747E+02  0.19085398993E+03  0.00000000000E+00 0. -1.
</event>
<event>
 7    1  0.6262315E-006  0.5213248E+02  0.7818608E-02  0.1438744E+00
          2   -1    0    0  502    0  0.00000000000E+00  0.00000000000E+00  0.64946214166E+03  0.64946214166E+03  0.00000000000E+00 0. -1.
          1   -1    0    0  501    0 -0.00000000000E+00 -0.00000000000E+00 -0.14096124305E+03  0.14096124305E+03  0.00000000000E+00 0. -1.
         25    2    1    2    0    0  0.94583119017E+02  0.22257357868E+02  0.48320895896E+03  0.50848529186E+03  0.12500015055E+03 0.  0.
          2    1    1    2  501    0 -0.51543476968E+02  0.39118816635E+01 -0.11865858261E+03  0.12942910052E+03  0.00000000000E+00 0. -1.
          1    1    1    2  502    0 -0.43039642049E+02 -0.26169239531E+02  0.14395052226E+03  0.15250899233E+03  0.00000000000E+00 0. -1.
         22    1    3    3    0    0  0.80313032628E+02  0.68067827081E+01  0.11933922273E+03  0.14400821360E+03  0.00000000000E+00 0.  1.
         22    1    3    3    0    0  0.14270086389E+02  0.15450575160E+02  0.36386973622E+03  0.36447707826E+03  0.00000000000E+00 0.  1.
</event>
<event>
 7    1  0.6262315E-006  0.9170100E+02  0.7818608E-02  0.1480972E+00
          2   -1    0    0  502    0  0.00000000000E+00  0.00000000000E+00  0.43923087043E+03  0.43923087043E+03  0.00000000000E+00 0. -1.
          1   -1    0    0  501    0 -0.00000000000E+00 -0.00000000000E+00 -0.58365206068E+03  0.58365206068E+03  0.00000000000E+00 0. -1.
         25    2    1    2    0    0  0.31321060541E+02  0.80371415044E+02  0.49598819597E+02  0.15976235722E+03  0.12499357860E+03 0.  0.
          2    1    1    2  501    0 -0.17842292790E+02  0.11205304457E+02 -0.52195108506E+03  0.52237614939E+03  0.00000000000E+00 0. -1.
          1    1    1    2  502    0 -0.13478767752E+02 -0.91576719501E+02  0.32793107521E+03  0.34074442449E+03  0.00000000000E+00 0. -1.
         22    1    3    3    0    0 -0.40999237874E+02  0.15661297867E+02 -0.11136021812E+02  0.45279407449E+02  0.00000000000E+00 0.  1.
         22    1    3    3    0    0  0.72320298416E+02  0.64710117177E+02  0.60734841408E+02  0.11448294977E+03  0.00000000000E+00 0.  1.
</event>
<event>
 7    1  0.6262315E-006  0.4089905E+02  0.7818608E-02  0.1538666E+00
          2   -1    0    0  502    0  0.00000000000E+00  0.00000000000E+00  0.11020766601E+04  0.11020766601E+04  0.00000000000E+00 0. -1.
          1   -1    0    0  501    0 -0.00000000000E+00 -0.00000000000E+00 -0.23016612507E+02  0.23016612507E+02  0.00000000000E+00 0. -1.
         25    2    1    2    0    0 -0.12297949827E+02 -0.61445418891E+02  0.91247925397E+03  0.92312970652E+03  0.12499314804E+03 0.  0.
          2    1    1    2  501    0 -0.10509008491E+02  0.39080858876E+02  0.93690058057E+01  0.41539512031E+02  0.00000000000E+00 0. -1.
          1    1    1    2  502    0  0.22806958317E+02  0.22364560015E+02  0.15721178785E+03  0.16042405409E+03  0.00000000000E+00 0. -1.
         22    1    3    3    0    0 -0.29686538705E+02  0.70482485796E+01  0.56276823912E+02  0.64016008138E+02  0.00000000000E+00 0. -1.
         22    1    3    3    0    0  0.17388588878E+02 -0.68493667471E+02  0.85620243006E+03  0.85911369838E+03  0.00000000000E+00 0. -1.
</event>
<event>
 7    1  0.6262315E-006  0.7540219E+02  0.7818608E-02  0.1429582E+00
          2   -1    0    0  502    0  0.00000000000E+00  0.00000000000E+00  0.33176372691E+03  0.33176372691E+03  0.00000000000E+00 0. -1.
          1   -1    0    0  501    0 -0.00000000000E+00 -0.00000000000E+00 -0.20210211574E+04  0.20210211574E+04  0.00000000000E+00 0. -1.
         25    2    1    2    0    0 -0.44601332134E+02  0.63718786832E-01 -0.10246209553E+03  0.16767096770E+03  0.12500315796E+03 0.  0.
          2    1    1    2  501    0  0.71802624386E+02  0.25481070054E+02 -0.18840180226E+04  0.18855579576E+04  0.00000000000E+00 0. -1.
          1    1    1    2  502    0 -0.27201292252E+02 -0.25544788841E+02  0.29722268766E+03  0.29955595904E+03  0.00000000000E+00 0. -1.
         22    1    3    3    0    0  0.61287886568E+01  0.15785449805E+02 -0.11237472796E+03  0.11364339822E+03  0.00000000000E+00 0. -1.
         22    1    3    3    0    0 -0.50730120791E+02 -0.15721731018E+02  0.99126324279E+01  0.54027569474E+02  0.00000000000E+00 0. -1.
</event>
<event>
 7    1  0.6262315E-006  0.3764296E+02  0.7818608E-02  0.1534169E+00
          2   -1    0    0  502    0  0.00000000000E+00  0.00000000000E+00  0.58189900045E+02  0.58189900045E+02  0.00000000000E+00 0. -1.
          1   -1    0    0  501    0 -0.00000000000E+00 -0.00000000000E+00 -0.21954250349E+03  0.21954250349E+03  0.00000000000E+00 0. -1.
         25    2    1    2    0    0 -0.38518126667E+01  0.79303764388E+01 -0.75144456495E+02  0.14611491703E+03  0.12500060922E+03 0.  0.
          2    1    1    2  501    0 -0.11407132967E+02  0.33872401381E+02 -0.78769895097E+02  0.86499471857E+02  0.00000000000E+00 0. -1.
          1    1    1    2  502    0  0.15258945633E+02 -0.41802777820E+02 -0.74382518570E+01  0.45118014650E+02  0.00000000000E+00 0. -1.
         22    1    3    3    0    0  0.35706123454E+02 -0.45679700173E+02 -0.27261756052E+02  0.64068444675E+02  0.00000000000E+00 0.  1.
         22    1    3    3    0    0 -0.39557936121E+02  0.53610076611E+02 -0.47882700443E+02  0.82046472357E+02  0.00000000000E+00 0.  1.
</event>
<event>
 7    1  0.6262315E-006  0.1842631E+03  0.7818608E-02  0.1178436E+00
          2   -1    0    0  502    0  0.00000000000E+00  0.00000000000E+00  0.15688488045E+04  0.15688488045E+04  0.00000000000E+00 0. -1.
          1   -1    0    0  501    0 -0.00000000000E+00 -0.00000000000E+00 -0.12405431595E+03  0.12405431595E+03  0.00000000000E+00 0. -1.
         25    2    1    2    0    0  0.10761581871E+03  0.19196236458E+03  0.25816946656E+03  0.36153271273E+03  0.12499486014E+03 0.  0.
          2    1    1    2  501    0  0.71450162671E+02 -0.13845558316E+03  0.28657238423E+02  0.15841815416E+03  0.00000000000E+00 0. -1.
          1    1    1    2  502    0 -0.17906598138E+03 -0.53506781422E+02  0.11579677836E+04  0.11729522536E+04  0.00000000000E+00 0. -1.
         22    1    3    3    0    0  0.50523728762E+02  0.17069177892E+03  0.13262539109E+03  0.22198609173E+03  0.00000000000E+00 0.  1.
         22    1    3    3    0    0  0.57092089945E+02  0.21270585661E+02  0.12554407547E+03  0.13954662100E+03  0.00000000000E+00 0.  1.
</event>
<event>
 7    1  0.6262315E-006  0.1890751E+03  0.7818608E-02  0.1252970E+00
          2   -1    0    0  502    0  0.00000000000E+00  0.00000000000E+00  0.17435499358E+04  0.17435499358E+04  0.00000000000E+00 0. -1.
          1   -1    0    0  501    0 -0.00000000000E+00 -0.00000000000E+00 -0.11461749217E+04  0.11461749217E+04  0.00000000000E+00 0. -1.
         25    2    1    2    0    0 -0.14657558424E+03 -0.82990742674E+02  0.28944055512E+03  0.35745203359E+03  0.12499702440E+03 0.  0.
          2    1    1    2  501    0  0.12039786403E+03  0.14681669802E+03 -0.11032167203E+04  0.11194364299E+04  0.00000000000E+00 0. -1.
          1    1    1    2  502    0  0.26177720208E+02 -0.63825955347E+02  0.14111511793E+04  0.14128363941E+04  0.00000000000E+00 0. -1.
         22    1    3    3    0    0 -0.10157599116E+03 -0.34047247911E+02  0.26632117721E+03  0.28706073661E+03  0.00000000000E+00 0.  1.
         22    1    3    3    0    0 -0.44999593072E+02 -0.48943494763E+02  0.23119377905E+02  0.70391296983E+02  0.00000000000E+00 0.  1.
</event>
<event>
 7    1  0.6262315E-006  0.1669469E+03  0.7818608E-02  0.1342754E+00
          2   -1    0    0  502    0  0.00000000000E+00  0.00000000000E+00  0.17887565476E+03  0.17887565476E+03  0.00000000000E+00 0. -1.
          1   -1    0    0  501    0 -0.00000000000E+00 -0.00000000000E+00 -0.10303533805E+04  0.10303533805E+04  0.00000000000E+00 0. -1.
         25    2    1    2    0    0  0.43459792714E+01 -0.17201347533E+03 -0.41401547177E+02  0.21667400770E+03  0.12500405703E+03 0.  0.
          2    1    1    2  501    0  0.32217854729E+02  0.10923264247E+02 -0.82590989822E+03  0.82661022728E+03  0.00000000000E+00 0. -1.
          1    1    1    2  502    0 -0.36563834001E+02  0.16109021108E+03  0.15833719651E+02  0.16594480029E+03  0.00000000000E+00 0. -1.
         22    1    3    3    0    0  0.55283055733E+02 -0.36428248340E+02 -0.25575843420E+02  0.70974342512E+02  0.00000000000E+00 0. -1.
         22    1    3    3    0    0 -0.50937076462E+02 -0.13558522699E+03 -0.15825703757E+02  0.14569966519E+03  0.00000000000E+00 0. -1.
</event>
<event>
 7    1  0.6262315E-006  0.9077183E+02  0.7818608E-02  0.1360232E+00
          2   -1    0    0  502    0  0.00000000000E+00  0.00000000000E+00  0.57343406352E+03  0.57343406352E+03  0.00000000000E+00 0. -1.
          1   -1    0    0  501    0 -0.00000000000E+00 -0.00000000000E+00 -0.98830442608E+03  0.98830442608E+03  0.00000000000E+00 0. -1.
         25    2    1    2    0    0  0.14409858782E+03 -0.20594422231E+01  0.15880856201E+03  0.24821962069E+03  0.12499670562E+03 0.  0.
          2    1    1    2  501    0 -0.90204655142E+02  0.42544478243E+00 -0.93946220527E+03  0.94378297078E+03  0.00000000000E+00 0. -1.
          1    1    1    2  502    0 -0.53893932680E+02  0.16339974407E+01  0.36578328070E+03  0.36973589813E+03  0.00000000000E+00 0. -1.
         22    1    3    3    0    0  0.14901439852E+02 -0.27163802052E+02 -0.11442155820E+02  0.33027987849E+02  0.00000000000E+00 0. -1.
         22    1    3    3    0    0  0.12919714797E+03  0.25104359829E+02  0.17025071783E+03  0.21519163285E+03  0.00000000000E+00 0. -1.
</event>
<event>
 7    1  0.6262315E-006  0.6428863E+02  0.7818608E-02  0.1434429E+00
          2   -1    0    0  502    0  0.00000000000E+00  0.00000000000E+00  0.37821484060E+03  0.37821484060E+03  0.00000000000E+00 0. -1.
          1   -1    0    0  501    0 -0.00000000000E+00 -0.00000000000E+00 -0.25553608173E+03  0.25553608173E+03  0.00000000000E+00 0. -1.
         25    2    1    2    0    0  0.76875438255E+02  0.53839011346E+02 -0.79799174264E+01  0.15651544971E+03  0.12499973906E+03 0.  0.
          2    1    1    2  501    0 -0.15204616536E+02 -0.39356917690E+02 -0.16734046261E+03  0.17257745438E+03  0.00000000000E+00 0. -1.
          1    1    1    2  502    0 -0.61670821719E+02 -0.14482093657E+02  0.29799913891E+03  0.30465801824E+03  0.00000000000E+00 0. -1.
         22    1    3    3    0    0  0.26248848582E+02 -0.20890418106E+02  0.41671520066E+02  0.53496983141E+02  0.00000000000E+00 0.  1.
         22    1    3    3    0    0  0.50626589673E+02  0.74729429453E+02 -0.49651437493E+02  0.10301846656E+03  0.00000000000E+00 0.  1.
</event>
<event>
 7    1  0.6262315E-006  0.2003861E+03  0.7818608E-02  0.1262294E+00
          2   -1    0    0  502    0  0.00000000000E+00  0.00000000000E+00  0.34312744820E+04  0.34312744820E+04  0.00000000000E+00 0. -1.
          1   -1    0    0  501    0 -0.00000000000E+00 -0.00000000000E+00 -0.57748291092E+03  0.57748291092E+03  0.00000000000E+00 0. -1.
         25    2    1    2    0    0 -0.55165059906E+02 -0.16216379958E+03  0.20093642210E+04  0.20205224275E+04  0.12500410299E+03 0.  0.
          2    1    1    2  501    0  0.97948221686E+01  0.20045899702E+03 -0.55364659839E+03  0.58890092880E+03  0.00000000000E+00 0. -1.
          1    1    1    2  502    0  0.45370237737E+02 -0.38295197441E+02  0.13980739484E+04  0.13993340366E+04  0.00000000000E+00 0. -1.
         22    1    3    3    0    0  0.11484171452E+02 -0.47817558726E+02  0.18699576895E+03  0.19335413810E+03  0.00000000000E+00 0.  1.
         22    1    3    3    0    0 -0.66649231358E+02 -0.11434624085E+03  0.18223684520E+04  0.18271682894E+04  0.00000000000E+00 0.  1.
</event>
<event>
 7    1  0.6262315E-006  0.7218216E+02  0.7818608E-02  0.1360215E+00
          2   -1    0    0  502    0  0.00000000000E+00  0.00000000000E+00  0.20139321556E+04  0.20139321556E+04  0.00000000000E+00 0. -1.
          1   -1    0    0  501    0 -0.00000000000E+00 -0.00000000000E+00 -0.14783433636E+03  0.14783433636E+03  0.00000000000E+00 0. -1.
         25    2    1    2    0    0 -0.25090686244E+01 -0.13365508359E+02  0.38545971437E+03  0.40544850216E+03  0.12499745701E+03 0.  0.
          2    1    1    2  501    0  0.38527666320E+02 -0.55806779067E+02 -0.12849722423E+03  0.14529388940E+03  0.00000000000E+00 0. -1.
          1    1    1    2  502    0 -0.36018597696E+02  0.69172287426E+02  0.16091353291E+04  0.16110241004E+04  0.00000000000E+00 0. -1.
         22    1    3    3    0    0 -0.26816405060E+02 -0.62679616612E+02  0.25317668913E+03  0.26219513694E+03  0.00000000000E+00 0.  1.
         22    1    3    3    0    0  0.24307336436E+02  0.49314108253E+02  0.13228302524E+03  0.14325336521E+03  0.00000000000E+00 0.  1.
</event>
<event>
 7    1  0.6262315E-006  0.7847853E+02  0.7818608E-02  0.1428233E+00
          2   -1    0    0  502    0  0.00000000000E+00  0.00000000000E+00  0.39616803230E+03  0.39616803230E+03  0.00000000000E+00 0. -1.
          1   -1    0    0  501    0 -0.00000000000E+00 -0.00000000000E+00 -0.77816352124E+03  0.77816352124E+03  0.00000000000E+00 0. -1.
         25    2    1    2    0    0 -0.73966365671E+02 -0.73164232983E+02  0.44586626202E+02  0.16863381519E+03  0.12500147259E+03 0.  0.
          2    1    1    2  501    0  0.72033155057E+01  0.35498263485E+02 -0.71059726364E+03  0.71151984200E+03  0.00000000000E+00 0. -1.
          1    1    1    2  502    0  0.66763050165E+02  0.37665969497E+02  0.28401514850E+03  0.29417789636E+03  0.00000000000E+00 0. -1.
         22    1    3    3    0    0 -0.31194175057E+01  0.94321311759E+01 -0.33341248196E+02  0.34789864837E+02  0.00000000000E+00 0. -1.
         22    1    3    3    0    0 -0.70846948165E+02 -0.82596364158E+02  0.77927874399E+02  0.13384395035E+03  0.00000000000E+00 0. -1.
</event>
<event>
 7    1  0.6262315E-006  0.5243119E+02  0.7818608E-02  0.1449541E+00
          2   -1    0    0  502    0  0.00000000000E+00  0.00000000000E+00  0.10199184972E+04  0.10199184972E+04  0.00000000000E+00 0. -1.
          1   -1    0    0  501    0 -0.00000000000E+00 -0.00000000000E+00 -0.16308131923E+03  0.16308131923E+03  0.00000000000E+00 0. -1.
         25    2    1    2    0    0 -0.72467234083E+01 -0.60489533005E+01  0.21492438631E+03  0.24881074262E+03  0.12500075591E+03 0.  0.
          2    1    1    2  501    0  0.53325943011E+02  0.23979367654E+01 -0.14055871784E+03  0.15035344845E+03  0.00000000000E+00 0. -1.
          1    1    1    2  502    0 -0.46079219603E+02  0.36510165351E+01  0.78247150951E+03  0.78383562537E+03  0.00000000000E+00 0. -1.
         22    1    3    3    0    0  0.55112154765E+02 -0.19395434451E+02  0.75263183890E+02  0.95278955335E+02  0.00000000000E+00 0. -1.
         22    1    3    3    0    0 -0.62358878174E+02  0.13346481150E+02  0.13966120242E+03  0.15353178729E+03  0.00000000000E+00 0. -1.
</event>
<event>
 7    1  0.6262315E-006  0.7402392E+02  0.7818608E-02  0.1431008E+00
          2   -1    0    0  502    0  0.00000000000E+00  0.00000000000E+00  0.22891674390E+04  0.22891674390E+04  0.00000000000E+00 0. -1.
          1   -1    0    0  501    0 -0.00000000000E+00 -0.00000000000E+00 -0.26534684032E+03  0.26534684032E+03  0.00000000000E+00 0. -1.
         25    2    1    2    0    0  0.14273375229E+02  0.68494919327E+02  0.22974925900E+03  0.27074927007E+03  0.12500064808E+03 0.  0.
          2    1    1    2  501    0 -0.49527263852E+02 -0.55416185189E+02 -0.23902882116E+03  0.25031716040E+03  0.00000000000E+00 0. -1.
          1    1    1    2  502    0  0.35253888623E+02 -0.13078734138E+02  0.20331001609E+04  0.20334478489E+04  0.00000000000E+00 0. -1.
         22    1    3    3    0    0 -0.23190309039E+02  0.87501838148E+02  0.10252628277E+03  0.13676988255E+03  0.00000000000E+00 0.  1.
         22    1    3    3    0    0  0.37463684268E+02 -0.19006918821E+02  0.12722297622E+03  0.13397938752E+03  0.00000000000E+00 0.  1.
</event>
<event>
 7    1  0.6262315E-006  0.6852703E+02  0.7818608E-02  0.1454490E+00
          2   -1    0    0  502    0  0.00000000000E+00  0.00000000000E+00  0.21304707957E+04  0.21304707957E+04  0.00000000000E+00 0. -1.
          1   -1    0    0  501    0 -0.00000000000E+00 -0.00000000000E+00 -0.11674820890E+03  0.11674820890E+03  0.00000000000E+00 0. -1.
         25    2    1    2    0    0 -0.66782288899E+02  0.57706341195E+02  0.32080574903E+03  0.35543117066E+03  0.12500037016E+03 0.  0.
          2    1    1    2  501    0  0.63754262073E+02 -0.23737187165E+02 -0.87617235406E+02  0.11092718299E+03  0.00000000000E+00 0. -1.
          1    1    1    2  502    0  0.30280268260E+01 -0.33969154029E+02  0.17805340732E+04  0.17808606510E+04  0.00000000000E+00 0. -1.
         22    1    3    3    0    0 -0.31770740754E+01  0.82676200743E+02  0.14714610969E+03  0.16881180518E+03  0.00000000000E+00 0. -1.
         22    1    3    3    0    0 -0.63605214824E+02 -0.24969859548E+02  0.17365963934E+03  0.18661936549E+03  0.00000000000E+00 0. -1.
</event>
<event>
 7    1  0.1110392E-005  0.4822366E+02  0.7818608E-02  0.1474466E+00
          2   -1    0    0  502    0  0.00000000000E+00  0.00000000000E+00  0.10840723299E+04  0.10840723299E+04  0.00000000000E+00 0. -1.
          1   -1    0    0  501    0 -0.00000000000E+00 -0.00000000000E+00 -0.90548768155E+03  0.90548768155E+03  0.00000000000E+00 0. -1.
         25    2    1    2    0    0  0.27322980716E+01  0.74010699952E+01 -0.46059565544E+03  0.47732276280E+03  0.12500568302E+03 0.  0.
          2    1    1    2  501    0  0.43117417167E+02 -0.22345138541E+02 -0.43463498694E+03  0.43733967205E+03  0.00000000000E+00 0. -1.
          1    1    1    2  502    0 -0.45849715238E+02  0.14944068546E+02  0.10738152907E+04  0.10748975766E+04  0.00000000000E+00 0. -1.
         22    1    3    3    0    0 -0.57875824803E+02  0.72794608089E+01 -0.30113141786E+03  0.30672908644E+03  0.00000000000E+00 0.  1.
         22    1    3    3    0    0  0.60608122874E+02  0.12160918629E+00 -0.15946423757E+03  0.17059367635E+03  0.00000000000E+00 0.  1.
</event>
<event>
 7    1  0.6262315E-006  0.1360652E+03  0.7818608E-02  0.1345806E+00
          2   -1    0    0  502    0  0.00000000000E+00  0.00000000000E+00  0.27499853172E+04  0.27499853172E+04  0.00000000000E+00 0. -1.
          1   -1    0    0  501    0 -0.00000000000E+00 -0.00000000000E+00 -0.11657851457E+04  0.11657851457E+04  0.00000000000E+00 0. -1.
         25    2    1    2    0    0  0.13398607749E+02 -0.16093732834E+03  0.92654815486E+03  0.94878667120E+03  0.12499727126E+03 0.  0.
          2    1    1    2  501    0  0.21448187522E+02  0.34540881857E+02 -0.11519354421E+04  0.11526527491E+04  0.00000000000E+00 0. -1.
          1    1    1    2  502    0 -0.34846795271E+02  0.12639644648E+03  0.18095874588E+04  0.18143310425E+04  0.00000000000E+00 0. -1.
         22    1    3    3    0    0  0.26498769923E+02 -0.48115144935E+01  0.35904061523E+03  0.36004930060E+03  0.00000000000E+00 0. -1.
         22    1    3    3    0    0 -0.13100162173E+02 -0.15612581384E+03  0.56750753963E+03  0.58873737059E+03  0.00000000000E+00 0. -1.
</event>
<event>
 7    1  0.6262315E-006  0.1394001E+03  0.7818608E-02  0.1278902E+00
          2   -1    0    0  502    0  0.00000000000E+00  0.00000000000E+00  0.22120779617E+04  0.22120779617E+04  0.00000000000E+00 0. -1.
          1   -1    0    0  501    0 -0.00000000000E+00 -0.00000000000E+00 -0.26762234001E+03  0.26762234001E+03  0.00000000000E+00 0. -1.
         25    2    1    2    0    0 -0.10627432852E+03  0.87077617242E+02  0.18208502527E+03  0.26010742357E+03  0.12499668412E+03 0.  0.
          2    1    1    2  501    0  0.49413930390E+02 -0.13237011680E+03 -0.20604456848E+03  0.24983584318E+03  0.00000000000E+00 0. -1.
          1    1    1    2  502    0  0.56860398132E+02  0.45292499562E+02  0.19684151649E+04  0.19697570350E+04  0.00000000000E+00 0. -1.
         22    1    3    3    0    0 -0.11190202849E+02 -0.24031467802E+02 -0.74002534932E-01  0.26509197666E+02  0.00000000000E+00 0.  1.
         22    1    3    3    0    0 -0.95084125672E+02  0.11110908504E+03  0.18215902780E+03  0.23359822590E+03  0.00000000000E+00 0.  1.
</event>
<event>
 7    1  0.6262315E-006  0.8802371E+02  0.7818608E-02  0.1431195E+00
          2   -1    0    0  502    0  0.00000000000E+00  0.00000000000E+00  0.10559885454E+04  0.10559885454E+04  0.00000000000E+00 0. -1.
          1   -1    0    0  501    0 -0.00000000000E+00 -0.00000000000E+00 -0.50011159678E+03  0.50011159678E+03  0.00000000000E+00 0. -1.
         25    2    1    2    0    0 -0.85370558221E+02  0.47457306865E+02  0.30702149605E+03  0.34558398736E+03  0.12500306036E+03 0.  0.
          2    1    1    2  501    0  0.86517921850E+02 -0.15901636309E+02 -0.47646060851E+03  0.48451307959E+03  0.00000000000E+00 0. -1.
          1    1    1    2  502    0 -0.11473636288E+01 -0.31555670556E+02  0.72531606108E+03  0.72600307523E+03  0.00000000000E+00 0. -1.
         22    1    3    3    0    0 -0.93121112438E+02 -0.92524649705E+01  0.23910713592E+03  0.25676715548E+03  0.00000000000E+00 0. -1.
         22    1    3    3    0    0  0.77505542167E+01  0.56709771836E+02  0.67914360131E+02  0.88816831875E+02  0.00000000000E+00 0. -1.
</event>
<event>
 7    1  0.6262315E-006  0.1912673E+03  0.7818608E-02  0.1307007E+00
          2   -1    0    0  502    0  0.00000000000E+00  0.00000000000E+00  0.54008851929E+03  0.54008851929E+03  0.00000000000E+00 0. -1.
          1   -1    0    0  501    0 -0.00000000000E+00 -0.00000000000E+00 -0.25415846773E+03  0.25415846773E+03  0.00000000000E+00 0. -1.
         25    2    1    2    0    0 -0.49968021909E+02 -0.18989012215E+03  0.29035211116E+03  0.37213371006E+03  0.12499635195E+03 0.  0.
          2    1    1    2  501    0  0.85931118168E+02  0.17068502850E+03 -0.16744019880E+03  0.25407431235E+03  0.00000000000E+00 0. -1.
          1    1    1    2  502    0 -0.35963096259E+02  0.19205093657E+02  0.16301813920E+03  0.16803896460E+03  0.00000000000E+00 0. -1.
         22    1    3    3    0    0 -0.55335148985E+02 -0.14610221576E+02  0.77689689806E+02  0.96494171792E+02  0.00000000000E+00 0.  1.
         22    1    3    3    0    0  0.53671270761E+01 -0.17527990058E+03  0.21266242136E+03  0.27563953827E+03  0.00000000000E+00 0.  1.
</event>
<event>
 7    1  0.6262315E-006  0.2270532E+03  0.7818608E-02  0.1292779E+00
          2   -1    0    0  502    0  0.00000000000E+00  0.00000000000E+00  0.25090825766E+03  0.25090825766E+03  0.00000000000E+00 0. -1.
          1   -1    0    0  501    0 -0.00000000000E+00 -0.00000000000E+00 -0.52071485797E+03  0.52071485797E+03  0.00000000000E+00 0. -1.
         25    2    1    2    0    0  0.19525054685E+03  0.81082146231E+02 -0.22897875741E+03  0.33578841927E+03  0.12500200275E+03 0.  0.
          2    1    1    2  501    0 -0.23413183559E+03 -0.76435605449E+02 -0.17104269610E+03  0.29985950395E+03  0.00000000000E+00 0. -1.
          1    1    1    2  502    0  0.38881288740E+02 -0.46465407818E+01  0.13021485320E+03  0.13597519241E+03  0.00000000000E+00 0. -1.
         22    1    3    3    0    0  0.63372834421E+02  0.93637179633E+02 -0.10156334723E+03  0.15198404868E+03  0.00000000000E+00 0.  1.
         22    1    3    3    0    0  0.13187771243E+03 -0.12555033402E+02 -0.12741541018E+03  0.18380437060E+03  0.00000000000E+00 0.  1.
</event>
<event>
 7    1  0.6262315E-006  0.2056661E+03  0.7818608E-02  0.1256580E+00
          2   -1    0    0  502    0  0.00000000000E+00  0.00000000000E+00  0.37714848621E+03  0.37714848621E+03  0.00000000000E+00 0. -1.
          1   -1    0    0  501    0 -0.00000000000E+00 -0.00000000000E+00 -0.21773007258E+04  0.21773007258E+04  0.00000000000E+00 0. -1.
         25    2    1    2    0    0  0.25907072321E+03 -0.40569956241E+02 -0.34203979774E+03  0.44875316529E+03  0.12499847659E+03 0.  0.
          2    1    1    2  501    0 -0.59748752293E+02  0.13207977472E+02 -0.17500647698E+04  0.17511342217E+04  0.00000000000E+00 0. -1.
          1    1    1    2  502    0 -0.19932197092E+03  0.27361978769E+02  0.29195232792E+03  0.35456182500E+03  0.00000000000E+00 0. -1.
         22    1    3    3    0    0  0.19782091485E+03  0.22362895930E+02 -0.20319468091E+03  0.28446667963E+03  0.00000000000E+00 0.  1.
         22    1    3    3    0    0  0.61249808357E+02 -0.62932852170E+02 -0.13884511683E+03  0.16428648567E+03  0.00000000000E+00 0.  1.
</event>
<event>
 7    1  0.6262315E-006  0.9465252E+02  0.7818608E-02  0.1436972E+00
          2   -1    0    0  502    0  0.00000000000E+00  0.00000000000E+00  0.30142837695E+04  0.30142837695E+04  0.00000000000E+00 0. -1.
          1   -1    0    0  501    0 -0.00000000000E+00 -0.00000000000E+00 -0.37838268264E+03  0.37838268264E+03  0.00000000000E+00 0. -1.
         25    2    1    2    0    0 -0.10437931404E+03  0.40312045304E+02  0.13139909323E+03  0.21310079163E+03  0.12500449390E+03 0.  0.
          2    1    1    2  501    0  0.11129202752E+02 -0.25817616523E+02 -0.33616148797E+03  0.33733507744E+03  0.00000000000E+00 0. -1.
          1    1    1    2  502    0  0.93250111287E+02 -0.14494428782E+02  0.28406634815E+04  0.28422305830E+04  0.00000000000E+00 0. -1.
         22    1    3    3    0    0 -0.11501221646E+03  0.15103978310E+02  0.14235269964E+03  0.18363069240E+03  0.00000000000E+00 0. -1.
         22    1    3    3    0    0  0.10632902417E+02  0.25208066994E+02 -0.10953606412E+02  0.29470099233E+02  0.00000000000E+00 0. -1.
</event>
<event>
 7    1  0.6262315E-006  0.1243033E+03  0.7818608E-02  0.1399963E+00
          2   -1    0    0  502    0  0.00000000000E+00  0.00000000000E+00  0.71792408764E+03  0.71792408764E+03  0.00000000000E+00 0. -1.
          1   -1    0    0  501    0 -0.00000000000E+00 -0.00000000000E+00 -0.43579155851E+03  0.43579155851E+03  0.00000000000E+00 0. -1.
         25    2    1    2    0    0  0.40053514191E+02 -0.14349439560E+03  0.20783012562E+03  0.28462928148E+03  0.12500216476E+03 0.  0.
          2    1    1    2  501    0 -0.22133087933E+02  0.12136440976E+03 -0.38736829508E+03  0.40653830026E+03  0.00000000000E+00 0. -1.
          1    1    1    2  502    0 -0.17920426258E+02  0.22129985834E+02  0.46167069860E+03  0.46254806441E+03  0.00000000000E+00 0. -1.
         22    1    3    3    0    0  0.35580098846E+02 -0.24703069564E+01  0.28457161614E+01  0.35779099357E+02  0.00000000000E+00 0.  1.
         22    1    3    3    0    0  0.44734153454E+01 -0.14102408864E+03  0.20498440946E+03  0.24885018212E+03  0.00000000000E+00 0.  1.
</event>
<event>
 7    1  0.6262315E-006  0.1348452E+03  0.7818608E-02  0.1276413E+00
          2   -1    0    0  502    0  0.00000000000E+00  0.00000000000E+00  0.24173932166E+03  0.24173932166E+03  0.00000000000E+00 0. -1.
          1   -1    0    0  501    0 -0.00000000000E+00 -0.00000000000E+00 -0.15521752202E+04  0.15521752202E+04  0.00000000000E+00 0. -1.
         25    2    1    2    0    0 -0.20481275637E+03 -0.10312295955E+02 -0.26051492986E+03  0.35433088286E+03  0.12501094850E+03 0.  0.
          2    1    1    2  501    0  0.12966048509E+03 -0.62595481432E+01 -0.12336120310E+04  0.12404231804E+04  0.00000000000E+00 0. -1.
          1    1    1    2  502    0  0.75152271284E+02  0.16571844098E+02  0.18369106230E+03  0.19916047867E+03  0.00000000000E+00 0. -1.
         22    1    3    3    0    0 -0.49745216182E+02  0.18592813754E+02 -0.40764199691E+01  0.53262523937E+02  0.00000000000E+00 0. -1.
         22    1    3    3    0    0 -0.15506754019E+03 -0.28905109709E+02 -0.25643850989E+03  0.30106835892E+03  0.00000000000E+00 0. -1.
</event>
<event>
 7    1  0.6262315E-006  0.1557551E+03  0.7818608E-02  0.1263774E+00
          2   -1    0    0  502    0  0.00000000000E+00  0.00000000000E+00  0.66474155442E+03  0.66474155442E+03  0.00000000000E+00 0. -1.
          1   -1    0    0  501    0 -0.00000000000E+00 -0.00000000000E+00 -0.93429955408E+03  0.93429955408E+03  0.00000000000E+00 0. -1.
         25    2    1    2    0    0  0.60115834828E+02 -0.91040074409E+02 -0.27216857543E+03  0.31875185468E+03  0.12499921065E+03 0.  0.
          2    1    1    2  501    0 -0.11878066584E+03  0.13822540174E+03 -0.62354015227E+03  0.64962868607E+03  0.00000000000E+00 0. -1.
          1    1    1    2  502    0  0.58664831009E+02 -0.47185327329E+02  0.62615072804E+03  0.63066056776E+03  0.00000000000E+00 0. -1.
         22    1    3    3    0    0  0.61975266983E+02  0.39825591028E+01 -0.16060552130E+03  0.17219444813E+03  0.00000000000E+00 0.  1.
         22    1    3    3    0    0 -0.18594321547E+01 -0.95022633512E+02 -0.11156305412E+03  0.14655740654E+03  0.00000000000E+00 0.  1.
</event>
<event>
 7    1  0.6262315E-006  0.6133778E+02  0.7818608E-02  0.1449904E+00
          2   -1    0    0  502    0  0.00000000000E+00  0.00000000000E+00  0.42050568730E+03  0.42050568730E+03  0.00000000000E+00 0. -1.
          1   -1    0    0  501    0 -0.00000000000E+00 -0.00000000000E+00 -0.14578697974E+04  0.14578697974E+04  0.00000000000E+00 0. -1.
         25    2    1    2    0    0 -0.43596850028E+02  0.14155699797E+02 -0.22559661996E+02  0.13503269407E+03  0.12499528371E+03 0.  0.
          2    1    1    2  501    0  0.32968764623E+02 -0.52101537337E+02 -0.13773161971E+04  0.13786955488E+04  0.00000000000E+00 0. -1.
          1    1    1    2  502    0  0.10628085405E+02  0.37945837540E+02  0.36251174899E+03  0.36464724179E+03  0.00000000000E+00 0. -1.
         22    1    3    3    0    0 -0.42974926537E+02  0.66653146917E+02 -0.42125590760E+01  0.79418083323E+02  0.00000000000E+00 0. -1.
         22    1    3    3    0    0 -0.62192349132E+00 -0.52497447120E+02 -0.18347102920E+02  0.55614610747E+02  0.00000000000E+00 0. -1.
</event>
<event>
 7    1  0.6262315E-006  0.4953325E+02  0.7818608E-02  0.1469521E+00
          2   -1    0    0  502    0  0.00000000000E+00  0.00000000000E+00  0.70174142941E+03  0.70174142941E+03  0.00000000000E+00 0. -1.
          1   -1    0    0  501    0 -0.00000000000E+00 -0.00000000000E+00 -0.33860949229E+03  0.33860949229E+03  0.00000000000E+00 0. -1.
         25    2    1    2    0    0  0.19932821358E+02  0.59517031673E+02 -0.40743208692E+02  0.14568370650E+03  0.12499655538E+03 0.  0.
          2    1    1    2  501    0  0.23316394043E+02 -0.35310369072E+02 -0.24261636170E+03  0.24627865389E+03  0.00000000000E+00 0. -1.
          1    1    1    2  502    0 -0.43249215401E+02 -0.24206662600E+02  0.64649150752E+03  0.64838856131E+03  0.00000000000E+00 0. -1.
         22    1    3    3    0    0 -0.50437453520E+02  0.31319418968E+02 -0.36633568823E+02  0.69762891904E+02  0.00000000000E+00 0. -1.
         22    1    3    3    0    0  0.70370274878E+02  0.28197612705E+02 -0.41096398693E+01  0.75920814593E+02  0.00000000000E+00 0. -1.
</event>
<event>
 7    1  0.6262315E-006  0.1326128E+03  0.7818608E-02  0.1409158E+00
          2   -1    0    0  502    0  0.00000000000E+00  0.00000000000E+00  0.59596003187E+03  0.59596003187E+03  0.00000000000E+00 0. -1.
          1   -1    0    0  501    0 -0.00000000000E+00 -0.00000000000E+00 -0.62760428082E+03  0.62760428082E+03  0.00000000000E+00 0. -1.
         25    2    1    2    0    0  0.23803599383E+01  0.15195629214E+03  0.16781489261E+03  0.25861828334E+03  0.12500078985E+03 0.  0.
          2    1    1    2  501    0 -0.65462612974E+01 -0.23951035375E+02 -0.57121143391E+03  0.57175082673E+03  0.00000000000E+00 0. -1.
          1    1    1    2  502    0  0.41659013591E+01 -0.12800525676E+03  0.37175229236E+03  0.39319520262E+03  0.00000000000E+00 0. -1.
         22    1    3    3    0    0  0.46332692028E+02  0.14503253236E+03  0.13174119320E+03  0.20133776540E+03  0.00000000000E+00 0.  1.
         22    1    3    3    0    0 -0.43952332089E+02  0.69237597766E+01  0.36073699408E+02  0.57280517932E+02  0.00000000000E+00 0.  1.
</event>
<event>
 7    1  0.6262315E-006  0.5250413E+02  0.7818608E-02  0.1524199E+00
          2   -1    0    0  502    0  0.00000000000E+00  0.00000000000E+00  0.14765208917E+04  0.14765208917E+04  0.00000000000E+00 0. -1.
          1   -1    0    0  501    0 -0.00000000000E+00 -0.00000000000E+00 -0.18483149840E+03  0.18483149840E+03  0.00000000000E+00 0. -1.
         25    2    1    2    0    0 -0.48035938502E+02 -0.11755911969E+02  0.54287371944E+03  0.55926993457E+03  0.12500132641E+03 0.  0.
          2    1    1    2  501    0 -0.30708701141E+01  0.27196261866E+02 -0.17479767627E+03  0.17692737079E+03  0.00000000000E+00 0. -1.
          1    1    1    2  502    0  0.51106808616E+02 -0.15440349897E+02  0.92361335016E+03  0.92515508478E+03  0.00000000000E+00 0. -1.
         22    1    3    3    0    0 -0.59097280142E+02  0.35801324587E+02  0.17462094990E+03  0.18779430105E+03  0.00000000000E+00 0.  1.
         22    1    3    3    0    0  0.11061341640E+02 -0.47557236556E+02  0.36825276954E+03  0.37147563352E+03  0.00000000000E+00 0.  1.
</event>
<event>
 7    1  0.6262315E-006  0.6335081E+02  0.7818608E-02  0.1526403E+00
          2   -1    0    0  502    0  0.00000000000E+00  0.00000000000E+00  0.27696969929E+04  0.27696969929E+04  0.00000000000E+00 0. -1.
          1   -1    0    0  501    0 -0.00000000000E+00 -0.00000000000E+00 -0.19524044776E+03  0.19524044776E+03  0.00000000000E+00 0. -1.
         25    2    1    2    0    0  0.75670588859E+02 -0.23764566852E+02  0.56103517056E+03  0.58023850724E+03  0.12500188007E+03 0.  0.
          2    1    1    2  501    0 -0.13249749379E+02  0.18003452693E+02 -0.18451736782E+03  0.18586645527E+03  0.00000000000E+00 0. -1.
          1    1    1    2  502    0 -0.62420839480E+02  0.57611141594E+01  0.21979387424E+04  0.21988324782E+04  0.00000000000E+00 0. -1.
         22    1    3    3    0    0  0.56350803598E+02 -0.35542873003E+02  0.55178682986E+03  0.55579439948E+03  0.00000000000E+00 0. -1.
         22    1    3    3    0    0  0.19319785261E+02  0.11778306151E+02  0.92483407000E+01  0.24444107756E+02  0.00000000000E+00 0. -1.
</event>
<event>
 7    1  0.6262315E-006  0.1199274E+03  0.7818608E-02  0.1282438E+00
          2   -1    0    0  502    0  0.00000000000E+00  0.00000000000E+00  0.52976549399E+03  0.52976549399E+03  0.00000000000E+00 0. -1.
          1   -1    0    0  501    0 -0.00000000000E+00 -0.00000000000E+00 -0.16497509264E+04  0.16497509264E+04  0.00000000000E+00 0. -1.
         25    2    1    2    0    0  0.49476432311E+02 -0.30588831341E+02 -0.36723138618E+03  0.39225871227E+03  0.12499764957E+03 0.  0.
          2    1    1    2  501    0 -0.10657315169E+03  0.89032875306E+02 -0.12629494951E+04  0.12705613392E+04  0.00000000000E+00 0. -1.
          1    1    1    2  502    0  0.57096719383E+02 -0.58444043965E+02  0.51019544885E+03  0.51669636893E+03  0.00000000000E+00 0. -1.
         22    1    3    3    0    0  0.66637649736E+02  0.30902817505E+02 -0.17853650565E+03  0.19305658327E+03  0.00000000000E+00 0. -1.
         22    1    3    3    0    0 -0.17161217425E+02 -0.61491648846E+02 -0.18869488052E+03  0.19920212900E+03  0.00000000000E+00 0. -1.
</event>
<event>
 7    1  0.6262315E-006  0.8412030E+02  0.7818608E-02  0.1398236E+00
          2   -1    0    0  502    0  0.00000000000E+00  0.00000000000E+00  0.10833063504E+03  0.10833063504E+03  0.00000000000E+00 0. -1.
          1   -1    0    0  501    0 -0.00000000000E+00 -0.00000000000E+00 -0.18723990538E+04  0.18723990538E+04  0.00000000000E+00 0. -1.
         25    2    1    2    0    0  0.59536089778E+02  0.36707704562E+01 -0.16709787573E+03  0.21703705738E+03  0.12500145464E+03 0.  0.
          2    1    1    2  501    0  0.17059921152E+02  0.39099070290E+02 -0.16568998446E+04  0.16574489052E+04  0.00000000000E+00 0. -1.
          1    1    1    2  502    0 -0.76596010930E+02 -0.42769840747E+02  0.59929301634E+02  0.10624372623E+03  0.00000000000E+00 0. -1.
         22    1    3    3    0    0  0.52969570208E+02 -0.41855960444E+02 -0.32754042627E+02  0.75036818304E+02  0.00000000000E+00 0.  1.
         22    1    3    3    0    0  0.65665195700E+01  0.45526730900E+02 -0.13434383310E+03  0.14200023907E+03  0.00000000000E+00 0.  1.
</event>
<event>
 7    1  0.6262315E-006  0.1923871E+03  0.7818608E-02  0.1246978E+00
          2   -1    0    0  502    0  0.00000000000E+00  0.00000000000E+00  0.18081700094E+04  0.18081700094E+04  0.00000000000E+00 0. -1.
          1   -1    0    0  501    0 -0.00000000000E+00 -0.00000000000E+00 -0.12224040696E+04  0.12224040696E+04  0.00000000000E+00 0. -1.
         25    2    1    2    0    0 -0.84128441899E+02  0.86910965438E+02  0.10062059860E+04  0.10211304486E+04  0.12500318415E+03 0.  0.
          2    1    1    2  501    0  0.13536091276E+03 -0.13747169815E+03 -0.12056262224E+04  0.12209650416E+04  0.00000000000E+00 0. -1.
          1    1    1    2  502    0 -0.51232470861E+02  0.50560732711E+02  0.78518617619E+03  0.78847858883E+03  0.00000000000E+00 0. -1.
         22    1    3    3    0    0 -0.11679464408E+03  0.75953263714E+02  0.82414661421E+03  0.83583941571E+03  0.00000000000E+00 0.  1.
         22    1    3    3    0    0  0.32666202180E+02  0.10957701723E+02  0.18205937180E+03  0.18529103285E+03  0.00000000000E+00 0.  1.
</event>
<event>
 7    1  0.6262315E-006  0.9752953E+02  0.7818608E-02  0.1291246E+00
          2   -1    0    0  502    0  0.00000000000E+00  0.00000000000E+00  0.33302456656E+03  0.33302456656E+03  0.00000000000E+00 0. -1.
          1   -1    0    0  501    0 -0.00000000000E+00 -0.00000000000E+00 -0.90822287510E+03  0.90822287510E+03  0.00000000000E+00 0. -1.
         25    2    1    2    0    0 -0.33569846152E+02  0.65035438772E+02 -0.13543969755E+03  0.19830609118E+03  0.12499940504E+03 0.  0.
          2    1    1    2  501    0 -0.63326745371E+02 -0.76128664316E+02 -0.73003405500E+03  0.73671946606E+03  0.00000000000E+00 0. -1.
          1    1    1    2  502    0  0.96896591524E+02  0.11093225543E+02  0.29027544401E+03  0.30622188441E+03  0.00000000000E+00 0. -1.
         22    1    3    3    0    0 -0.22268237436E+02  0.10196023175E+03 -0.83909414057E+02  0.13391248270E+03  0.00000000000E+00 0. -1.
         22    1    3    3    0    0 -0.11301608716E+02 -0.36924792977E+02 -0.51530283489E+02  0.64393608474E+02  0.00000000000E+00 0. -1.
</event>
<event>
 7    1  0.6262315E-006  0.1921574E+03  0.7818608E-02  0.1231350E+00
          2   -1    0    0  502    0  0.00000000000E+00  0.00000000000E+00  0.25187158927E+04  0.25187158927E+04  0.00000000000E+00 0. -1.
          1   -1    0    0  501    0 -0.00000000000E+00 -0.00000000000E+00 -0.59712933396E+03  0.59712933396E+03  0.00000000000E+00 0. -1.
         25    2    1    2    0    0  0.27197781610E+03 -0.67533901211E+01  0.32851786103E+03  0.44448861648E+03  0.12501441690E+03 0.  0.
          2    1    1    2  501    0 -0.18862738551E+03 -0.70099550390E+01 -0.52175345724E+03  0.55484781713E+03  0.00000000000E+00 0. -1.
          1    1    1    2  502    0 -0.83350430597E+02  0.13763345160E+02  0.21148221549E+04  0.21165087930E+04  0.00000000000E+00 0. -1.
         22    1    3    3    0    0  0.25924910941E+03  0.19206698176E+00  0.23517084922E+03  0.35002209351E+03  0.00000000000E+00 0. -1.
         22    1    3    3    0    0  0.12728706690E+02 -0.69454571029E+01  0.93347011809E+02  0.94466522970E+02  0.00000000000E+00 0. -1.
</event>
<event>
 7    1  0.6262315E-006  0.4784397E+02  0.7818608E-02  0.1509344E+00
          2   -1    0    0  502    0  0.00000000000E+00  0.00000000000E+00  0.11976482871E+04  0.11976482871E+04  0.00000000000E+00 0. -1.
          1   -1    0    0  501    0 -0.00000000000E+00 -0.00000000000E+00 -0.75805677725E+02  0.75805677725E+02  0.00000000000E+00 0. -1.
         25    2    1    2    0    0  0.70534350236E+02 -0.23188724525E+02  0.43548562244E+03  0.45911420265E+03  0.12500124887E+03 0.  0.
          2    1    1    2  501    0 -0.37793820853E+02  0.28606973868E+02 -0.54791385031E+02  0.72448793793E+02  0.00000000000E+00 0. -1.
          1    1    1    2  502    0 -0.32740529384E+02 -0.54182493437E+01  0.74114837195E+03  0.74189096836E+03  0.00000000000E+00 0. -1.
         22    1    3    3    0    0  0.14135117618E+02  0.30777718431E+01  0.36423929671E+03  0.36452645925E+03  0.00000000000E+00 0. -1.
         22    1    3    3    0    0  0.56399232618E+02 -0.26266496368E+02  0.71246325727E+02  0.94587743397E+02  0.00000000000E+00 0. -1.
</event>
<event>
 7    1  0.6262315E-006  0.9202369E+02  0.7818608E-02  0.1366819E+00
          2   -1    0    0  502    0  0.00000000000E+00  0.00000000000E+00  0.41888833707E+03  0.41888833707E+03  0.00000000000E+00 0. -1.
          1   -1    0    0  501    0 -0.00000000000E+00 -0.00000000000E+00 -0.12507148575E+04  0.12507148575E+04  0.00000000000E+00 0. -1.
         25    2    1    2    0    0  0.11097686313E+03  0.54276086131E+02  0.50175129154E+02  0.18276916325E+03  0.12500106308E+03 0.  0.
          2    1    1    2  501    0 -0.91322614710E+02 -0.79358915641E+01 -0.11805341376E+04  0.11840876861E+04  0.00000000000E+00 0. -1.
          1    1    1    2  502    0 -0.19654248425E+02 -0.46340194567E+02  0.29853248804E+03  0.30274634519E+03  0.00000000000E+00 0. -1.
         22    1    3    3    0    0  0.10803642359E+03 -0.81677156155E+01  0.10783083207E+02  0.10888000406E+03  0.00000000000E+00 0.  1.
         22    1    3    3    0    0  0.29404395401E+01  0.62443801746E+02  0.39392045947E+02  0.73889159185E+02  0.00000000000E+00 0.  1.
</event>
<event>
 7    1  0.6262315E-006  0.7910634E+02  0.7818608E-02  0.1384539E+00
          2   -1    0    0  502    0  0.00000000000E+00  0.00000000000E+00  0.35519092034E+03  0.35519092034E+03  0.00000000000E+00 0. -1.
          1   -1    0    0  501    0 -0.00000000000E+00 -0.00000000000E+00 -0.14567405283E+03  0.14567405283E+03  0.00000000000E+00 0. -1.
         25    2    1    2    0    0  0.39403286208E+02  0.87615694136E+02 -0.29361537985E+02  0.16036142354E+03  0.12499822969E+03 0.  0.
          2    1    1    2  501    0 -0.62479257639E+02 -0.42551563318E+02 -0.18802287649E+02  0.77896207846E+02  0.00000000000E+00 0. -1.
          1    1    1    2  502    0  0.23075971431E+02 -0.45064130817E+02  0.25768069314E+03  0.26260734179E+03  0.00000000000E+00 0. -1.
         22    1    3    3    0    0 -0.44235747206E+02  0.47003709782E+02 -0.88669518646E+01  0.65151921687E+02  0.00000000000E+00 0.  1.
         22    1    3    3    0    0  0.83639033414E+02  0.40611984353E+02 -0.20494586120E+02  0.95209501856E+02  0.00000000000E+00 0.  1.
</event>
<event>
 7    1  0.6262315E-006  0.5146785E+02  0.7818608E-02  0.1463441E+00
          2   -1    0    0  502    0  0.00000000000E+00  0.00000000000E+00  0.36212718786E+03  0.36212718786E+03  0.00000000000E+00 0. -1.
          1   -1    0    0  501    0 -0.00000000000E+00 -0.00000000000E+00 -0.23209241242E+03  0.23209241242E+03  0.00000000000E+00 0. -1.
         25    2    1    2    0    0  0.29481767188E+02 -0.68731228777E+02  0.13956701749E+03  0.20173035662E+03  0.12499211177E+03 0.  0.
          2    1    1    2  501    0 -0.37891014558E+02  0.19348866732E+02 -0.19540582629E+03  0.19998386079E+03  0.00000000000E+00 0. -1.
          1    1    1    2  502    0  0.84092473694E+01  0.49382362046E+02  0.18587358423E+03  0.19250538288E+03  0.00000000000E+00 0. -1.
         22    1    3    3    0    0  0.12247410079E+02 -0.50877325985E+02 -0.72504178812E+01  0.52830577439E+02  0.00000000000E+00 0. -1.
         22    1    3    3    0    0  0.17234357110E+02 -0.17853902792E+02  0.14681743537E+03  0.14889977918E+03  0.00000000000E+00 0. -1.
</event>
<event>
 7    1  0.6262315E-006  0.1028101E+03  0.7818608E-02  0.1288705E+00
          2   -1    0    0  502    0  0.00000000000E+00  0.00000000000E+00  0.17782742533E+03  0.17782742533E+03  0.00000000000E+00 0. -1.
          1   -1    0    0  501    0 -0.00000000000E+00 -0.00000000000E+00 -0.73203038554E+03  0.73203038554E+03  0.00000000000E+00 0. -1.
         25    2    1    2    0    0 -0.24644743510E+02  0.80809144255E+02 -0.14313049804E+03  0.20795389690E+03  0.12498400934E+03 0.  0.
          2    1    1    2  501    0  0.89605834833E+02  0.64653131265E+01 -0.53182978018E+03  0.53936436756E+03  0.00000000000E+00 0. -1.
          1    1    1    2  502    0 -0.64961091322E+02 -0.87274457381E+02  0.12075731800E+03  0.16253954641E+03  0.00000000000E+00 0. -1.
         22    1    3    3    0    0 -0.33035553325E+02  0.11276826657E+03 -0.10603808852E+03  0.15827857071E+03  0.00000000000E+00 0.  1.
         22    1    3    3    0    0  0.83908098143E+01 -0.31959122315E+02 -0.37092409516E+02  0.49675326192E+02  0.00000000000E+00 0.  1.
</event>
<event>
 7    1  0.6262315E-006  0.5412008E+02  0.7818608E-02  0.1562861E+00
          2   -1    0    0  502    0  0.00000000000E+00  0.00000000000E+00  0.80095604821E+02  0.80095604821E+02  0.00000000000E+00 0. -1.
          1   -1    0    0  501    0 -0.00000000000E+00 -0.00000000000E+00 -0.69581346480E+03  0.69581346480E+03  0.00000000000E+00 0. -1.
         25    2    1    2    0    0  0.21857569191E+02  0.36274746849E+02 -0.28911135347E+03  0.31781480377E+03  0.12500905648E+03 0.  0.
          2    1    1    2  501    0 -0.42524420617E+02 -0.36498037553E+02 -0.38866518046E+03  0.39268442240E+03  0.00000000000E+00 0. -1.
          1    1    1    2  502    0  0.20666851426E+02  0.22329070468E+00  0.62058673954E+02  0.65409843445E+02  0.00000000000E+00 0. -1.
         22    1    3    3    0    0 -0.18936258044E+02 -0.39998288864E+02 -0.11928723411E+03  0.12723163601E+03  0.00000000000E+00 0. -1.
         22    1    3    3    0    0  0.40793827234E+02  0.76273035712E+02 -0.16982411936E+03  0.19058316776E+03  0.00000000000E+00 0. -1.
</event>
<event>
 7    1  0.6262315E-006  0.1726318E+03  0.7818608E-02  0.1206417E+00
          2   -1    0    0  502    0  0.00000000000E+00  0.00000000000E+00  0.10106768295E+04  0.10106768295E+04  0.00000000000E+00 0. -1.
          1   -1    0    0  501    0 -0.00000000000E+00 -0.00000000000E+00 -0.20456076642E+04  0.20456076642E+04  0.00000000000E+00 0. -1.
         25    2    1    2    0    0  0.69553527781E+02 -0.43039822569E+02 -0.19885551392E+03  0.24871183002E+03  0.12499575762E+03 0.  0.
          2    1    1    2  501    0 -0.72315670290E+01 -0.12202055369E+03 -0.18118534505E+04  0.18159719814E+04  0.00000000000E+00 0. -1.
          1    1    1    2  502    0 -0.62321960752E+02  0.16506037626E+03  0.97577812977E+03  0.99160068231E+03  0.00000000000E+00 0. -1.
         22    1    3    3    0    0  0.14383991067E+02 -0.78862374832E+02 -0.82385943258E+02  0.11495049808E+03  0.00000000000E+00 0.  1.
         22    1    3    3    0    0  0.55169536714E+02  0.35822552263E+02 -0.11646957066E+03  0.13376133194E+03  0.00000000000E+00 0.  1.
</event>
<event>
 7    1  0.6262315E-006  0.9439681E+02  0.7818608E-02  0.1329783E+00
          2   -1    0    0  502    0  0.00000000000E+00  0.00000000000E+00  0.98872132327E+03  0.98872132327E+03  0.00000000000E+00 0. -1.
          1   -1    0    0  501    0 -0.00000000000E+00 -0.00000000000E+00 -0.52776298678E+02  0.52776298678E+02  0.00000000000E+00 0. -1.
         25    2    1    2    0    0  0.27421750758E+02  0.26417928692E+02  0.11988839629E+03  0.17733579773E+03  0.12499959288E+03 0.  0.
          2    1    1    2  501    0  0.13536211192E+02  0.65989692788E+02  0.33737239922E+02  0.75339696876E+02  0.00000000000E+00 0. -1.
          1    1    1    2  502    0 -0.40957961950E+02 -0.92407621481E+02  0.78231938838E+03  0.78882212734E+03  0.00000000000E+00 0. -1.
         22    1    3    3    0    0 -0.45173588751E+02  0.15543588494E+01  0.15512611023E+02  0.47788181100E+02  0.00000000000E+00 0. -1.
         22    1    3    3    0    0  0.72595339509E+02  0.24863569843E+02  0.10437578527E+03  0.12954761663E+03  0.00000000000E+00 0. -1.
</event>
<event>
 7    1  0.6262315E-006  0.4044934E+02  0.7818608E-02  0.1561806E+00
          2   -1    0    0  502    0  0.00000000000E+00  0.00000000000E+00  0.19729771070E+03  0.19729771070E+03  0.00000000000E+00 0. -1.
          1   -1    0    0  501    0 -0.00000000000E+00 -0.00000000000E+00 -0.78944768929E+03  0.78944768929E+03  0.00000000000E+00 0. -1.
         25    2    1    2    0    0  0.64527525398E+02 -0.20907176192E+02 -0.16764436185E+03  0.21984099120E+03  0.12499807120E+03 0.  0.
          2    1    1    2  501    0 -0.27038568464E+02  0.66243218535E+01 -0.59302378515E+03  0.59367682755E+03  0.00000000000E+00 0. -1.
          1    1    1    2  502    0 -0.37488956934E+02  0.14282854338E+02  0.16851816840E+03  0.17322758124E+03  0.00000000000E+00 0. -1.
         22    1    3    3    0    0  0.79392198757E+02 -0.46143500312E+01 -0.37648703107E+02  0.87987716730E+02  0.00000000000E+00 0.  1.
         22    1    3    3    0    0 -0.14864673359E+02 -0.16292826160E+02 -0.12999565874E+03  0.13185327447E+03  0.00000000000E+00 0.  1.
</event>
<event>
 7    1  0.6262315E-006  0.5988608E+02  0.7818608E-02  0.1418177E+00
          2   -1    0    0  502    0  0.00000000000E+00  0.00000000000E+00  0.90902520767E+03  0.90902520767E+03  0.00000000000E+00 0. -1.
          1   -1    0    0  501    0 -0.00000000000E+00 -0.00000000000E+00 -0.10386120894E+03  0.10386120894E+03  0.00000000000E+00 0. -1.
         25    2    1    2    0    0  0.77195359721E+01 -0.21058135011E+02  0.42425684089E+03  0.44285686244E+03  0.12500118914E+03 0.  0.
          2    1    1    2  501    0 -0.58758441246E+02  0.16242642048E+02 -0.83175502790E+02  0.10312391625E+03  0.00000000000E+00 0. -1.
          1    1    1    2  502    0  0.51038905274E+02  0.48154929630E+01  0.46408266063E+03  0.46690563792E+03  0.00000000000E+00 0. -1.
         22    1    3    3    0    0 -0.23899494970E+02  0.29143291802E+02  0.43721209928E+02  0.57724011593E+02  0.00000000000E+00 0. -1.
         22    1    3    3    0    0  0.31619030942E+02 -0.50201426813E+02  0.38053563096E+03  0.38513285085E+03  0.00000000000E+00 0. -1.
</event>
<event>
 7    1  0.6262315E-006  0.8763238E+02  0.7818608E-02  0.1381294E+00
          2   -1    0    0  502    0  0.00000000000E+00  0.00000000000E+00  0.31302669780E+04  0.31302669780E+04  0.00000000000E+00 0. -1.
          1   -1    0    0  501    0 -0.00000000000E+00 -0.00000000000E+00 -0.32640572719E+02  0.32640572719E+02  0.00000000000E+00 0. -1.
         25    2    1    2    0    0 -0.10308034148E+03  0.28367572919E+02  0.11745879483E+04  0.11860488420E+04  0.12499892544E+03 0.  0.
          2    1    1    2  501    0  0.65855194081E+02 -0.56934691435E+02  0.44563166406E+02  0.97797451278E+02  0.00000000000E+00 0. -1.
          1    1    1    2  502    0  0.37225147402E+02  0.28567118516E+02  0.18784752905E+04  0.18790612574E+04  0.00000000000E+00 0. -1.
         22    1    3    3    0    0 -0.85634805543E+02 -0.14892719545E+02  0.10396297789E+04  0.10432570106E+04  0.00000000000E+00 0.  1.
         22    1    3    3    0    0 -0.17445535940E+02  0.43260292464E+02  0.13495816944E+03  0.14279183144E+03  0.00000000000E+00 0.  1.
</event>
<event>
 7    1  0.6262315E-006  0.7453192E+02  0.7818608E-02  0.1440422E+00
          2   -1    0    0  502    0  0.00000000000E+00  0.00000000000E+00  0.69337960208E+03  0.69337960208E+03  0.00000000000E+00 0. -1.
          1   -1    0    0  501    0 -0.00000000000E+00 -0.00000000000E+00 -0.80586042481E+02  0.80586042481E+02  0.00000000000E+00 0. -1.
         25    2    1    2    0    0  0.16203386891E+02  0.38604887703E+02  0.27528842151E+02  0.13466803140E+03  0.12499901771E+03 0.  0.
          2    1    1    2  501    0  0.21298202929E+02  0.27513047343E+02 -0.12310694771E+02  0.36907105384E+02  0.00000000000E+00 0. -1.
          1    1    1    2  502    0 -0.37501589819E+02 -0.66117935046E+02  0.59757541222E+03  0.60239050778E+03  0.00000000000E+00 0. -1.
         22    1    3    3    0    0  0.28164716979E+02 -0.41867328463E+02  0.97810998369E+01  0.51398388974E+02  0.00000000000E+00 0. -1.
         22    1    3    3    0    0 -0.11961330089E+02  0.80472216166E+02  0.17747742315E+02  0.83269642424E+02  0.00000000000E+00 0. -1.
</event>
<event>
 7    1  0.6262315E-006  0.1370627E+03  0.7818608E-02  0.1225182E+00
          2   -1    0    0  502    0  0.00000000000E+00  0.00000000000E+00  0.62109656004E+03  0.62109656004E+03  0.00000000000E+00 0. -1.
          1   -1    0    0  501    0 -0.00000000000E+00 -0.00000000000E+00 -0.99340287340E+03  0.99340287340E+03  0.00000000000E+00 0. -1.
         25    2    1    2    0    0 -0.25305741097E+03  0.40682511236E+02 -0.36659577204E+02  0.28750786668E+03  0.12499491524E+03 0.  0.
          2    1    1    2  501    0  0.12289914569E+03 -0.28883573348E+02 -0.81777556489E+03  0.82746319274E+03  0.00000000000E+00 0. -1.
          1    1    1    2  502    0  0.13015826528E+03 -0.11798937887E+02  0.48212882873E+03  0.49952837402E+03  0.00000000000E+00 0. -1.
         22    1    3    3    0    0 -0.24134231029E+03  0.35561302080E+02  0.49293593486E+01  0.24399798262E+03  0.00000000000E+00 0. -1.
         22    1    3    3    0    0 -0.11715100683E+02  0.51212091561E+01 -0.41588936553E+02  0.43509884059E+02  0.00000000000E+00 0. -1.
</event>
<event>
 7    1  0.6262315E-006  0.1090068E+03  0.7818608E-02  0.1382131E+00
          2   -1    0    0  502    0  0.00000000000E+00  0.00000000000E+00  0.55155624086E+03  0.55155624086E+03  0.00000000000E+00 0. -1.
          1   -1    0    0  501    0 -0.00000000000E+00 -0.00000000000E+00 -0.59151825276E+03  0.59151825276E+03  0.00000000000E+00 0. -1.
         25    2    1    2    0    0 -0.76355178202E+02  0.31059078995E+01  0.21290321689E+03  0.25844248906E+03  0.12499992195E+03 0.  0.
          2    1    1    2  501    0  0.10694647399E+03 -0.24736838818E+02 -0.56231165950E+03  0.57292570365E+03  0.00000000000E+00 0. -1.
          1    1    1    2  502    0 -0.30591295784E+02  0.21630930919E+02  0.30944643071E+03  0.31170630091E+03  0.00000000000E+00 0. -1.
         22    1    3    3    0    0 -0.28210765804E+01  0.20320240081E+02  0.17069983807E+03  0.17192819824E+03  0.00000000000E+00 0.  1.
         22    1    3    3    0    0 -0.73534101621E+02 -0.17214332181E+02  0.42203378821E+02  0.86514290829E+02  0.00000000000E+00 0.  1.
</event>
<event>
 7    1  0.6262315E-006  0.1294167E+03  0.7818608E-02  0.1243002E+00
          2   -1    0    0  502    0  0.00000000000E+00  0.00000000000E+00  0.99279668525E+03  0.99279668525E+03  0.00000000000E+00 0. -1.
          1   -1    0    0  501    0 -0.00000000000E+00 -0.00000000000E+00 -0.10213131298E+03  0.10213131298E+03  0.00000000000E+00 0. -1.
         25    2    1    2    0    0  0.57103907512E+02  0.13392994666E+03  0.25730993521E+03  0.32098253330E+03  0.12499318807E+03 0.  0.
          2    1    1    2  501    0  0.53757561806E+02 -0.12323999167E+03  0.36891482758E+01  0.13450494717E+03  0.00000000000E+00 0. -1.
          1    1    1    2  502    0 -0.11086146932E+03 -0.10689954985E+02  0.62966628878E+03  0.63944051775E+03  0.00000000000E+00 0. -1.
         22    1    3    3    0    0  0.94508357363E+01 -0.24572492192E+02  0.32818166779E+02  0.42073242558E+02  0.00000000000E+00 0. -1.
         22    1    3    3    0    0  0.47653071776E+02  0.15850243885E+03  0.22449176843E+03  0.27890929075E+03  0.00000000000E+00 0. -1.
</event>
<event>
 7    1  0.6262315E-006  0.5600018E+02  0.7818608E-02  0.1447820E+00
          2   -1    0    0  502    0  0.00000000000E+00  0.00000000000E+00  0.14436842845E+04  0.14436842845E+04  0.00000000000E+00 0. -1.
          1   -1    0    0  501    0 -0.00000000000E+00 -0.00000000000E+00 -0.16033081812E+04  0.16033081812E+04  0.00000000000E+00 0. -1.
         25    2    1    2    0    0 -0.31993053025E+02 -0.34545341766E+02 -0.24456118996E+02  0.13578599541E+03  0.12499119454E+03 0.  0.
          2    1    1    2  501    0 -0.62944502519E+01  0.55881336833E+02 -0.15223218175E+04  0.15233601215E+04  0.00000000000E+00 0. -1.
          1    1    1    2  502    0  0.38287503277E+02 -0.21335995067E+02  0.13871540398E+04  0.13878463487E+04  0.00000000000E+00 0. -1.
         22    1    3    3    0    0  0.59436731312E+01 -0.49359227003E+02  0.37060852070E+02  0.62009412969E+02  0.00000000000E+00 0.  1.
         22    1    3    3    0    0 -0.37936726157E+02  0.14813885237E+02 -0.61516971067E+02  0.73776582440E+02  0.00000000000E+00 0.  1.
</event>
<event>
 7    1  0.6262315E-006  0.2214211E+03  0.7818608E-02  0.1179370E+00
          2   -1    0    0  502    0  0.00000000000E+00  0.00000000000E+00  0.31796451219E+04  0.31796451219E+04  0.00000000000E+00 0. -1.
          1   -1    0    0  501    0 -0.00000000000E+00 -0.00000000000E+00 -0.23105356835E+03  0.23105356835E+03  0.00000000000E+00 0. -1.
         25    2    1    2    0    0  0.27542641694E+03 -0.20171237762E+03  0.88652535361E+03  0.95817540849E+03  0.12500126566E+03 0.  0.
          2    1    1    2  501    0 -0.16613060057E+03  0.13451391445E+03 -0.13427723474E+03  0.25243562624E+03  0.00000000000E+00 0. -1.
          1    1    1    2  502    0 -0.10929581637E+03  0.67198463170E+02  0.21963434347E+04  0.22000876555E+04  0.00000000000E+00 0. -1.
         22    1    3    3    0    0  0.52826558058E+02 -0.73438027707E+01  0.59333006987E+02  0.79780839764E+02  0.00000000000E+00 0.  1.
         22    1    3    3    0    0  0.22259985888E+03 -0.19436857485E+03  0.82719234662E+03  0.87839456873E+03  0.00000000000E+00 0.  1.
</event>
<event>
 7    1  0.6262315E-006  0.6612006E+02  0.7818608E-02  0.1525914E+00
          2   -1    0    0  502    0  0.00000000000E+00  0.00000000000E+00  0.95341981880E+03  0.95341981880E+03  0.00000000000E+00 0. -1.
          1   -1    0    0  501    0 -0.00000000000E+00 -0.00000000000E+00 -0.10803862870E+03  0.10803862870E+03  0.00000000000E+00 0. -1.
         25    2    1    2    0    0 -0.29775378442E+02  0.53987834926E+02  0.38076409246E+03  0.40547362281E+03  0.12500522070E+03 0.  0.
          2    1    1    2  501    0  0.11529693072E+02 -0.65336122341E+02 -0.83947455954E+02  0.10699961713E+03  0.00000000000E+00 0. -1.
          1    1    1    2  502    0  0.18245685370E+02  0.11348287415E+02  0.54856455360E+03  0.54898520757E+03  0.00000000000E+00 0. -1.
         22    1    3    3    0    0 -0.56297928841E+02  0.30679753719E+02  0.35746764090E+03  0.36317188543E+03  0.00000000000E+00 0. -1.
         22    1    3    3    0    0  0.26522550400E+02  0.23308081207E+02  0.23296451562E+02  0.42301737371E+02  0.00000000000E+00 0. -1.
</event>
<event>
 7    1  0.6262315E-006  0.4901666E+02  0.7818608E-02  0.1468733E+00
          2   -1    0    0  502    0  0.00000000000E+00  0.00000000000E+00  0.30431786116E+04  0.30431786116E+04  0.00000000000E+00 0. -1.
          1   -1    0    0  501    0 -0.00000000000E+00 -0.00000000000E+00 -0.17555780411E+02  0.17555780411E+02  0.00000000000E+00 0. -1.
         25    2    1    2    0    0 -0.96682514804E+01 -0.90465801814E+02  0.46581922983E+03  0.49080855880E+03  0.12501179996E+03 0.  0.
          2    1    1    2  501    0  0.79109290112E+01  0.42268141981E+02  0.90975034509E+02  0.10062621690E+03  0.00000000000E+00 0. -1.
          1    1    1    2  502    0  0.17573224692E+01  0.48197659833E+02  0.24688285669E+04  0.24692996163E+04  0.00000000000E+00 0. -1.
         22    1    3    3    0    0 -0.24446819893E+02 -0.93886416469E+02  0.17910367760E+03  0.20369200654E+03  0.00000000000E+00 0.  1.
         22    1    3    3    0    0  0.14778568412E+02  0.34206146549E+01  0.28671555223E+03  0.28711655226E+03  0.00000000000E+00 0.  1.
</event>
<event>
 7    1  0.6262315E-006  0.7909231E+02  0.7818608E-02  0.1400616E+00
          2   -1    0    0  502    0  0.00000000000E+00  0.00000000000E+00  0.14420639978E+04  0.14420639978E+04  0.00000000000E+00 0. -1.
          1   -1    0    0  501    0 -0.00000000000E+00 -0.00000000000E+00 -0.41034398665E+03  0.41034398665E+03  0.00000000000E+00 0. -1.
         25    2    1    2    0    0  0.10278449070E+03 -0.74575026488E+01  0.37830421194E+03  0.41153286405E+03  0.12499982218E+03 0.  0.
          2    1    1    2  501    0 -0.29530689244E+02  0.33320013242E+02 -0.39102381407E+03  0.39355038821E+03  0.00000000000E+00 0. -1.
          1    1    1    2  502    0 -0.73253801458E+02 -0.25862510594E+02  0.10444396133E+04  0.10473247322E+04  0.00000000000E+00 0. -1.
         22    1    3    3    0    0  0.82590708792E+02 -0.16092419087E+02  0.93123379057E+02  0.12550758885E+03  0.00000000000E+00 0.  1.
         22    1    3    3    0    0  0.20193781910E+02  0.86349164382E+01  0.28518083289E+03  0.28602527520E+03  0.00000000000E+00 0.  1.
</event>
<event>
 7    1  0.6262315E-006  0.7552276E+02  0.7818608E-02  0.1469861E+00
          2   -1    0    0  502    0  0.00000000000E+00  0.00000000000E+00  0.14704079860E+03  0.14704079860E+03  0.00000000000E+00 0. -1.
          1   -1    0    0  501    0 -0.00000000000E+00 -0.00000000000E+00 -0.48477215633E+03  0.48477215633E+03  0.00000000000E+00 0. -1.
         25    2    1    2    0    0 -0.87258799390E+02  0.86605324868E+01  0.48507772001E+02  0.16021147335E+03  0.12500243739E+03 0.  0.
          2    1    1    2  501    0  0.21890394524E+02  0.16949105629E+02 -0.39924264501E+03  0.40020138824E+03  0.00000000000E+00 0. -1.
          1    1    1    2  502    0  0.65368404866E+02 -0.25609638116E+02  0.13003515282E+02  0.71400093340E+02  0.00000000000E+00 0. -1.
         22    1    3    3    0    0 -0.36167063097E+02  0.44329258865E+02  0.73442938520E+02  0.93096750013E+02  0.00000000000E+00 0. -1.
         22    1    3    3    0    0 -0.51091736293E+02 -0.35668726378E+02 -0.24935166519E+02  0.67114723333E+02  0.00000000000E+00 0. -1.
</event>
<event>
 7    1  0.6262315E-006  0.1419507E+03  0.7818608E-02  0.1325072E+00
          2   -1    0    0  502    0  0.00000000000E+00  0.00000000000E+00  0.37453471509E+03  0.37453471509E+03  0.00000000000E+00 0. -1.
          1   -1    0    0  501    0 -0.00000000000E+00 -0.00000000000E+00 -0.21946273708E+03  0.21946273708E+03  0.00000000000E+00 0. -1.
         25    2    1    2    0    0  0.12649349039E+03 -0.10023877902E+03 -0.28491364452E+02  0.20611874788E+03  0.12499905779E+03 0.  0.
          2    1    1    2  501    0 -0.80292366193E+02  0.10704420187E+03 -0.55083969046E+02  0.14470511003E+03  0.00000000000E+00 0. -1.
          1    1    1    2  502    0 -0.46201124198E+02 -0.68054228508E+01  0.23864731150E+03  0.24317359426E+03  0.00000000000E+00 0. -1.
         22    1    3    3    0    0  0.71092774164E+02  0.16205881624E+02 -0.25122008903E+02  0.77122814192E+02  0.00000000000E+00 0. -1.
         22    1    3    3    0    0  0.55400716228E+02 -0.11644466064E+03 -0.33693555488E+01  0.12899593369E+03  0.00000000000E+00 0. -1.
</event>
<event>
 7    1  0.6262315E-006  0.6504732E+02  0.7818608E-02  0.1512406E+00
          2   -1    0    0  502    0  0.00000000000E+00  0.00000000000E+00  0.60342670778E+03  0.60342670778E+03  0.00000000000E+00 0. -1.
          1   -1    0    0  501    0 -0.00000000000E+00 -0.00000000000E+00 -0.11726225696E+03  0.11726225696E+03  0.00000000000E+00 0. -1.
         25    2    1    2    0    0 -0.79504372823E+02 -0.43019406196E+01 -0.11651295337E+02  0.14866074169E+03  0.12499924578E+03 0.  0.
          2    1    1    2  501    0  0.59550361817E+02 -0.88677353153E+01 -0.12218182823E+02  0.61434243819E+02  0.00000000000E+00 0. -1.
          1    1    1    2  502    0  0.19954011007E+02  0.13169675935E+02  0.51003392898E+03  0.51059397924E+03  0.00000000000E+00 0. -1.
         22    1    3    3    0    0 -0.84711312128E+02  0.28209067931E+01 -0.57207612456E+02  0.10225788400E+03  0.00000000000E+00 0. -1.
         22    1    3    3    0    0  0.52069393042E+01 -0.71228474127E+01  0.45556317118E+02  0.46402857688E+02  0.00000000000E+00 0. -1.
</event>
<event>
 7    1  0.6262315E-006  0.2837736E+03  0.7818608E-02  0.1212475E+00
          2   -1    0    0  502    0  0.00000000000E+00  0.00000000000E+00  0.14935943698E+04  0.14935943698E+04  0.00000000000E+00 0. -1.
          1   -1    0    0  501    0 -0.00000000000E+00 -0.00000000000E+00 -0.29998436610E+03  0.29998436610E+03  0.00000000000E+00 0. -1.
         25    2    1    2    0    0  0.20279114900E+03 -0.17763908866E+03  0.83324222283E+03  0.88464526357E+03  0.12499897806E+03 0.  0.
          2    1    1    2  501    0 -0.16454728897E+02 -0.67728632060E+02 -0.23145129028E+03  0.24171807023E+03  0.00000000000E+00 0. -1.
          1    1    1    2  502    0 -0.18633642010E+03  0.24536772072E+03  0.59181907118E+03  0.66721540213E+03  0.00000000000E+00 0. -1.
         22    1    3    3    0    0  0.66546910560E+02 -0.91497000505E+01  0.32949957425E+03  0.33627693609E+03  0.00000000000E+00 0. -1.
         22    1    3    3    0    0  0.13624423844E+03 -0.16848938861E+03  0.50374264858E+03  0.54836832748E+03  0.00000000000E+00 0. -1.
</event>
<event>
 7    1  0.6262315E-006  0.8470898E+02  0.7818608E-02  0.1330487E+00
          2   -1    0    0  502    0  0.00000000000E+00  0.00000000000E+00  0.17918235352E+04  0.17918235352E+04  0.00000000000E+00 0. -1.
          1   -1    0    0  501    0 -0.00000000000E+00 -0.00000000000E+00 -0.64569389245E+03  0.64569389245E+03  0.00000000000E+00 0. -1.
         25    2    1    2    0    0 -0.10725887054E+03 -0.16476028439E+02  0.49311090802E+03  0.52015430639E+03  0.12500484001E+03 0.  0.
          2    1    1    2  501    0  0.52165571301E+02  0.66780318974E+02 -0.62824247515E+03  0.63393175138E+03  0.00000000000E+00 0. -1.
          1    1    1    2  502    0  0.55093299238E+02 -0.50304290535E+02  0.12812612099E+04  0.12834313699E+04  0.00000000000E+00 0. -1.
         22    1    3    3    0    0 -0.12337255146E+03  0.13667836186E+02  0.31086311202E+03  0.33472895096E+03  0.00000000000E+00 0.  1.
         22    1    3    3    0    0  0.16113680921E+02 -0.30143864625E+02  0.18224779600E+03  0.18542535543E+03  0.00000000000E+00 0.  1.
</event>
<event>
 7    1  0.6262315E-006  0.1115545E+03  0.7818608E-02  0.1348339E+00
          2   -1    0    0  502    0  0.00000000000E+00  0.00000000000E+00  0.85245668917E+03  0.85245668917E+03  0.00000000000E+00 0. -1.
          1   -1    0    0  501    0 -0.00000000000E+00 -0.00000000000E+00 -0.16723066206E+03  0.16723066206E+03  0.00000000000E+00 0. -1.
         25    2    1    2    0    0  0.52463815013E+00 -0.74089454629E+02  0.13310731172E+03  0.19706073169E+03  0.12500341199E+03 0.  0.
          2    1    1    2  501    0  0.25899110252E+02  0.11479133146E+03 -0.10859866853E+03  0.16012958658E+03  0.00000000000E+00 0. -1.
          1    1    1    2  502    0 -0.26423748402E+02 -0.40701876834E+02  0.66071738392E+03  0.66249703295E+03  0.00000000000E+00 0. -1.
         22    1    3    3    0    0 -0.81456815504E+01 -0.73051258220E+02  0.15605960760E+03  0.17250344802E+03  0.00000000000E+00 0. -1.
         22    1    3    3    0    0  0.86703197005E+01 -0.10381964097E+01 -0.22952295876E+02  0.24557283674E+02  0.00000000000E+00 0. -1.
</event>
<event>
 7    1  0.6262315E-006  0.9835892E+02  0.7818608E-02  0.1303545E+00
          2   -1    0    0  502    0  0.00000000000E+00  0.00000000000E+00  0.12727333435E+04  0.12727333435E+04  0.00000000000E+00 0. -1.
          1   -1    0    0  501    0 -0.00000000000E+00 -0.00000000000E+00 -0.83156137438E+03  0.83156137438E+03  0.00000000000E+00 0. -1.
         25    2    1    2    0    0 -0.62182415590E+02 -0.15931398975E+03  0.49207167979E+03  0.53573025355E+03  0.12499906552E+03 0.  0.
          2    1    1    2  501    0  0.34995793539E+02  0.73968522678E+02 -0.80500749568E+03  0.80915580453E+03  0.00000000000E+00 0. -1.
          1    1    1    2  502    0  0.27186622051E+02  0.85345467077E+02  0.75410778505E+03  0.75940865984E+03  0.00000000000E+00 0. -1.
         22    1    3    3    0    0  0.87508273652E+01 -0.56519046470E+02  0.30814522555E+03  0.31340781678E+03  0.00000000000E+00 0. -1.
         22    1    3    3    0    0 -0.70933242956E+02 -0.10279494328E+03  0.18392645424E+03  0.22232243677E+03  0.00000000000E+00 0. -1.
</event>
<event>
 7    1  0.6262315E-006  0.8011512E+02  0.7818608E-02  0.1378793E+00
          2   -1    0    0  502    0  0.00000000000E+00  0.00000000000E+00  0.46839642754E+03  0.46839642754E+03  0.00000000000E+00 0. -1.
          1   -1    0    0  501    0 -0.00000000000E+00 -0.00000000000E+00 -0.54419075290E+03  0.54419075290E+03  0.00000000000E+00 0. -1.
         25    2    1    2    0    0 -0.11057262268E+01 -0.55673484630E+02 -0.54938731878E+02  0.14744711695E+03  0.12498651333E+03 0.  0.
          2    1    1    2  501    0  0.51726646782E+02 -0.82698868496E+01 -0.43748171274E+03  0.44060672487E+03  0.00000000000E+00 0. -1.
          1    1    1    2  502    0 -0.50620920555E+02  0.63943371480E+02  0.41662611926E+03  0.42453333862E+03  0.00000000000E+00 0. -1.
         22    1    3    3    0    0 -0.46213386922E+02 -0.57042225990E+02  0.36370959823E+01  0.73503204991E+02  0.00000000000E+00 0.  1.
         22    1    3    3    0    0  0.45107660695E+02  0.13687413604E+01 -0.58575827860E+02  0.73943911959E+02  0.00000000000E+00 0.  1.
</event>
<event>
 7    1  0.6262315E-006  0.3456984E+03  0.7818608E-02  0.1136839E+00
          2   -1    0    0  502    0  0.00000000000E+00  0.00000000000E+00  0.20658919539E+04  0.20658919539E+04  0.00000000000E+00 0. -1.
          1   -1    0    0  501    0 -0.00000000000E+00 -0.00000000000E+00 -0.12772446667E+04  0.12772446667E+04  0.00000000000E+00 0. -1.
         25    2    1    2    0    0 -0.11842202257E+03  0.20292211807E+03  0.11075246768E+03  0.28825419876E+03  0.12499285008E+03 0.  0.
          2    1    1    2  501    0 -0.88372602283E+02  0.10213916584E+03 -0.11663649694E+04  0.11741590045E+04  0.00000000000E+00 0. -1.
          1    1    1    2  502    0  0.20679462485E+03 -0.30506128391E+03  0.18442597888E+04  0.18807234174E+04  0.00000000000E+00 0. -1.
         22    1    3    3    0    0 -0.51356464514E+02  0.14011566249E+03  0.12575866761E+03  0.19515411295E+03  0.00000000000E+00 0. -1.
         22    1    3    3    0    0 -0.67065558054E+02  0.62806455583E+02 -0.15006199937E+02  0.93100085803E+02  0.00000000000E+00 0. -1.
</event>
<event>
 7    1  0.6262315E-006  0.9636106E+02  0.7818608E-02  0.1452771E+00
          2   -1    0    0  502    0  0.00000000000E+00  0.00000000000E+00  0.19208848746E+04  0.19208848746E+04  0.00000000000E+00 0. -1.
          1   -1    0    0  501    0 -0.00000000000E+00 -0.00000000000E+00 -0.52623028683E+02  0.52623028683E+02  0.00000000000E+00 0. -1.
         25    2    1    2    0    0 -0.71733580468E+02  0.24469341349E+02  0.24884354046E+03  0.28860151285E+03  0.12499308124E+03 0.  0.
          2    1    1    2  501    0 -0.16304328295E+02  0.18368031391E+02 -0.26469657289E+02  0.36108980259E+02  0.00000000000E+00 0. -1.
          1    1    1    2  502    0  0.88037908762E+02 -0.42837372741E+02  0.16458879628E+04  0.16487974102E+04  0.00000000000E+00 0. -1.
         22    1    3    3    0    0 -0.70608252221E+02  0.66561484706E+02  0.20990859901E+03  0.23125219235E+03  0.00000000000E+00 0.  1.
         22    1    3    3    0    0 -0.11253282460E+01 -0.42092143357E+02  0.38934941443E+02  0.57349320495E+02  0.00000000000E+00 0.  1.
</event>
<event>
 7    1  0.6262315E-006  0.1033708E+03  0.7818608E-02  0.1412887E+00
          2   -1    0    0  502    0  0.00000000000E+00  0.00000000000E+00  0.81665405595E+03  0.81665405595E+03  0.00000000000E+00 0. -1.
          1   -1    0    0  501    0 -0.00000000000E+00 -0.00000000000E+00 -0.18944978442E+04  0.18944978442E+04  0.00000000000E+00 0. -1.
         25    2    1    2    0    0 -0.83532777176E+02 -0.10097281300E+03 -0.21208104404E+03  0.27888559484E+03  0.12500228775E+03 0.  0.
          2    1    1    2  501    0  0.72186067326E+02  0.72187276359E+02 -0.16471280340E+04  0.16502886388E+04  0.00000000000E+00 0. -1.
          1    1    1    2  502    0  0.11346709850E+02  0.28785536642E+02  0.78136528971E+03  0.78197766651E+03  0.00000000000E+00 0. -1.
         22    1    3    3    0    0 -0.26558944706E+02 -0.33958117461E+02 -0.18026477367E+03  0.18534810469E+03  0.00000000000E+00 0. -1.
         22    1    3    3    0    0 -0.56973832470E+02 -0.67014695540E+02 -0.31816270370E+02  0.93537490157E+02  0.00000000000E+00 0. -1.
</event>
<event>
 7    1  0.6262315E-006  0.1515486E+03  0.7818608E-02  0.1293408E+00
          2   -1    0    0  502    0  0.00000000000E+00  0.00000000000E+00  0.86523074013E+03  0.86523074013E+03  0.00000000000E+00 0. -1.
          1   -1    0    0  501    0 -0.00000000000E+00 -0.00000000000E+00 -0.11778025911E+04  0.11778025911E+04  0.00000000000E+00 0. -1.
         25    2    1    2    0    0 -0.14959470856E+03  0.71149795642E+02  0.14204648105E+03  0.25147787281E+03  0.12499218970E+03 0.  0.
          2    1    1    2  501    0  0.10518724179E+03 -0.10896119717E+03 -0.11166932777E+04  0.11269164897E+04  0.00000000000E+00 0. -1.
          1    1    1    2  502    0  0.44407466771E+02  0.37811401532E+02  0.66207494562E+03  0.66463896877E+03  0.00000000000E+00 0. -1.
         22    1    3    3    0    0 -0.21634106545E+02 -0.34774358413E+02  0.34880253292E+02  0.53795191595E+02  0.00000000000E+00 0.  1.
         22    1    3    3    0    0 -0.12796060201E+03  0.10592415405E+03  0.10716622776E+03  0.19768268122E+03  0.00000000000E+00 0.  1.
</event>
<event>
 7    1  0.6262315E-006  0.5600763E+02  0.7818608E-02  0.1510217E+00
          2   -1    0    0  502    0  0.00000000000E+00  0.00000000000E+00  0.80734104274E+03  0.80734104274E+03  0.00000000000E+00 0. -1.
          1   -1    0    0  501    0 -0.00000000000E+00 -0.00000000000E+00 -0.16307258965E+03  0.16307258965E+03  0.00000000000E+00 0. -1.
         25    2    1    2    0    0 -0.47850706084E+02 -0.41178922941E+02 -0.59309862725E+02  0.15207907379E+03  0.12499996441E+03 0.  0.
          2    1    1    2  501    0  0.53704278166E+02  0.13612199480E+02 -0.43676572751E+02  0.70548454804E+02  0.00000000000E+00 0. -1.
          1    1    1    2  502    0 -0.58535720815E+01  0.27566723461E+02  0.74725488856E+03  0.74778610380E+03  0.00000000000E+00 0. -1.
         22    1    3    3    0    0 -0.87261517138E+02 -0.12767755959E+02 -0.53498298658E+02  0.10314870782E+03  0.00000000000E+00 0. -1.
         22    1    3    3    0    0  0.39410811054E+02 -0.28411166982E+02 -0.58115640680E+01  0.48930365972E+02  0.00000000000E+00 0. -1.
</event>
<event>
 7    1  0.6262315E-006  0.5783023E+02  0.7818608E-02  0.1522630E+00
          2   -1    0    0  502    0  0.00000000000E+00  0.00000000000E+00  0.35264116697E+03  0.35264116697E+03  0.00000000000E+00 0. -1.
          1   -1    0    0  501    0 -0.00000000000E+00 -0.00000000000E+00 -0.50779114967E+03  0.50779114967E+03  0.00000000000E+00 0. -1.
         25    2    1    2    0    0  0.76727890439E+02 -0.69490610173E+00  0.57754198155E+02  0.15763499136E+03  0.12500236411E+03 0.  0.
          2    1    1    2  501    0 -0.21400245595E+02  0.13133914641E+02 -0.45421713249E+03  0.45491062163E+03  0.00000000000E+00 0. -1.
          1    1    1    2  502    0 -0.55327644844E+02 -0.12439008539E+02  0.24131295163E+03  0.24788670364E+03  0.00000000000E+00 0. -1.
         22    1    3    3    0    0  0.34688901318E+02  0.60933402985E+02  0.40832730992E+02  0.81138840232E+02  0.00000000000E+00 0. -1.
         22    1    3    3    0    0  0.42038989121E+02 -0.61628309087E+02  0.16921467162E+02  0.76496151133E+02  0.00000000000E+00 0. -1.
</event>
<event>
 7    1  0.6262315E-006  0.6593234E+02  0.7818608E-02  0.1401823E+00
          2   -1    0    0  502    0  0.00000000000E+00  0.00000000000E+00  0.13939029980E+04  0.13939029980E+04  0.00000000000E+00 0. -1.
          1   -1    0    0  501    0 -0.00000000000E+00 -0.00000000000E+00 -0.36242871332E+04  0.36242871332E+04  0.00000000000E+00 0. -1.
         25    2    1    2    0    0 -0.55179415344E+02 -0.40003383690E+02  0.59687177328E+03  0.61361751501E+03  0.12500200960E+03 0.  0.
          2    1    1    2  501    0  0.87489151089E+01  0.65358791860E+02 -0.36147260454E+04  0.36153274677E+04  0.00000000000E+00 0. -1.
          1    1    1    2  502    0  0.46430500235E+02 -0.25355408170E+02  0.78747013692E+03  0.78924514862E+03  0.00000000000E+00 0. -1.
         22    1    3    3    0    0 -0.68873640647E+02 -0.12306484961E+02  0.14821912704E+03  0.16390221954E+03  0.00000000000E+00 0.  1.
         22    1    3    3    0    0  0.13694225303E+02 -0.27696898729E+02  0.44865264624E+03  0.44971529547E+03  0.00000000000E+00 0.  1.
</event>
<event>
 7    1  0.6262315E-006  0.2496317E+03  0.7818608E-02  0.1273434E+00
          2   -1    0    0  502    0  0.00000000000E+00  0.00000000000E+00  0.15479045800E+03  0.15479045800E+03  0.00000000000E+00 0. -1.
          1   -1    0    0  501    0 -0.00000000000E+00 -0.00000000000E+00 -0.31640017657E+04  0.31640017657E+04  0.00000000000E+00 0. -1.
         25    2    1    2    0    0 -0.58264902928E+02  0.24933027284E+03 -0.23357625086E+03  0.36843390242E+03  0.12500116648E+03 0.  0.
          2    1    1    2  501    0  0.96418060955E+02 -0.22998772492E+03 -0.28519714397E+04  0.28628538016E+04  0.00000000000E+00 0. -1.
          1    1    1    2  502    0 -0.38153158027E+02 -0.19342547910E+02  0.76336382864E+02  0.87504519746E+02  0.00000000000E+00 0. -1.
         22    1    3    3    0    0  0.32293994348E+02  0.10275438697E+03 -0.12399520754E+03  0.16424426202E+03  0.00000000000E+00 0. -1.
         22    1    3    3    0    0 -0.90558897275E+02  0.14657588587E+03 -0.10958104331E+03  0.20418964040E+03  0.00000000000E+00 0. -1.
</event>
<event>
 7    1  0.6262315E-006  0.1173300E+03  0.7818608E-02  0.1439407E+00
          2   -1    0    0  502    0  0.00000000000E+00  0.00000000000E+00  0.57167445018E+02  0.57167445018E+02  0.00000000000E+00 0. -1.
          1   -1    0    0  501    0 -0.00000000000E+00 -0.00000000000E+00 -0.87818969970E+03  0.87818969970E+03  0.00000000000E+00 0. -1.
         25    2    1    2    0    0  0.74399273191E+02 -0.76795197111E+02 -0.22469674293E+03  0.27847032462E+03  0.12499736501E+03 0.  0.
          2    1    1    2  501    0 -0.68531098510E+02  0.98278363958E+02 -0.61577274992E+03  0.62732067384E+03  0.00000000000E+00 0. -1.
          1    1    1    2  502    0 -0.58681746810E+01 -0.21483166847E+02  0.19447238171E+02  0.29566146254E+02  0.00000000000E+00 0. -1.
         22    1    3    3    0    0  0.67440259616E+02  0.13148433604E+02 -0.13377074109E+03  0.15038510929E+03  0.00000000000E+00 0. -1.
         22    1    3    3    0    0  0.69590135754E+01 -0.89943630715E+02 -0.90926001836E+02  0.12808521533E+03  0.00000000000E+00 0. -1.
</event>
<event>
 7    1  0.6262315E-006  0.1421722E+03  0.7818608E-02  0.1358625E+00
          2   -1    0    0  502    0  0.00000000000E+00  0.00000000000E+00  0.50237696310E+02  0.50237696310E+02  0.00000000000E+00 0. -1.
          1   -1    0    0  501    0 -0.00000000000E+00 -0.00000000000E+00 -0.13681904430E+04  0.13681904430E+04  0.00000000000E+00 0. -1.
         25    2    1    2    0    0  0.90421372590E+02 -0.66734157245E+02 -0.77372747510E+03  0.79177619073E+03  0.12500343242E+03 0.  0.
          2    1    1    2  501    0  0.27442278872E+02 -0.21551825215E+02 -0.45102929045E+03  0.45237703377E+03  0.00000000000E+00 0. -1.
          1    1    1    2  502    0 -0.11786365146E+03  0.88285982460E+02 -0.93195981161E+02  0.17427491483E+03  0.00000000000E+00 0. -1.
         22    1    3    3    0    0  0.73258452812E+02 -0.44037597032E+02 -0.20198888197E+03  0.21932993253E+03  0.00000000000E+00 0. -1.
         22    1    3    3    0    0  0.17162919778E+02 -0.22696560213E+02 -0.57173859313E+03  0.57244625821E+03  0.00000000000E+00 0. -1.
</event>
<event>
 7    1  0.6262315E-006  0.4566648E+02  0.7818608E-02  0.1547568E+00
          2   -1    0    0  502    0  0.00000000000E+00  0.00000000000E+00  0.37746365673E+03  0.37746365673E+03  0.00000000000E+00 0. -1.
          1   -1    0    0  501    0 -0.00000000000E+00 -0.00000000000E+00 -0.37047013989E+03  0.37047013989E+03  0.00000000000E+00 0. -1.
         25    2    1    2    0    0 -0.18976627357E+02 -0.26051667525E+02  0.33183096556E+03  0.35605288390E+03  0.12499225840E+03 0.  0.
          2    1    1    2  501    0  0.50264265591E+00  0.45747372520E+02 -0.35118525318E+03  0.35415273088E+03  0.00000000000E+00 0. -1.
          1    1    1    2  502    0  0.18473984701E+02 -0.19695704995E+02  0.26347804444E+02  0.37728181841E+02  0.00000000000E+00 0. -1.
         22    1    3    3    0    0 -0.44829567484E+02  0.35549118041E+02  0.10484458243E+03  0.11943959301E+03  0.00000000000E+00 0. -1.
         22    1    3    3    0    0  0.25852940126E+02 -0.61600785566E+02  0.22698638313E+03  0.23661329088E+03  0.00000000000E+00 0. -1.
</event>
<event>
 7    1  0.6262315E-006  0.2151264E+03  0.7818608E-02  0.1213089E+00
          2   -1    0    0  502    0  0.00000000000E+00  0.00000000000E+00  0.35074343826E+03  0.35074343826E+03  0.00000000000E+00 0. -1.
          1   -1    0    0  501    0 -0.00000000000E+00 -0.00000000000E+00 -0.79307136846E+03  0.79307136846E+03  0.00000000000E+00 0. -1.
         25    2    1    2    0    0  0.22751810446E+03 -0.15855684774E+03  0.35412116311E+02  0.30624370766E+03  0.12500571459E+03 0.  0.
          2    1    1    2  501    0 -0.86945191697E+02  0.27997740702E+02 -0.60206845819E+03  0.60895793630E+03  0.00000000000E+00 0. -1.
          1    1    1    2  502    0 -0.14057291276E+03  0.13055910704E+03  0.12432841167E+03  0.22861316275E+03  0.00000000000E+00 0. -1.
         22    1    3    3    0    0  0.25500436652E+01  0.96389430999E+01  0.23010553499E+02  0.25077829234E+02  0.00000000000E+00 0. -1.
         22    1    3    3    0    0  0.22496806079E+03 -0.16819579084E+03  0.12401562812E+02  0.28116587843E+03  0.00000000000E+00 0. -1.
</event>
<event>
 7    1  0.6262315E-006  0.9544369E+02  0.7818608E-02  0.1300790E+00
          2   -1    0    0  502    0  0.00000000000E+00  0.00000000000E+00  0.22186402265E+04  0.22186402265E+04  0.00000000000E+00 0. -1.
          1   -1    0    0  501    0 -0.00000000000E+00 -0.00000000000E+00 -0.94347734409E+03  0.94347734409E+03  0.00000000000E+00 0. -1.
         25    2    1    2    0    0 -0.75640781821E+02 -0.36505807125E+02  0.66445322587E+03  0.68130888872E+03  0.12501804134E+03 0.  0.
          2    1    1    2  501    0  0.11830256135E+02  0.94890131939E+02 -0.93138976179E+03  0.93628573655E+03  0.00000000000E+00 0. -1.
          1    1    1    2  502    0  0.63810525686E+02 -0.58384324814E+02  0.15420994183E+04  0.15445229453E+04  0.00000000000E+00 0. -1.
         22    1    3    3    0    0 -0.10510793100E+03 -0.28359596800E+02  0.38213193292E+03  0.39733708365E+03  0.00000000000E+00 0.  1.
         22    1    3    3    0    0  0.29467149179E+02 -0.81462103251E+01  0.28232129295E+03  0.28397180507E+03  0.00000000000E+00 0.  1.
</event>
<event>
 7    1  0.6262315E-006  0.1991303E+03  0.7818608E-02  0.1349112E+00
          2   -1    0    0  502    0  0.00000000000E+00  0.00000000000E+00  0.24871963524E+04  0.24871963524E+04  0.00000000000E+00 0. -1.
          1   -1    0    0  501    0 -0.00000000000E+00 -0.00000000000E+00 -0.97625178983E+02  0.97625178983E+02  0.00000000000E+00 0. -1.
         25    2    1    2    0    0  0.10685326016E+03 -0.14485349465E+03  0.83446847890E+03  0.86276435710E+03  0.12499815796E+03 0.  0.
          2    1    1    2  501    0 -0.10610431433E+03  0.17184934054E+03  0.38979255093E+02  0.20569322714E+03  0.00000000000E+00 0. -1.
          1    1    1    2  502    0 -0.74894582847E+00 -0.26995845882E+02  0.15161234394E+04  0.15163639471E+04  0.00000000000E+00 0. -1.
         22    1    3    3    0    0  0.11824060497E+03 -0.82963647894E+02  0.43460901971E+03  0.45798341406E+03  0.00000000000E+00 0.  1.
         22    1    3    3    0    0 -0.11387344810E+02 -0.61889846760E+02  0.39985945919E+03  0.40478094305E+03  0.00000000000E+00 0.  1.
</event>
<event>
 7    1  0.6262315E-006  0.7181757E+02  0.7818608E-02  0.1386750E+00
          2   -1    0    0  502    0  0.00000000000E+00  0.00000000000E+00  0.14607095996E+04  0.14607095996E+04  0.00000000000E+00 0. -1.
          1   -1    0    0  501    0 -0.00000000000E+00 -0.00000000000E+00 -0.36064177567E+02  0.36064177567E+02  0.00000000000E+00 0. -1.
         25    2    1    2    0    0 -0.45158279993E+02 -0.54406409885E+02  0.31188328383E+03  0.34335985529E+03  0.12500191919E+03 0.  0.
          2    1    1    2  501    0 -0.53637417129E+01  0.75578593584E+02  0.53539908457E+02  0.92776157125E+02  0.00000000000E+00 0. -1.
          1    1    1    2  502    0  0.50522021706E+02 -0.21172183698E+02  0.10592222297E+04  0.10606377648E+04  0.00000000000E+00 0. -1.
         22    1    3    3    0    0 -0.12022787158E+02 -0.61098885987E+02  0.30169348509E+03  0.30805288543E+03  0.00000000000E+00 0. -1.
         22    1    3    3    0    0 -0.33135492835E+02  0.66924761018E+01  0.10189798743E+02  0.35306969853E+02  0.00000000000E+00 0. -1.
</event>
<event>
 7    1  0.6262315E-006  0.1223581E+03  0.7818608E-02  0.1419699E+00
          2   -1    0    0  502    0  0.00000000000E+00  0.00000000000E+00  0.38534993630E+03  0.38534993630E+03  0.00000000000E+00 0. -1.
          1   -1    0    0  501    0 -0.00000000000E+00 -0.00000000000E+00 -0.46608624135E+03  0.46608624135E+03  0.00000000000E+00 0. -1.
         25    2    1    2    0    0  0.74558545822E+02  0.68576481350E+02  0.59168281825E+02  0.17142995193E+03  0.12500252916E+03 0.  0.
          2    1    1    2  501    0 -0.83706116859E+02 -0.91626396548E+02 -0.39995945903E+03  0.41877163158E+03  0.00000000000E+00 0. -1.
          1    1    1    2  502    0  0.91475710369E+01  0.23049915199E+02  0.26005487215E+03  0.26123459414E+03  0.00000000000E+00 0. -1.
         22    1    3    3    0    0  0.35082694993E+02  0.10149162069E+03  0.26761435372E+02  0.11066850944E+03  0.00000000000E+00 0. -1.
         22    1    3    3    0    0  0.39475850829E+02 -0.32915139341E+02  0.32406846454E+02  0.60761442491E+02  0.00000000000E+00 0. -1.
</event>
<event>
 7    1  0.6262315E-006  0.1343588E+03  0.7818608E-02  0.1401884E+00
          2   -1    0    0  502    0  0.00000000000E+00  0.00000000000E+00  0.21195747109E+03  0.21195747109E+03  0.00000000000E+00 0. -1.
          1   -1    0    0  501    0 -0.00000000000E+00 -0.00000000000E+00 -0.43643816763E+03  0.43643816763E+03  0.00000000000E+00 0. -1.
         25    2    1    2    0    0  0.15361145622E+03 -0.94081776172E+01 -0.11945358926E+03  0.23147121163E+03  0.12499907414E+03 0.  0.
          2    1    1    2  501    0 -0.12881122899E+03  0.17770347575E+01 -0.24380214907E+03  0.27574440784E+03  0.00000000000E+00 0. -1.
          1    1    1    2  502    0 -0.24800227228E+02  0.76311428597E+01  0.13877504179E+03  0.14118001925E+03  0.00000000000E+00 0. -1.
         22    1    3    3    0    0  0.73233054974E+02  0.23235874870E+02  0.80508485810E+01  0.77251552636E+02  0.00000000000E+00 0.  1.
         22    1    3    3    0    0  0.80378401243E+02 -0.32644052487E+02 -0.12750443784E+03  0.15421965899E+03  0.00000000000E+00 0.  1.
</event>
<event>
 7    1  0.6262315E-006  0.4335981E+02  0.7818608E-02  0.1549611E+00
          2   -1    0    0  502    0  0.00000000000E+00  0.00000000000E+00  0.81188586688E+03  0.81188586688E+03  0.00000000000E+00 0. -1.
          1   -1    0    0  501    0 -0.00000000000E+00 -0.00000000000E+00 -0.12963195888E+03  0.12963195888E+03  0.00000000000E+00 0. -1.
         25    2    1    2    0    0 -0.11376763428E+02  0.47213358451E+02  0.15714607454E+03  0.20658713791E+03  0.12499929937E+03 0.  0.
          2    1    1    2  501    0 -0.15863411109E+02 -0.40442884927E+02 -0.10008569252E+03  0.10910738105E+03  0.00000000000E+00 0. -1.
          1    1    1    2  502    0  0.27240174538E+02 -0.67704735245E+01  0.62519352597E+03  0.62582330680E+03  0.00000000000E+00 0. -1.
         22    1    3    3    0    0 -0.16627052042E+02  0.18495859670E+02  0.17202990556E+03  0.17381842276E+03  0.00000000000E+00 0.  1.
         22    1    3    3    0    0  0.52502886133E+01  0.28717498781E+02 -0.14883831014E+02  0.32768715148E+02  0.00000000000E+00 0.  1.
</event>
<event>
 7    1  0.6262315E-006  0.7875086E+02  0.7818608E-02  0.1443999E+00
          2   -1    0    0  502    0  0.00000000000E+00  0.00000000000E+00  0.11945915242E+04  0.11945915242E+04  0.00000000000E+00 0. -1.
          1   -1    0    0  501    0 -0.00000000000E+00 -0.00000000000E+00 -0.23733724955E+02  0.23733724955E+02  0.00000000000E+00 0. -1.
         25    2    1    2    0    0 -0.37457863587E+02  0.74760268601E+02  0.28100320513E+03  0.31871659470E+03  0.12500110856E+03 0.  0.
          2    1    1    2  501    0  0.54364566135E+01 -0.76403266192E+02  0.32739032356E+03  0.33623122714E+03  0.00000000000E+00 0. -1.
          1    1    1    2  502    0  0.32021406973E+02  0.16429975916E+01  0.56246427054E+03  0.56337742729E+03  0.00000000000E+00 0. -1.
         22    1    3    3    0    0  0.34957418528E+02  0.37613900523E+02  0.42328704962E+02  0.66547320656E+02  0.00000000000E+00 0. -1.
         22    1    3    3    0    0 -0.72415282114E+02  0.37146368078E+02  0.23867450016E+03  0.25216927405E+03  0.00000000000E+00 0. -1.
</event>
<event>
 7    1  0.6262315E-006  0.1067820E+03  0.7818608E-02  0.1413598E+00
          2   -1    0    0  502    0  0.00000000000E+00  0.00000000000E+00  0.20464724081E+02  0.20464724081E+02  0.00000000000E+00 0. -1.
          1   -1    0    0  501    0 -0.00000000000E+00 -0.00000000000E+00 -0.18646382542E+04  0.18646382542E+04  0.00000000000E+00 0. -1.
         25    2    1    2    0    0 -0.25876671542E+02 -0.10969572464E+03 -0.67212950003E+03  0.69288130417E+03  0.12499473075E+03 0.  0.
          2    1    1    2  501    0 -0.36902112301E+01  0.10607427079E+03 -0.11506798261E+04  0.11555645507E+04  0.00000000000E+00 0. -1.
          1    1    1    2  502    0  0.29566882772E+02  0.36214538492E+01 -0.21364203918E+02  0.36657123372E+02  0.00000000000E+00 0. -1.
         22    1    3    3    0    0  0.66363459539E+01  0.19511035609E+01  0.31942348771E+01  0.76191225988E+01  0.00000000000E+00 0.  1.
         22    1    3    3    0    0 -0.32513017496E+02 -0.11164682820E+03 -0.67532373491E+03  0.68526218157E+03  0.00000000000E+00 0.  1.
</event>
<event>
 7    1  0.6262315E-006  0.8416736E+02  0.7818608E-02  0.1406851E+00
          2   -1    0    0  502    0  0.00000000000E+00  0.00000000000E+00  0.91676097338E+03  0.91676097338E+03  0.00000000000E+00 0. -1.
          1   -1    0    0  501    0 -0.00000000000E+00 -0.00000000000E+00 -0.11588383838E+04  0.11588383838E+04  0.00000000000E+00 0. -1.
         25    2    1    2    0    0  0.57634837138E+02 -0.27217487541E+02 -0.16672072413E+03  0.21790726268E+03  0.12500083678E+03 0.  0.
          2    1    1    2  501    0 -0.86146899326E+02 -0.59947792421E+00 -0.96415774424E+03  0.96799886540E+03  0.00000000000E+00 0. -1.
          1    1    1    2  502    0  0.28512062188E+02  0.27816965465E+02  0.88880105796E+03  0.88969322909E+03  0.00000000000E+00 0. -1.
         22    1    3    3    0    0  0.85870494439E+02  0.93002041435E+01 -0.71650584922E+02  0.11222317912E+03  0.00000000000E+00 0.  1.
         22    1    3    3    0    0 -0.28235657301E+02 -0.36517691685E+02 -0.95070139208E+02  0.10568408356E+03  0.00000000000E+00 0.  1.
</event>
<event>
 7    1  0.6262315E-006  0.1155392E+03  0.7818608E-02  0.1371523E+00
          2   -1    0    0  502    0  0.00000000000E+00  0.00000000000E+00  0.49578979809E+04  0.49578979809E+04  0.00000000000E+00 0. -1.
          1   -1    0    0  501    0 -0.00000000000E+00 -0.00000000000E+00 -0.47503892334E+02  0.47503892334E+02  0.00000000000E+00 0. -1.
         25    2    1    2    0    0  0.86297627999E+02  0.34481236622E+02  0.37630225215E+04  0.37662447793E+04  0.12500001381E+03 0.  0.
          2    1    1    2  501    0 -0.90372632693E+02 -0.72823471050E+02  0.28354239846E+02  0.11947566109E+03  0.00000000000E+00 0. -1.
          1    1    1    2  502    0  0.40750046946E+01  0.38342234428E+02  0.11190173272E+04  0.11196814329E+04  0.00000000000E+00 0. -1.
         22    1    3    3    0    0 -0.15622295532E+02  0.16534399996E+02  0.20344500584E+04  0.20345772246E+04  0.00000000000E+00 0. -1.
         22    1    3    3    0    0  0.10191992353E+03  0.17946836626E+02  0.17285724631E+04  0.17316675547E+04  0.00000000000E+00 0. -1.
</event>
<event>
 7    1  0.6262315E-006  0.1267209E+03  0.7818608E-02  0.1235389E+00
          2   -1    0    0  502    0  0.00000000000E+00  0.00000000000E+00  0.30782522252E+04  0.30782522252E+04  0.00000000000E+00 0. -1.
          1   -1    0    0  501    0 -0.00000000000E+00 -0.00000000000E+00 -0.46907080769E+02  0.46907080769E+02  0.00000000000E+00 0. -1.
         25    2    1    2    0    0 -0.28248257665E+02  0.80993238065E+02  0.27832436597E+03  0.31693186257E+03  0.12499393644E+03 0.  0.
          2    1    1    2  501    0 -0.51251116046E+02 -0.17471755823E+03  0.29185173647E+03  0.34399177045E+03  0.00000000000E+00 0. -1.
          1    1    1    2  502    0  0.79499373711E+02  0.93724320169E+02  0.24611690420E+04  0.24642356730E+04  0.00000000000E+00 0. -1.
         22    1    3    3    0    0 -0.40007417675E+02 -0.99018384948E-01  0.17733018288E+02  0.43761435206E+02  0.00000000000E+00 0.  1.
         22    1    3    3    0    0  0.11759160010E+02  0.81092256450E+02  0.26059134768E+03  0.27317042737E+03  0.00000000000E+00 0.  1.
</event>
<event>
 7    1  0.6262315E-006  0.4776827E+02  0.7818608E-02  0.1509829E+00
          2   -1    0    0  502    0  0.00000000000E+00  0.00000000000E+00  0.22828561325E+04  0.22828561325E+04  0.00000000000E+00 0. -1.
          1   -1    0    0  501    0 -0.00000000000E+00 -0.00000000000E+00 -0.45572952299E+03  0.45572952299E+03  0.00000000000E+00 0. -1.
         25    2    1    2    0    0  0.45680341001E+02 -0.52116413224E+02 -0.28592820610E+03  0.31965985730E+03  0.12499868497E+03 0.  0.
          2    1    1    2  501    0 -0.39943652954E+02  0.19487601359E+02 -0.14958275309E+03  0.15604570498E+03  0.00000000000E+00 0. -1.
          1    1    1    2  502    0 -0.57366880478E+01  0.32628811866E+02  0.22626375687E+04  0.22628800932E+04  0.00000000000E+00 0. -1.
         22    1    3    3    0    0  0.11100485091E+02 -0.33588925733E+02 -0.46743253943E+01  0.35683133537E+02  0.00000000000E+00 0. -1.
         22    1    3    3    0    0  0.34579855910E+02 -0.18527487491E+02 -0.28125388070E+03  0.28397672376E+03  0.00000000000E+00 0. -1.
</event>
<event>
 7    1  0.6262315E-006  0.1045237E+03  0.7818608E-02  0.1369125E+00
          2   -1    0    0  502    0  0.00000000000E+00  0.00000000000E+00  0.16460307555E+04  0.16460307555E+04  0.00000000000E+00 0. -1.
          1   -1    0    0  501    0 -0.00000000000E+00 -0.00000000000E+00 -0.25685523383E+03  0.25685523383E+03  0.00000000000E+00 0. -1.
         25    2    1    2    0    0  0.41505064904E+02 -0.51100245807E+02  0.12437927528E+03  0.18822432761E+03  0.12499715137E+03 0.  0.
          2    1    1    2  501    0 -0.55966831399E+02  0.92100310294E+02 -0.21168520224E+03  0.23754026652E+03  0.00000000000E+00 0. -1.
          1    1    1    2  502    0  0.14461766496E+02 -0.41000064488E+02  0.14764814487E+04  0.14771213952E+04  0.00000000000E+00 0. -1.
         22    1    3    3    0    0  0.58087028900E+02  0.30045185715E+01  0.11764247983E+03  0.13123598256E+03  0.00000000000E+00 0. -1.
         22    1    3    3    0    0 -0.16581963996E+02 -0.54104764378E+02  0.67367954465E+01  0.56988345048E+02  0.00000000000E+00 0. -1.
</event>
<event>
 7    1  0.6262315E-006  0.8949342E+02  0.7818608E-02  0.1399737E+00
          2   -1    0    0  502    0  0.00000000000E+00  0.00000000000E+00  0.68127234923E+03  0.68127234923E+03  0.00000000000E+00 0. -1.
          1   -1    0    0  501    0 -0.00000000000E+00 -0.00000000000E+00 -0.31263315018E+03  0.31263315018E+03  0.00000000000E+00 0. -1.
         25    2    1    2    0    0  0.57229000124E+02 -0.25168630815E+02  0.12376063764E+03  0.18667248994E+03  0.12498521768E+03 0.  0.
          2    1    1    2  501    0 -0.64535480982E+02  0.64112210465E+02 -0.27304300370E+03  0.28779799462E+03  0.00000000000E+00 0. -1.
          1    1    1    2  502    0  0.73064808582E+01 -0.38943579651E+02  0.51792156511E+03  0.51943501486E+03  0.00000000000E+00 0. -1.
         22    1    3    3    0    0  0.89190006776E+02 -0.41185885991E+02  0.64690308061E+02  0.11762640210E+03  0.00000000000E+00 0. -1.
         22    1    3    3    0    0 -0.31961006652E+02  0.16017255176E+02  0.59070329575E+02  0.69046087838E+02  0.00000000000E+00 0. -1.
</event>
<event>
 7    1  0.6262315E-006  0.4451849E+02  0.7818608E-02  0.1532532E+00
          2   -1    0    0  502    0  0.00000000000E+00  0.00000000000E+00  0.16559189699E+03  0.16559189699E+03  0.00000000000E+00 0. -1.
          1   -1    0    0  501    0 -0.00000000000E+00 -0.00000000000E+00 -0.88488214715E+02  0.88488214715E+02  0.00000000000E+00 0. -1.
         25    2    1    2    0    0 -0.19719298088E+02 -0.77843356000E+01  0.39125468704E+02  0.13268908439E+03  0.12500457679E+03 0.  0.
          2    1    1    2  501    0  0.35408252801E+02  0.33996056883E+02 -0.22222998609E+02  0.53882630942E+02  0.00000000000E+00 0. -1.
          1    1    1    2  502    0 -0.15688954713E+02 -0.26211721283E+02  0.60201212182E+02  0.67508396373E+02  0.00000000000E+00 0. -1.
         22    1    3    3    0    0 -0.59497466545E+02  0.34227297169E+02  0.16725117053E+02  0.70648325792E+02  0.00000000000E+00 0.  1.
         22    1    3    3    0    0  0.39778168457E+02 -0.42011632769E+02  0.22400351651E+02  0.62040758600E+02  0.00000000000E+00 0.  1.
</event>
<event>
 7    1  0.6262315E-006  0.7674065E+02  0.7818608E-02  0.1346110E+00
          2   -1    0    0  502    0  0.00000000000E+00  0.00000000000E+00  0.15780693821E+03  0.15780693821E+03  0.00000000000E+00 0. -1.
          1   -1    0    0  501    0 -0.00000000000E+00 -0.00000000000E+00 -0.21140424301E+04  0.21140424301E+04  0.00000000000E+00 0. -1.
         25    2    1    2    0    0  0.14263315673E+03  0.37434040616E+02 -0.80416744093E+03  0.82707677974E+03  0.12500080697E+03 0.  0.
          2    1    1    2  501    0 -0.70624955101E+02 -0.13487897126E+02 -0.12875125004E+04  0.12895186103E+04  0.00000000000E+00 0. -1.
          1    1    1    2  502    0 -0.72008201631E+02 -0.23946143490E+02  0.13544444942E+03  0.15525397827E+03  0.00000000000E+00 0. -1.
         22    1    3    3    0    0  0.14942004669E+03  0.50440351729E+02 -0.54142760077E+03  0.56392767827E+03  0.00000000000E+00 0.  1.
         22    1    3    3    0    0 -0.67868899533E+01 -0.13006311113E+02 -0.26273984015E+03  0.26314910148E+03  0.00000000000E+00 0.  1.
</event>
<event>
 7    1  0.6262315E-006  0.6806264E+02  0.7818608E-02  0.1394097E+00
          2   -1    0    0  502    0  0.00000000000E+00  0.00000000000E+00  0.18543010630E+04  0.18543010630E+04  0.00000000000E+00 0. -1.
          1   -1    0    0  501    0 -0.00000000000E+00 -0.00000000000E+00 -0.65385217947E+02  0.65385217947E+02  0.00000000000E+00 0. -1.
         25    2    1    2    0    0  0.41044941777E+01  0.99883161751E+02  0.52770231048E+03  0.55144241327E+03  0.12500205513E+03 0.  0.
          2    1    1    2  501    0  0.32201725309E+02 -0.43956205526E+02 -0.38565137948E+02  0.66756040791E+02  0.00000000000E+00 0. -1.
          1    1    1    2  502    0 -0.36306219487E+02 -0.55926956225E+02  0.12997786725E+04  0.13014878269E+04  0.00000000000E+00 0. -1.
         22    1    3    3    0    0 -0.94466663483E+01  0.84030738428E+02  0.14267724031E+03  0.16585294513E+03  0.00000000000E+00 0.  1.
         22    1    3    3    0    0  0.13551160526E+02  0.15852423323E+02  0.38502507017E+03  0.38558946813E+03  0.00000000000E+00 0.  1.
</event>
<event>
 7    1  0.6262315E-006  0.1097288E+03  0.7818608E-02  0.1311721E+00
          2   -1    0    0  502    0  0.00000000000E+00  0.00000000000E+00  0.21391143079E+03  0.21391143079E+03  0.00000000000E+00 0. -1.
          1   -1    0    0  501    0 -0.00000000000E+00 -0.00000000000E+00 -0.32232820497E+04  0.32232820497E+04  0.00000000000E+00 0. -1.
         25    2    1    2    0    0  0.35002008633E+02  0.43416066186E+02 -0.74531711693E+03  0.75778192327E+03  0.12500297212E+03 0.  0.
          2    1    1    2  501    0  0.68046616963E+02 -0.23351868483E+01 -0.24564125721E+04  0.24573560018E+04  0.00000000000E+00 0. -1.
          1    1    1    2  502    0 -0.10304862560E+03 -0.41080879338E+02  0.19235907007E+03  0.22205555548E+03  0.00000000000E+00 0. -1.
         22    1    3    3    0    0  0.21287165509E+02  0.11994956600E+02 -0.70252563459E+03  0.70295041763E+03  0.00000000000E+00 0. -1.
         22    1    3    3    0    0  0.13714843123E+02  0.31421109586E+02 -0.42791482340E+02  0.54831505637E+02  0.00000000000E+00 0. -1.
</event>
<event>
 7    1  0.6262315E-006  0.6534869E+02  0.7818608E-02  0.1475822E+00
          2   -1    0    0  502    0  0.00000000000E+00  0.00000000000E+00  0.26960182397E+04  0.26960182397E+04  0.00000000000E+00 0. -1.
          1   -1    0    0  501    0 -0.00000000000E+00 -0.00000000000E+00 -0.32299067044E+03  0.32299067044E+03  0.00000000000E+00 0. -1.
         25    2    1    2    0    0  0.26087448031E+02 -0.48522814971E+02  0.65313537925E+03  0.66726749558E+03  0.12500027405E+03 0.  0.
          2    1    1    2  501    0 -0.54300055267E+02  0.36511640523E+02 -0.31241957239E+03  0.31919834759E+03  0.00000000000E+00 0. -1.
          1    1    1    2  502    0  0.28212607237E+02  0.12011174448E+02  0.20323117624E+04  0.20325430670E+04  0.00000000000E+00 0. -1.
         22    1    3    3    0    0  0.16667913046E+02 -0.61341230153E+02  0.13854422364E+03  0.15243053417E+03  0.00000000000E+00 0.  1.
         22    1    3    3    0    0  0.94195349852E+01  0.12818415182E+02  0.51459115561E+03  0.51483696142E+03  0.00000000000E+00 0.  1.
</event>
<event>
 7    1  0.6262315E-006  0.5742956E+02  0.7818608E-02  0.1456286E+00
          2   -1    0    0  502    0  0.00000000000E+00  0.00000000000E+00  0.15712339525E+04  0.15712339525E+04  0.00000000000E+00 0. -1.
          1   -1    0    0  501    0 -0.00000000000E+00 -0.00000000000E+00 -0.12965049538E+04  0.12965049538E+04  0.00000000000E+00 0. -1.
         25    2    1    2    0    0 -0.79065114341E+02  0.45563581743E+02  0.30659070807E+03  0.34344562003E+03  0.12501879600E+03 0.  0.
          2    1    1    2  501    0  0.55941519328E+02 -0.12725019820E+02 -0.12771097588E+04  0.12783977142E+04  0.00000000000E+00 0. -1.
          1    1    1    2  502    0  0.23123595013E+02 -0.32838561923E+02  0.12452480494E+04  0.12458955720E+04  0.00000000000E+00 0. -1.
         22    1    3    3    0    0 -0.40520734524E+02 -0.12349888459E+02  0.17047897259E+02  0.45662681396E+02  0.00000000000E+00 0.  1.
         22    1    3    3    0    0 -0.38544379817E+02  0.57913470202E+02  0.28954281081E+03  0.29778293863E+03  0.00000000000E+00 0.  1.
</event>
<event>
 7    1  0.6262315E-006  0.5977011E+02  0.7818608E-02  0.1544341E+00
          2   -1    0    0  502    0  0.00000000000E+00  0.00000000000E+00  0.38046042154E+03  0.38046042154E+03  0.00000000000E+00 0. -1.
          1   -1    0    0  501    0 -0.00000000000E+00 -0.00000000000E+00 -0.11970944899E+04  0.11970944899E+04  0.00000000000E+00 0. -1.
         25    2    1    2    0    0 -0.24949132199E+02  0.31356410162E+02  0.62565646791E+01  0.13142220484E+03  0.12500787043E+03 0.  0.
          2    1    1    2  501    0 -0.86368760156E+01  0.19214545541E+02 -0.11314560201E+04  0.11316521196E+04  0.00000000000E+00 0. -1.
          1    1    1    2  502    0  0.33586008215E+02 -0.50570955703E+02  0.30856538706E+03  0.31448058700E+03  0.00000000000E+00 0. -1.
         22    1    3    3    0    0 -0.41568469170E+02  0.73142865515E+02  0.15411452024E+02  0.85529698108E+02  0.00000000000E+00 0.  1.
         22    1    3    3    0    0  0.16619336971E+02 -0.41786455353E+02 -0.91548873445E+01  0.45892506737E+02  0.00000000000E+00 0.  1.
</event>
<event>
 7    1  0.6262315E-006  0.5227242E+02  0.7818608E-02  0.1443435E+00
          2   -1    0    0  502    0  0.00000000000E+00  0.00000000000E+00  0.71189498263E+02  0.71189498263E+02  0.00000000000E+00 0. -1.
          1   -1    0    0  501    0 -0.00000000000E+00 -0.00000000000E+00 -0.11506031021E+04  0.11506031021E+04  0.00000000000E+00 0. -1.
         25    2    1    2    0    0  0.39306484693E+02 -0.15808603734E+02 -0.55711150676E+03  0.57253157288E+03  0.12499703714E+03 0.  0.
          2    1    1    2  501    0 -0.25811560383E+01  0.53006127860E+02 -0.57358396165E+03  0.57603374296E+03  0.00000000000E+00 0. -1.
          1    1    1    2  502    0 -0.36725328654E+02 -0.37197524125E+02  0.51281864571E+02  0.73227284530E+02  0.00000000000E+00 0. -1.
         22    1    3    3    0    0 -0.34904753511E+01 -0.42428975872E+02 -0.64093065269E+02  0.76943631493E+02  0.00000000000E+00 0.  1.
         22    1    3    3    0    0  0.42796960044E+02  0.26620372137E+02 -0.49301844149E+03  0.49558794139E+03  0.00000000000E+00 0.  1.
</event>
<event>
 7    1  0.6262315E-006  0.1251563E+03  0.7818608E-02  0.1259687E+00
          2   -1    0    0  502    0  0.00000000000E+00  0.00000000000E+00  0.18448994454E+04  0.18448994454E+04  0.00000000000E+00 0. -1.
          1   -1    0    0  501    0 -0.00000000000E+00 -0.00000000000E+00 -0.16346606199E+04  0.16346606199E+04  0.00000000000E+00 0. -1.
         25    2    1    2    0    0 -0.11189603631E+03  0.17624015540E+03 -0.12488389487E+03  0.27350044136E+03  0.12500075565E+03 0.  0.
          2    1    1    2  501    0  0.92112584626E+02 -0.80746854212E+02 -0.14315079720E+04  0.14367393141E+04  0.00000000000E+00 0. -1.
          1    1    1    2  502    0  0.19783451684E+02 -0.95493301184E+02  0.17666306924E+04  0.17693203098E+04  0.00000000000E+00 0. -1.
         22    1    3    3    0    0 -0.18747858519E+02  0.45160624195E+02  0.23897139652E+02  0.54424603446E+02  0.00000000000E+00 0.  1.
         22    1    3    3    0    0 -0.93148177791E+02  0.13107953120E+03 -0.14878103452E+03  0.21907583792E+03  0.00000000000E+00 0.  1.
</event>
<event>
 7    1  0.6262315E-006  0.2104667E+03  0.7818608E-02  0.1204704E+00
          2   -1    0    0  502    0  0.00000000000E+00  0.00000000000E+00  0.21832113436E+04  0.21832113436E+04  0.00000000000E+00 0. -1.
          1   -1    0    0  501    0 -0.00000000000E+00 -0.00000000000E+00 -0.12324390855E+04  0.12324390855E+04  0.00000000000E+00 0. -1.
         25    2    1    2    0    0  0.30028331287E+03 -0.37467146438E+02  0.58023598039E+03  0.66623714000E+03  0.12499711491E+03 0.  0.
          2    1    1    2  501    0 -0.20899835086E+03 -0.83211388230E+01 -0.11785487198E+04  0.11969655956E+04  0.00000000000E+00 0. -1.
          1    1    1    2  502    0 -0.91284962013E+02  0.45788285261E+02  0.15490849975E+04  0.15524476935E+04  0.00000000000E+00 0. -1.
         22    1    3    3    0    0  0.15831057588E+03 -0.30023776607E+02  0.43094124756E+03  0.46008045432E+03  0.00000000000E+00 0.  1.
         22    1    3    3    0    0  0.14197273699E+03 -0.74433698313E+01  0.14929473283E+03  0.20615668569E+03  0.00000000000E+00 0.  1.
</event>
<event>
 7    1  0.6262315E-006  0.4069400E+02  0.7818608E-02  0.1571397E+00
          2   -1    0    0  502    0  0.00000000000E+00  0.00000000000E+00  0.16282935739E+03  0.16282935739E+03  0.00000000000E+00 0. -1.
          1   -1    0    0  501    0 -0.00000000000E+00 -0.00000000000E+00 -0.95348579662E+03  0.95348579662E+03  0.00000000000E+00 0. -1.
         25    2    1    2    0    0  0.10464327589E+02  0.59772011288E+02 -0.16507669156E+03  0.21577485183E+03  0.12500510829E+03 0.  0.
          2    1    1    2  501    0 -0.16872522681E+02 -0.19850793166E+02 -0.75985921268E+03  0.76030570108E+03  0.00000000000E+00 0. -1.
          1    1    1    2  502    0  0.64081950919E+01 -0.39921218122E+02  0.13427946501E+03  0.14023460110E+03  0.00000000000E+00 0. -1.
         22    1    3    3    0    0  0.17541597273E+02  0.87271949434E+02 -0.61046412240E+02  0.10793871057E+03  0.00000000000E+00 0. -1.
         22    1    3    3    0    0 -0.70772696842E+01 -0.27499938146E+02 -0.10403027932E+03  0.10783614125E+03  0.00000000000E+00 0. -1.
</event>
<event>
 7    1  0.6262315E-006  0.1786510E+03  0.7818608E-02  0.1312102E+00
          2   -1    0    0  502    0  0.00000000000E+00  0.00000000000E+00  0.18700887398E+04  0.18700887398E+04  0.00000000000E+00 0. -1.
          1   -1    0    0  501    0 -0.00000000000E+00 -0.00000000000E+00 -0.24581337475E+03  0.24581337475E+03  0.00000000000E+00 0. -1.
         25    2    1    2    0    0 -0.12708830240E+03 -0.14178057067E+03  0.17857223746E+03  0.28942487113E+03  0.12500218082E+03 0.  0.
          2    1    1    2  501    0  0.39537923410E+02 -0.13175929695E+02 -0.18319956819E+03  0.18788010617E+03  0.00000000000E+00 0. -1.
          1    1    1    2  502    0  0.87550378989E+02  0.15495650037E+03  0.16289026958E+04  0.16385971373E+04  0.00000000000E+00 0. -1.
         22    1    3    3    0    0 -0.44212164101E+02 -0.13514801954E+03  0.91819611256E+02  0.16926471473E+03  0.00000000000E+00 0.  1.
         22    1    3    3    0    0 -0.82876138297E+02 -0.66325511347E+01  0.86752626208E+02  0.12016015641E+03  0.00000000000E+00 0.  1.
</event>
<event>
 7    1  0.6262315E-006  0.2248044E+03  0.7818608E-02  0.1190104E+00
          2   -1    0    0  502    0  0.00000000000E+00  0.00000000000E+00  0.50946310501E+03  0.50946310501E+03  0.00000000000E+00 0. -1.
          1   -1    0    0  501    0 -0.00000000000E+00 -0.00000000000E+00 -0.11088652816E+04  0.11088652816E+04  0.00000000000E+00 0. -1.
         25    2    1    2    0    0 -0.20613110507E+02  0.12822180746E+03  0.29332162129E+03  0.34427977779E+03  0.12500103858E+03 0.  0.
          2    1    1    2  501    0  0.10315040559E+03 -0.20410421982E+03 -0.10535022148E+04  0.10780377801E+04  0.00000000000E+00 0. -1.
          1    1    1    2  502    0 -0.82537295087E+02  0.75882412365E+02  0.16077841698E+03  0.19601082867E+03  0.00000000000E+00 0. -1.
         22    1    3    3    0    0 -0.66838584155E+02  0.43395195420E+02  0.16891933912E+03  0.18677334512E+03  0.00000000000E+00 0. -1.
         22    1    3    3    0    0  0.46225473648E+02  0.84826612040E+02  0.12440228217E+03  0.15750643267E+03  0.00000000000E+00 0. -1.
</event>
<event>
 7    1  0.6262315E-006  0.7121205E+02  0.7818608E-02  0.1410020E+00
          2   -1    0    0  502    0  0.00000000000E+00  0.00000000000E+00  0.95077964001E+03  0.95077964001E+03  0.00000000000E+00 0. -1.
          1   -1    0    0  501    0 -0.00000000000E+00 -0.00000000000E+00 -0.75426811413E+02  0.75426811413E+02  0.00000000000E+00 0. -1.
         25    2    1    2    0    0  0.39341444345E+02 -0.81788781604E+01  0.70158301179E+02  0.14886696467E+03  0.12499817060E+03 0.  0.
          2    1    1    2  501    0  0.10671903499E+02 -0.44670915981E+02 -0.19171312576E+02  0.49768659664E+02  0.00000000000E+00 0. -1.
          1    1    1    2  502    0 -0.50013347844E+02  0.52849794141E+02  0.82436583999E+03  0.82757082709E+03  0.00000000000E+00 0. -1.
         22    1    3    3    0    0 -0.39402159046E+02 -0.14624591216E+01 -0.50738965709E+01  0.39754412970E+02  0.00000000000E+00 0. -1.
         22    1    3    3    0    0  0.78743603392E+02 -0.67164190387E+01  0.75232197750E+02  0.10911255170E+03  0.00000000000E+00 0. -1.
</event>
<event>
 7    1  0.6262315E-006  0.8724885E+02  0.7818608E-02  0.1446915E+00
          2   -1    0    0  502    0  0.00000000000E+00  0.00000000000E+00  0.26891562156E+03  0.26891562156E+03  0.00000000000E+00 0. -1.
          1   -1    0    0  501    0 -0.00000000000E+00 -0.00000000000E+00 -0.27232859978E+03  0.27232859978E+03  0.00000000000E+00 0. -1.
         25    2    1    2    0    0 -0.61533861010E+02 -0.20944617357E+02  0.19970942397E+02  0.14229457637E+03  0.12499525942E+03 0.  0.
          2    1    1    2  501    0  0.78883294919E+02  0.43330015752E+02 -0.20040007616E+03  0.21968216816E+03  0.00000000000E+00 0. -1.
          1    1    1    2  502    0 -0.17349433909E+02 -0.22385398394E+02  0.17701615554E+03  0.17926747680E+03  0.00000000000E+00 0. -1.
         22    1    3    3    0    0 -0.29552558296E+02  0.48067975753E+02 -0.15283197096E+02  0.58459046420E+02  0.00000000000E+00 0. -1.
         22    1    3    3    0    0 -0.31981302714E+02 -0.69012593111E+02  0.35254139493E+02  0.83835529953E+02  0.00000000000E+00 0. -1.
</event>
<event>
 7    1  0.6262315E-006  0.1451993E+03  0.7818608E-02  0.1325252E+00
          2   -1    0    0  502    0  0.00000000000E+00  0.00000000000E+00  0.63368561808E+03  0.63368561808E+03  0.00000000000E+00 0. -1.
          1   -1    0    0  501    0 -0.00000000000E+00 -0.00000000000E+00 -0.10116750351E+04  0.10116750351E+04  0.00000000000E+00 0. -1.
         25    2    1    2    0    0 -0.99053190011E+02  0.35811448416E+02  0.12507933432E+03  0.20583639115E+03  0.12501914157E+03 0.  0.
          2    1    1    2  501    0  0.14392042761E+03 -0.27771108813E+02 -0.96463767739E+03  0.97571008635E+03  0.00000000000E+00 0. -1.
          1    1    1    2  502    0 -0.44867237604E+02 -0.80403396033E+01  0.46156892605E+03  0.46381417568E+03  0.00000000000E+00 0. -1.
         22    1    3    3    0    0 -0.30962780629E+02  0.62832954401E+02  0.11949706331E+02  0.71059618803E+02  0.00000000000E+00 0. -1.
         22    1    3    3    0    0 -0.68090409382E+02 -0.27021505985E+02  0.11312962799E+03  0.13477677235E+03  0.00000000000E+00 0. -1.
</event>
<event>
 7    1  0.6262315E-006  0.1016395E+03  0.7818608E-02  0.1305952E+00
          2   -1    0    0  502    0  0.00000000000E+00  0.00000000000E+00  0.13289483880E+04  0.13289483880E+04  0.00000000000E+00 0. -1.
          1   -1    0    0  501    0 -0.00000000000E+00 -0.00000000000E+00 -0.21977076329E+03  0.21977076329E+03  0.00000000000E+00 0. -1.
         25    2    1    2    0    0  0.12156825522E+03  0.85245910658E+02  0.36343049262E+03  0.41200156863E+03  0.12497145126E+03 0.  0.
          2    1    1    2  501    0 -0.44275852694E+02 -0.90394091944E+02 -0.18080416365E+03  0.20693377826E+03  0.00000000000E+00 0. -1.
          1    1    1    2  502    0 -0.77292402525E+02  0.51481812864E+01  0.92655129574E+03  0.92978380439E+03  0.00000000000E+00 0. -1.
         22    1    3    3    0    0  0.90589530890E+02  0.39148933801E+02  0.33573730725E+03  0.34994091159E+03  0.00000000000E+00 0. -1.
         22    1    3    3    0    0  0.30978724329E+02  0.46096976857E+02  0.27693185365E+02  0.62060657039E+02  0.00000000000E+00 0. -1.
</event>
<event>
 7    1  0.6262315E-006  0.7488224E+02  0.7818608E-02  0.1347893E+00
          2   -1    0    0  502    0  0.00000000000E+00  0.00000000000E+00  0.61955694435E+03  0.61955694435E+03  0.00000000000E+00 0. -1.
          1   -1    0    0  501    0 -0.00000000000E+00 -0.00000000000E+00 -0.22732580041E+03  0.22732580041E+03  0.00000000000E+00 0. -1.
         25    2    1    2    0    0  0.12015684088E+02 -0.31411058494E+02  0.76506442445E+02  0.15036459193E+03  0.12500097404E+03 0.  0.
          2    1    1    2  501    0  0.65473559527E+02  0.36339555085E+02 -0.17989257528E+03  0.19485555907E+03  0.00000000000E+00 0. -1.
          1    1    1    2  502    0 -0.77489243615E+02 -0.49284965904E+01  0.49561727677E+03  0.50166259377E+03  0.00000000000E+00 0. -1.
         22    1    3    3    0    0  0.29118713227E+00  0.47474651081E+02  0.15457447415E+02  0.49928548605E+02  0.00000000000E+00 0.  1.
         22    1    3    3    0    0  0.11724496955E+02 -0.78885709575E+02  0.61048995030E+02  0.10043604332E+03  0.00000000000E+00 0.  1.
</event>
<event>
 7    1  0.6262315E-006  0.1476802E+03  0.7818608E-02  0.1283674E+00
          2   -1    0    0  502    0  0.00000000000E+00  0.00000000000E+00  0.35104605485E+03  0.35104605485E+03  0.00000000000E+00 0. -1.
          1   -1    0    0  501    0 -0.00000000000E+00 -0.00000000000E+00 -0.58468167580E+03  0.58468167580E+03  0.00000000000E+00 0. -1.
         25    2    1    2    0    0 -0.33463505252E+02 -0.14067266597E+03 -0.63008775235E+01  0.19124125161E+03  0.12499964050E+03 0.  0.
          2    1    1    2  501    0 -0.31877818582E+02  0.14624301412E+03 -0.46992627923E+03  0.49318751242E+03  0.00000000000E+00 0. -1.
          1    1    1    2  502    0  0.65341323833E+02 -0.55703481525E+01  0.24259153580E+03  0.25129896661E+03  0.00000000000E+00 0. -1.
         22    1    3    3    0    0  0.23425562629E+02  0.12842358602E+02  0.48235629216E+01  0.27146821512E+02  0.00000000000E+00 0. -1.
         22    1    3    3    0    0 -0.56889067881E+02 -0.15351502457E+03 -0.11124440445E+02  0.16409443010E+03  0.00000000000E+00 0. -1.
</event>
<event>
 7    1  0.6262315E-006  0.8586491E+02  0.7818608E-02  0.1409244E+00
          2   -1    0    0  502    0  0.00000000000E+00  0.00000000000E+00  0.55600000646E+03  0.55600000646E+03  0.00000000000E+00 0. -1.
          1   -1    0    0  501    0 -0.00000000000E+00 -0.00000000000E+00 -0.30626047765E+03  0.30626047765E+03  0.00000000000E+00 0. -1.
         25    2    1    2    0    0  0.11198079601E+02 -0.66015342346E+02 -0.18588495792E+03  0.23379869829E+03  0.12500076531E+03 0.  0.
          2    1    1    2  501    0 -0.34281481577E+02 -0.17127507574E+02 -0.88941605844E+02  0.96846170522E+02  0.00000000000E+00 0. -1.
          1    1    1    2  502    0  0.23083401976E+02  0.83142849920E+02  0.52456609258E+03  0.53161561529E+03  0.00000000000E+00 0. -1.
         22    1    3    3    0    0  0.47585968064E+01  0.26956891636E+02 -0.11076625792E+03  0.11409856328E+03  0.00000000000E+00 0.  1.
         22    1    3    3    0    0  0.64394827947E+01 -0.92972233982E+02 -0.75118700008E+02  0.11970013501E+03  0.00000000000E+00 0.  1.
</event>
<event>
 7    1  0.6262315E-006  0.8208223E+02  0.7818608E-02  0.1425123E+00
          2   -1    0    0  502    0  0.00000000000E+00  0.00000000000E+00  0.26878356914E+03  0.26878356914E+03  0.00000000000E+00 0. -1.
          1   -1    0    0  501    0 -0.00000000000E+00 -0.00000000000E+00 -0.16171030096E+04  0.16171030096E+04  0.00000000000E+00 0. -1.
         25    2    1    2    0    0 -0.48444924371E+02 -0.16595909069E+02 -0.13454202131E+04  0.13521841611E+04  0.12499648311E+03 0.  0.
          2    1    1    2  501    0 -0.33620195901E+02  0.11278902489E+02 -0.26070100075E+03  0.26310177310E+03  0.00000000000E+00 0. -1.
          1    1    1    2  502    0  0.82065120272E+02  0.53170065798E+01  0.25780177334E+03  0.27060064461E+03  0.00000000000E+00 0. -1.
         22    1    3    3    0    0  0.52867270903E+01  0.19537925637E+02 -0.37096436247E+02  0.42259029849E+02  0.00000000000E+00 0.  1.
         22    1    3    3    0    0 -0.53731651462E+02 -0.36133834706E+02 -0.13083237768E+04  0.13099251312E+04  0.00000000000E+00 0.  1.
</event>
<event>
 7    1  0.6262315E-006  0.6916315E+02  0.7818608E-02  0.1367374E+00
          2   -1    0    0  502    0  0.00000000000E+00  0.00000000000E+00  0.13401824278E+04  0.13401824278E+04  0.00000000000E+00 0. -1.
          1   -1    0    0  501    0 -0.00000000000E+00 -0.00000000000E+00 -0.84638256692E+03  0.84638256692E+03  0.00000000000E+00 0. -1.
         25    2    1    2    0    0 -0.88870151858E+01 -0.14907376499E+02  0.17934458747E+03  0.21931667876E+03  0.12503645713E+03 0.  0.
          2    1    1    2  501    0 -0.63665289507E+02  0.19773189660E+02 -0.82389011975E+03  0.82658283162E+03  0.00000000000E+00 0. -1.
          1    1    1    2  502    0  0.72552304693E+02 -0.48658131606E+01  0.11383453931E+04  0.11406654843E+04  0.00000000000E+00 0. -1.
         22    1    3    3    0    0  0.13643430156E+02  0.52857576075E+02  0.71144964246E+02  0.89675372720E+02  0.00000000000E+00 0. -1.
         22    1    3    3    0    0 -0.22530445342E+02 -0.67764952574E+02  0.10819962323E+03  0.12964130604E+03  0.00000000000E+00 0. -1.
</event>
<event>
 7    1  0.6262315E-006  0.6178917E+02  0.7818608E-02  0.1500621E+00
          2   -1    0    0  502    0  0.00000000000E+00  0.00000000000E+00  0.20723492474E+03  0.20723492474E+03  0.00000000000E+00 0. -1.
          1   -1    0    0  501    0 -0.00000000000E+00 -0.00000000000E+00 -0.95139583036E+03  0.95139583036E+03  0.00000000000E+00 0. -1.
         25    2    1    2    0    0  0.81760921655E+02 -0.24061567670E+02 -0.41202654105E+03  0.43892527402E+03  0.12500287317E+03 0.  0.
          2    1    1    2  501    0 -0.26981432952E+02 -0.39728738198E+01 -0.52066882946E+03  0.52138259601E+03  0.00000000000E+00 0. -1.
          1    1    1    2  502    0 -0.54779488703E+02  0.28034441490E+02  0.18853446489E+03  0.19832288507E+03  0.00000000000E+00 0. -1.
         22    1    3    3    0    0  0.87281254248E+01 -0.15060939705E+02  0.27927410351E+01  0.17629846304E+02  0.00000000000E+00 0. -1.
         22    1    3    3    0    0  0.73032796230E+02 -0.90006279656E+01 -0.41481928208E+03  0.42129542772E+03  0.00000000000E+00 0. -1.
</event>
<event>
 7    1  0.6262315E-006  0.2402103E+03  0.7818608E-02  0.1228200E+00
          2   -1    0    0  502    0  0.00000000000E+00  0.00000000000E+00  0.96310996427E+02  0.96310996427E+02  0.00000000000E+00 0. -1.
          1   -1    0    0  501    0 -0.00000000000E+00 -0.00000000000E+00 -0.17880475274E+04  0.17880475274E+04  0.00000000000E+00 0. -1.
         25    2    1    2    0    0  0.24598660812E+03  0.72327502396E+02 -0.44587876503E+03  0.52931357663E+03  0.12499724125E+03 0.  0.
          2    1    1    2  501    0 -0.20161845338E+03 -0.12623009081E+03 -0.12613070489E+04  0.12835417827E+04  0.00000000000E+00 0. -1.
          1    1    1    2  502    0 -0.44368154743E+02  0.53902588413E+02  0.15449282862E+02  0.71503164503E+02  0.00000000000E+00 0. -1.
         22    1    3    3    0    0  0.58007285554E+02  0.53968188205E+02 -0.58974293406E+02  0.98769316077E+02  0.00000000000E+00 0. -1.
         22    1    3    3    0    0  0.18797932257E+03  0.18359314191E+02 -0.38690447162E+03  0.43054426055E+03  0.00000000000E+00 0. -1.
</event>
<event>
 7    1  0.6262315E-006  0.9223467E+02  0.7818608E-02  0.1329221E+00
          2   -1    0    0  502    0  0.00000000000E+00  0.00000000000E+00  0.26117045053E+04  0.26117045053E+04  0.00000000000E+00 0. -1.
          1   -1    0    0  501    0 -0.00000000000E+00 -0.00000000000E+00 -0.95844597488E+02  0.95844597488E+02  0.00000000000E+00 0. -1.
         25    2    1    2    0    0  0.41939735840E+02 -0.14577434709E+03  0.44068341365E+03  0.48253069337E+03  0.12499958905E+03 0.  0.
          2    1    1    2  501    0 -0.21813282980E+01  0.89032897545E+02 -0.47688019495E+02  0.10102357270E+03  0.00000000000E+00 0. -1.
          1    1    1    2  502    0 -0.39758407542E+02  0.56741449546E+02  0.21228645137E+04  0.21239948368E+04  0.00000000000E+00 0. -1.
         22    1    3    3    0    0  0.38170718800E+02 -0.54715416761E+02  0.34100123048E+03  0.34746599804E+03  0.00000000000E+00 0.  1.
         22    1    3    3    0    0  0.37690170405E+01 -0.91058930330E+02  0.99682183174E+02  0.13506469533E+03  0.00000000000E+00 0.  1.
</event>
<event>
 7    1  0.6262315E-006  0.6241673E+02  0.7818608E-02  0.1418647E+00
          2   -1    0    0  502    0  0.00000000000E+00  0.00000000000E+00  0.85158769050E+03  0.85158769050E+03  0.00000000000E+00 0. -1.
          1   -1    0    0  501    0 -0.00000000000E+00 -0.00000000000E+00 -0.16908225038E+04  0.16908225038E+04  0.00000000000E+00 0. -1.
         25    2    1    2    0    0 -0.18284940618E+02  0.92503659133E+01  0.16411387105E+03  0.20731344900E+03  0.12500238054E+03 0.  0.
          2    1    1    2  501    0  0.23509152123E+02 -0.57980249937E+02 -0.16677335608E+04  0.16689067138E+04  0.00000000000E+00 0. -1.
          1    1    1    2  502    0 -0.52242115058E+01  0.48729884023E+02  0.66438487645E+03  0.66619003148E+03  0.00000000000E+00 0. -1.
         22    1    3    3    0    0 -0.57514830916E+02 -0.26724451660E+02  0.47856985486E+02  0.79450885153E+02  0.00000000000E+00 0. -1.
         22    1    3    3    0    0  0.39229890298E+02  0.35974817573E+02  0.11625688556E+03  0.12786256385E+03  0.00000000000E+00 0. -1.
</event>
<event>
 7    1  0.6262315E-006  0.5760843E+02  0.7818608E-02  0.1545949E+00
          2   -1    0    0  502    0  0.00000000000E+00  0.00000000000E+00  0.19448650929E+04  0.19448650929E+04  0.00000000000E+00 0. -1.
          1   -1    0    0  501    0 -0.00000000000E+00 -0.00000000000E+00 -0.37934748666E+03  0.37934748666E+03  0.00000000000E+00 0. -1.
         25    2    1    2    0    0 -0.33320668544E+02  0.17703557365E+02  0.75841084081E+02  0.15099853242E+03  0.12500001545E+03 0.  0.
          2    1    1    2  501    0 -0.12446142530E+02  0.17691341875E+02 -0.34096902820E+03  0.34165445735E+03  0.00000000000E+00 0. -1.
          1    1    1    2  502    0  0.45766811074E+02 -0.35394899240E+02  0.18306455504E+04  0.18315595898E+04  0.00000000000E+00 0. -1.
         22    1    3    3    0    0  0.10089328001E+02 -0.39359838975E+01 -0.31444777007E+02  0.33257488026E+02  0.00000000000E+00 0.  1.
         22    1    3    3    0    0 -0.43409996545E+02  0.21639541262E+02  0.10728586109E+03  0.11774104440E+03  0.00000000000E+00 0.  1.
</event>
<event>
 7    1  0.6262315E-006  0.1081329E+03  0.7818608E-02  0.1292851E+00
          2   -1    0    0  502    0  0.00000000000E+00  0.00000000000E+00  0.26955228989E+03  0.26955228989E+03  0.00000000000E+00 0. -1.
          1   -1    0    0  501    0 -0.00000000000E+00 -0.00000000000E+00 -0.18363026534E+03  0.18363026534E+03  0.00000000000E+00 0. -1.
         25    2    1    2    0    0 -0.34125323230E+02 -0.32448021701E+02  0.72649449207E+02  0.15205616210E+03  0.12500288863E+03 0.  0.
          2    1    1    2  501    0  0.56667662100E+02  0.11146285956E+03 -0.10075197233E+03  0.16058067417E+03  0.00000000000E+00 0. -1.
          1    1    1    2  502    0 -0.22542338870E+02 -0.79014837860E+02  0.11402454767E+03  0.14054571895E+03  0.00000000000E+00 0. -1.
         22    1    3    3    0    0  0.35868159140E+02 -0.39790622738E+02  0.39650601577E+01  0.53717224426E+02  0.00000000000E+00 0. -1.
         22    1    3    3    0    0 -0.69993482370E+02  0.73426010373E+01  0.68684389049E+02  0.98338937677E+02  0.00000000000E+00 0. -1.
</event>
<event>
 7    1  0.6262315E-006  0.1282764E+03  0.7818608E-02  0.1273936E+00
          2   -1    0    0  502    0  0.00000000000E+00  0.00000000000E+00  0.10640449901E+04  0.10640449901E+04  0.00000000000E+00 0. -1.
          1   -1    0    0  501    0 -0.00000000000E+00 -0.00000000000E+00 -0.10137574631E+04  0.10137574631E+04  0.00000000000E+00 0. -1.
         25    2    1    2    0    0  0.52752650026E+02  0.19578420365E+03  0.19062143776E+03  0.30508491412E+03  0.12500390317E+03 0.  0.
          2    1    1    2  501    0 -0.60937297423E+01 -0.82618563688E+02 -0.95012372024E+03  0.95372849615E+03  0.00000000000E+00 0. -1.
          1    1    1    2  502    0 -0.46658920284E+02 -0.11316563996E+03  0.80978980951E+03  0.81898904297E+03  0.00000000000E+00 0. -1.
         22    1    3    3    0    0  0.44731728755E+02  0.20272043414E+03  0.20191269160E+03  0.28959495335E+03  0.00000000000E+00 0.  1.
         22    1    3    3    0    0  0.80209212706E+01 -0.69362304911E+01 -0.11291253842E+02  0.15489960774E+02  0.00000000000E+00 0.  1.
</event>
<event>
 7    1  0.6262315E-006  0.3093194E+02  0.7818608E-02  0.1631297E+00
          2   -1    0    0  502    0  0.00000000000E+00  0.00000000000E+00  0.18249213338E+04  0.18249213338E+04  0.00000000000E+00 0. -1.
          1   -1    0    0  501    0 -0.00000000000E+00 -0.00000000000E+00 -0.18513065789E+03  0.18513065789E+03  0.00000000000E+00 0. -1.
         25    2    1    2    0    0 -0.22376664743E+02  0.48433750806E+02  0.10281108067E+04  0.10370552277E+04  0.12500068427E+03 0.  0.
          2    1    1    2  501    0  0.84111147789E+01 -0.22387453639E+02 -0.17958989696E+03  0.18117526327E+03  0.00000000000E+00 0. -1.
          1    1    1    2  502    0  0.13965549964E+02 -0.26046297168E+02  0.79126976621E+03  0.79182150078E+03  0.00000000000E+00 0. -1.
         22    1    3    3    0    0 -0.32106672313E+02  0.28999797220E+02  0.10336715484E+03  0.11205621511E+03  0.00000000000E+00 0. -1.
         22    1    3    3    0    0  0.97300075698E+01  0.19433953587E+02  0.92474365186E+03  0.92499901257E+03  0.00000000000E+00 0. -1.
</event>
<event>
 7    1  0.6262315E-006  0.8298918E+02  0.7818608E-02  0.1425444E+00
          2   -1    0    0  502    0  0.00000000000E+00  0.00000000000E+00  0.54444148831E+03  0.54444148831E+03  0.00000000000E+00 0. -1.
          1   -1    0    0  501    0 -0.00000000000E+00 -0.00000000000E+00 -0.13347484082E+03  0.13347484082E+03  0.00000000000E+00 0. -1.
         25    2    1    2    0    0 -0.91335494425E+02 -0.20007636501E+02  0.23343076786E+03  0.28081583887E+03  0.12500053566E+03 0.  0.
          2    1    1    2  501    0  0.10748415988E+02  0.33296337592E+02 -0.10097271257E+03  0.10686282434E+03  0.00000000000E+00 0. -1.
          1    1    1    2  502    0  0.80587078437E+02 -0.13288701091E+02  0.27850859219E+03  0.29023766591E+03  0.00000000000E+00 0. -1.
         22    1    3    3    0    0 -0.72240406660E+02 -0.34110170569E+02  0.24256414058E+03  0.25538117078E+03  0.00000000000E+00 0. -1.
         22    1    3    3    0    0 -0.19095087766E+02  0.14102534068E+02 -0.91333727165E+01  0.25434668095E+02  0.00000000000E+00 0. -1.
</event>
<event>
 7    1  0.6262315E-006  0.5965729E+02  0.7818608E-02  0.1459318E+00
          2   -1    0    0  502    0  0.00000000000E+00  0.00000000000E+00  0.12385407075E+04  0.12385407075E+04  0.00000000000E+00 0. -1.
          1   -1    0    0  501    0 -0.00000000000E+00 -0.00000000000E+00 -0.17289491479E+03  0.17289491479E+03  0.00000000000E+00 0. -1.
         25    2    1    2    0    0 -0.31623846498E+02  0.18595302787E+02 -0.52758467955E+01  0.13037452549E+03  0.12499531745E+03 0.  0.
          2    1    1    2  501    0  0.86244096671E+01  0.36821910165E+02 -0.10087406955E+03  0.10773027160E+03  0.00000000000E+00 0. -1.
          1    1    1    2  502    0  0.22999436831E+02 -0.55417212952E+02  0.11717957090E+04  0.11733308252E+04  0.00000000000E+00 0. -1.
         22    1    3    3    0    0  0.43176227327E+02  0.26733205650E+02 -0.18368713742E+02  0.54002412308E+02  0.00000000000E+00 0.  1.
         22    1    3    3    0    0 -0.74800073826E+02 -0.81379028628E+01  0.13092866946E+02  0.76372113184E+02  0.00000000000E+00 0.  1.
</event>
<event>
 7    1  0.6262315E-006  0.5615349E+02  0.7818608E-02  0.1440969E+00
          2   -1    0    0  502    0  0.00000000000E+00  0.00000000000E+00  0.16685308575E+04  0.16685308575E+04  0.00000000000E+00 0. -1.
          1   -1    0    0  501    0 -0.00000000000E+00 -0.00000000000E+00 -0.21112433302E+03  0.21112433302E+03  0.00000000000E+00 0. -1.
         25    2    1    2    0    0 -0.27163178031E+02  0.35434596203E+02  0.86228114524E+03  0.87243754685E+03  0.12500020348E+03 0.  0.
          2    1    1    2  501    0  0.38309027131E+02  0.25451016762E+02 -0.20226513285E+03  0.20742834854E+03  0.00000000000E+00 0. -1.
          1    1    1    2  502    0 -0.11145849100E+02 -0.60885612965E+02  0.79739051205E+03  0.79978929508E+03  0.00000000000E+00 0. -1.
         22    1    3    3    0    0  0.49729182769E+02  0.14103767239E+02  0.39903103398E+03  0.40236510031E+03  0.00000000000E+00 0.  1.
         22    1    3    3    0    0 -0.76892360799E+02  0.21330828964E+02  0.46325011127E+03  0.47007244655E+03  0.00000000000E+00 0.  1.
</event>
<event>
 7    1  0.6262315E-006  0.6646979E+02  0.7818608E-02  0.1383525E+00
          2   -1    0    0  502    0  0.00000000000E+00  0.00000000000E+00  0.55262241683E+03  0.55262241683E+03  0.00000000000E+00 0. -1.
          1   -1    0    0  501    0 -0.00000000000E+00 -0.00000000000E+00 -0.35639056702E+02  0.35639056702E+02  0.00000000000E+00 0. -1.
         25    2    1    2    0    0 -0.12940740322E+02 -0.32208164298E+02  0.23971832394E+03  0.27256877053E+03  0.12499612486E+03 0.  0.
          2    1    1    2  501    0  0.18796174580E+02 -0.57770302213E+02  0.10851839867E+03  0.12436618048E+03  0.00000000000E+00 0. -1.
          1    1    1    2  502    0 -0.58554342577E+01  0.89978466510E+02  0.16874663753E+03  0.19132652253E+03  0.00000000000E+00 0. -1.
         22    1    3    3    0    0  0.28426285760E+02 -0.13083804231E+01  0.11529591285E+01  0.28479727811E+02  0.00000000000E+00 0.  1.
         22    1    3    3    0    0 -0.41367026082E+02 -0.30899783875E+02  0.23856536481E+03  0.24408904272E+03  0.00000000000E+00 0.  1.
</event>
<event>
 7    1  0.6262315E-006  0.1074481E+03  0.7818608E-02  0.1464538E+00
          2   -1    0    0  502    0  0.00000000000E+00  0.00000000000E+00  0.20103183030E+04  0.20103183030E+04  0.00000000000E+00 0. -1.
          1   -1    0    0  501    0 -0.00000000000E+00 -0.00000000000E+00 -0.39353122197E+02  0.39353122197E+02  0.00000000000E+00 0. -1.
         25    2    1    2    0    0 -0.98853139871E+02 -0.76844053474E+02  0.69957747643E+03  0.72160274122E+03  0.12499967516E+03 0.  0.
          2    1    1    2  501    0  0.83420339318E+02  0.63782257454E+02  0.69310809288E+02  0.12582176943E+03  0.00000000000E+00 0. -1.
          1    1    1    2  502    0  0.15432800553E+02  0.13061796020E+02  0.12020768951E+04  0.12022469146E+04  0.00000000000E+00 0. -1.
         22    1    3    3    0    0 -0.75384348155E+02  0.11644999518E+02  0.20737568477E+03  0.22095945464E+03  0.00000000000E+00 0.  1.
         22    1    3    3    0    0 -0.23468791716E+02 -0.88489052993E+02  0.49220179165E+03  0.50064328657E+03  0.00000000000E+00 0.  1.
</event>
<event>
 7    1  0.6262315E-006  0.8701578E+02  0.7818608E-02  0.1318028E+00
          2   -1    0    0  502    0  0.00000000000E+00  0.00000000000E+00  0.13625841966E+04  0.13625841966E+04  0.00000000000E+00 0. -1.
          1   -1    0    0  501    0 -0.00000000000E+00 -0.00000000000E+00 -0.15707374257E+03  0.15707374257E+03  0.00000000000E+00 0. -1.
         25    2    1    2    0    0 -0.12310388290E+03 -0.26592023115E+01  0.34452788734E+03  0.38663750354E+03  0.12500982618E+03 0.  0.
          2    1    1    2  501    0  0.56868463064E+02  0.57846324935E+02 -0.12186749387E+03  0.14639639839E+03  0.00000000000E+00 0. -1.
          1    1    1    2  502    0  0.66235419832E+02 -0.55187122624E+02  0.98285006051E+03  0.98662403720E+03  0.00000000000E+00 0. -1.
         22    1    3    3    0    0 -0.12994072839E+03 -0.46682215632E+01  0.18050540762E+03  0.22246030515E+03  0.00000000000E+00 0.  1.
         22    1    3    3    0    0  0.68368454983E+01  0.20090192517E+01  0.16402247972E+03  0.16417719838E+03  0.00000000000E+00 0.  1.
</event>
<event>
 7    1  0.6262315E-006  0.1793270E+03  0.7818608E-02  0.1179400E+00
          2   -1    0    0  502    0  0.00000000000E+00  0.00000000000E+00  0.63318986746E+03  0.63318986746E+03  0.00000000000E+00 0. -1.
          1   -1    0    0  501    0 -0.00000000000E+00 -0.00000000000E+00 -0.80023862133E+03  0.80023862133E+03  0.00000000000E+00 0. -1.
         25    2    1    2    0    0 -0.42916140682E+02  0.78654763517E+02 -0.35422091790E+02  0.15783315176E+03  0.12501284836E+03 0.  0.
          2    1    1    2  501    0 -0.15411977170E+03 -0.36415928099E+02 -0.67642893414E+03  0.69471945905E+03  0.00000000000E+00 0. -1.
          1    1    1    2  502    0  0.19703591238E+03 -0.42238835418E+02  0.54480227205E+03  0.58087587798E+03  0.00000000000E+00 0. -1.
         22    1    3    3    0    0 -0.63519596367E+02 -0.86482984010E+01 -0.14759519234E+02  0.65782791032E+02  0.00000000000E+00 0.  1.
         22    1    3    3    0    0  0.20603455685E+02  0.87303061918E+02 -0.20662572556E+02  0.92050360733E+02  0.00000000000E+00 0.  1.
</event>
<event>
 7    1  0.6262315E-006  0.1313469E+03  0.7818608E-02  0.1354134E+00
          2   -1    0    0  502    0  0.00000000000E+00  0.00000000000E+00  0.90051311372E+03  0.90051311372E+03  0.00000000000E+00 0. -1.
          1   -1    0    0  501    0 -0.00000000000E+00 -0.00000000000E+00 -0.12893226530E+03  0.12893226530E+03  0.00000000000E+00 0. -1.
         25    2    1    2    0    0 -0.21750619682E+02 -0.99402176993E+02  0.23164606130E+03  0.28220272954E+03  0.12499840238E+03 0.  0.
          2    1    1    2  501    0 -0.15898323627E+02 -0.35864229552E+02 -0.91937916581E+02  0.99957891939E+02  0.00000000000E+00 0. -1.
          1    1    1    2  502    0  0.37648943309E+02  0.13526640655E+03  0.63187270370E+03  0.64728475754E+03  0.00000000000E+00 0. -1.
         22    1    3    3    0    0  0.40590878721E+02 -0.55213798673E+02  0.49083879873E+02  0.84293595621E+02  0.00000000000E+00 0. -1.
         22    1    3    3    0    0 -0.62341498403E+02 -0.44188378319E+02  0.18256218143E+03  0.19790913392E+03  0.00000000000E+00 0. -1.
</event>
<event>
 7    1  0.6262315E-006  0.5670996E+02  0.7818608E-02  0.1464059E+00
          2   -1    0    0  502    0  0.00000000000E+00  0.00000000000E+00  0.30637134814E+04  0.30637134814E+04  0.00000000000E+00 0. -1.
          1   -1    0    0  501    0 -0.00000000000E+00 -0.00000000000E+00 -0.43451678238E+02  0.43451678238E+02  0.00000000000E+00 0. -1.
         25    2    1    2    0    0  0.24934002890E+02  0.37536485771E+02  0.15678433261E+03  0.20551526033E+03  0.12499801204E+03 0.  0.
          2    1    1    2  501    0 -0.33534105122E+02  0.18791549384E+02  0.84421025466E+00  0.38449593308E+02  0.00000000000E+00 0. -1.
          1    1    1    2  502    0  0.86001022316E+01 -0.56328035156E+02  0.28626332603E+04  0.28632003060E+04  0.00000000000E+00 0. -1.
         22    1    3    3    0    0 -0.32196483011E+02 -0.22682042539E+02  0.92471539438E+02  0.10050907510E+03  0.00000000000E+00 0. -1.
         22    1    3    3    0    0  0.57130485901E+02  0.60218528310E+02  0.64312793173E+02  0.10500618523E+03  0.00000000000E+00 0. -1.
</event>
<event>
 7    1  0.6262315E-006  0.1150504E+03  0.7818608E-02  0.1291648E+00
          2   -1    0    0  502    0  0.00000000000E+00  0.00000000000E+00  0.17946460545E+04  0.17946460545E+04  0.00000000000E+00 0. -1.
          1   -1    0    0  501    0 -0.00000000000E+00 -0.00000000000E+00 -0.42380749291E+03  0.42380749291E+03  0.00000000000E+00 0. -1.
         25    2    1    2    0    0 -0.42940810028E+02  0.54751718413E+02  0.28031432555E+03  0.31471017584E+03  0.12499883933E+03 0.  0.
          2    1    1    2  501    0  0.37142916879E+02  0.68701280237E+02 -0.40027860982E+03  0.40782646758E+03  0.00000000000E+00 0. -1.
          1    1    1    2  502    0  0.57978931491E+01 -0.12345299865E+03  0.14908028458E+04  0.14959169040E+04  0.00000000000E+00 0. -1.
         22    1    3    3    0    0  0.29953612302E+02 -0.13768117478E+02  0.27881700930E+02  0.43176025704E+02  0.00000000000E+00 0.  1.
         22    1    3    3    0    0 -0.72894422330E+02  0.68519835891E+02  0.25243262462E+03  0.27153415014E+03  0.00000000000E+00 0.  1.
</event>
<event>
 7    1  0.6262315E-006  0.8267832E+02  0.7818608E-02  0.1332350E+00
          2   -1    0    0  502    0  0.00000000000E+00  0.00000000000E+00  0.13376311676E+04  0.13376311676E+04  0.00000000000E+00 0. -1.
          1   -1    0    0  501    0 -0.00000000000E+00 -0.00000000000E+00 -0.69644548139E+02  0.69644548139E+02  0.00000000000E+00 0. -1.
         25    2    1    2    0    0 -0.80296757428E+02 -0.69577908694E+01  0.22580346792E+03  0.27038590163E+03  0.12500139826E+03 0.  0.
          2    1    1    2  501    0  0.46812181032E+02  0.74287812063E+02 -0.41050979451E+01  0.87902850598E+02  0.00000000000E+00 0. -1.
          1    1    1    2  502    0  0.33484576396E+02 -0.67330021193E+02  0.10462882495E+04  0.10489869635E+04  0.00000000000E+00 0. -1.
         22    1    3    3    0    0 -0.10413720864E+03 -0.36639820229E+02  0.17477464920E+03  0.20672013122E+03  0.00000000000E+00 0.  1.
         22    1    3    3    0    0  0.23840451215E+02  0.29682029360E+02  0.51028818723E+02  0.63665770406E+02  0.00000000000E+00 0.  1.
</event>
<event>
 7    1  0.6262315E-006  0.1506285E+03  0.7818608E-02  0.1354699E+00
          2   -1    0    0  502    0  0.00000000000E+00  0.00000000000E+00  0.87916351845E+03  0.87916351845E+03  0.00000000000E+00 0. -1.
          1   -1    0    0  501    0 -0.00000000000E+00 -0.00000000000E+00 -0.15136333964E+04  0.15136333964E+04  0.00000000000E+00 0. -1.
         25    2    1    2    0    0  0.49010871183E+02  0.13414336877E+03  0.28494996453E+03  0.34237074479E+03  0.12499894287E+03 0.  0.
          2    1    1    2  501    0 -0.28333459346E+02  0.18875008290E+02 -0.14741825597E+04  0.14745756238E+04  0.00000000000E+00 0. -1.
          1    1    1    2  502    0 -0.20677411838E+02 -0.15301837706E+03  0.55476271730E+03  0.57585054622E+03  0.00000000000E+00 0. -1.
         22    1    3    3    0    0  0.62653241314E+02  0.14429881948E+03  0.19362609555E+03  0.24947673805E+03  0.00000000000E+00 0.  1.
         22    1    3    3    0    0 -0.13642370131E+02 -0.10155450702E+02  0.91323868978E+02  0.92894006733E+02  0.00000000000E+00 0.  1.
</event>
<event>
 7    1  0.6262315E-006  0.2698185E+02  0.7818608E-02  0.1670143E+00
          2   -1    0    0  502    0  0.00000000000E+00  0.00000000000E+00  0.48867063240E+03  0.48867063240E+03  0.00000000000E+00 0. -1.
          1   -1    0    0  501    0 -0.00000000000E+00 -0.00000000000E+00 -0.15075521053E+04  0.15075521053E+04  0.00000000000E+00 0. -1.
         25    2    1    2    0    0  0.26434819530E+01 -0.25812814165E+02  0.15111090221E+03  0.19782072174E+03  0.12500097524E+03 0.  0.
          2    1    1    2  501    0  0.18497609278E+02  0.19652940950E+02 -0.14836885133E+04  0.14839339622E+04  0.00000000000E+00 0. -1.
          1    1    1    2  502    0 -0.21141091231E+02  0.61598732148E+01  0.31369613816E+03  0.31446805382E+03  0.00000000000E+00 0. -1.
         22    1    3    3    0    0 -0.28887716637E+01  0.14220274262E+02  0.15639186321E+03  0.15706360520E+03  0.00000000000E+00 0.  1.
         22    1    3    3    0    0  0.55322536167E+01 -0.40033088426E+02 -0.52809609991E+01  0.40757116533E+02  0.00000000000E+00 0.  1.
</event>
<event>
 7    1  0.6262315E-006  0.7282147E+02  0.7818608E-02  0.1481435E+00
          2   -1    0    0  502    0  0.00000000000E+00  0.00000000000E+00  0.74871475184E+03  0.74871475184E+03  0.00000000000E+00 0. -1.
          1   -1    0    0  501    0 -0.00000000000E+00 -0.00000000000E+00 -0.24238988218E+03  0.24238988218E+03  0.00000000000E+00 0. -1.
         25    2    1    2    0    0 -0.65169182691E+02  0.34452771458E+02 -0.12649930744E+03  0.19251379700E+03  0.12500188566E+03 0.  0.
          2    1    1    2  501    0  0.17020667083E+02  0.20239284355E+02 -0.78865271683E+02  0.83180904160E+02  0.00000000000E+00 0. -1.
          1    1    1    2  502    0  0.48148515607E+02 -0.54692055813E+02  0.71168944878E+03  0.71540993286E+03  0.00000000000E+00 0. -1.
         22    1    3    3    0    0 -0.41214922957E+02  0.60179146570E+02 -0.13752735026E+03  0.15567264251E+03  0.00000000000E+00 0. -1.
         22    1    3    3    0    0 -0.23954259734E+02 -0.25726375111E+02  0.11028042818E+02  0.36841154490E+02  0.00000000000E+00 0. -1.
</event>
<event>
 7    1  0.6262315E-006  0.3217736E+02  0.7818608E-02  0.1584047E+00
          2   -1    0    0  502    0  0.00000000000E+00  0.00000000000E+00  0.27766637755E+03  0.27766637755E+03  0.00000000000E+00 0. -1.
          1   -1    0    0  501    0 -0.00000000000E+00 -0.00000000000E+00 -0.17244862818E+03  0.17244862818E+03  0.00000000000E+00 0. -1.
         25    2    1    2    0    0 -0.33980117708E+02 -0.26917256063E+01  0.52073534410E+02  0.13961796378E+03  0.12497851430E+03 0.  0.
          2    1    1    2  501    0  0.16720693036E+02  0.27796592228E+02 -0.12532052092E+03  0.12945062796E+03  0.00000000000E+00 0. -1.
          1    1    1    2  502    0  0.17259424672E+02 -0.25104866621E+02  0.17846473588E+03  0.18104641400E+03  0.00000000000E+00 0. -1.
         22    1    3    3    0    0 -0.41406086943E+02 -0.19871141615E+02 -0.30380627953E+02  0.55066404094E+02  0.00000000000E+00 0. -1.
         22    1    3    3    0    0  0.74259692352E+01  0.17179416008E+02  0.82454162363E+02  0.84551559681E+02  0.00000000000E+00 0. -1.
</event>
<event>
 7    1  0.6262315E-006  0.7818379E+02  0.7818608E-02  0.1449173E+00
          2   -1    0    0  502    0  0.00000000000E+00  0.00000000000E+00  0.46946088086E+03  0.46946088086E+03  0.00000000000E+00 0. -1.
          1   -1    0    0  501    0 -0.00000000000E+00 -0.00000000000E+00 -0.21758544675E+04  0.21758544675E+04  0.00000000000E+00 0. -1.
         25    2    1    2    0    0  0.10532658833E+03 -0.14184848403E+02  0.38527518125E+02  0.16853527208E+03  0.12499947259E+03 0.  0.
          2    1    1    2  501    0 -0.30894286876E+02 -0.34161993934E+01 -0.21067380496E+04  0.21069673318E+04  0.00000000000E+00 0. -1.
          1    1    1    2  502    0 -0.74432301454E+02  0.17601047796E+02  0.36181694488E+03  0.36981274449E+03  0.00000000000E+00 0. -1.
         22    1    3    3    0    0  0.61032727426E+02 -0.66671217986E+02  0.12607810839E+01  0.90397094498E+02  0.00000000000E+00 0. -1.
         22    1    3    3    0    0  0.44293860905E+02  0.52486369584E+02  0.37266737042E+02  0.78138177581E+02  0.00000000000E+00 0. -1.
</event>
<event>
 7    1  0.6262315E-006  0.1032596E+03  0.7818608E-02  0.1389751E+00
          2   -1    0    0  502    0  0.00000000000E+00  0.00000000000E+00  0.41546569362E+03  0.41546569362E+03  0.00000000000E+00 0. -1.
          1   -1    0    0  501    0 -0.00000000000E+00 -0.00000000000E+00 -0.13283566209E+04  0.13283566209E+04  0.00000000000E+00 0. -1.
         25    2    1    2    0    0 -0.71214073984E+02  0.89026794476E+01 -0.77692601305E+03  0.79018331468E+03  0.12499975599E+03 0.  0.
          2    1    1    2  501    0 -0.31803503721E+02 -0.19275640490E+02 -0.53759394561E+03  0.53887870947E+03  0.00000000000E+00 0. -1.
          1    1    1    2  502    0  0.10301757771E+03  0.10372961042E+02  0.40162903137E+03  0.41476029038E+03  0.00000000000E+00 0. -1.
         22    1    3    3    0    0 -0.60472262284E+02 -0.66123873088E+01 -0.13606618564E+03  0.14904571462E+03  0.00000000000E+00 0.  1.
         22    1    3    3    0    0 -0.10741811700E+02  0.15515066756E+02 -0.64085982741E+03  0.64113760005E+03  0.00000000000E+00 0.  1.
</event>
<event>
 7    1  0.1410613E-005  0.5549943E+02  0.7818608E-02  0.1440859E+00
          2   -1    0    0  502    0  0.00000000000E+00  0.00000000000E+00  0.69691147489E+03  0.69691147489E+03  0.00000000000E+00 0. -1.
          1   -1    0    0  501    0 -0.00000000000E+00 -0.00000000000E+00 -0.13739593343E+04  0.13739593343E+04  0.00000000000E+00 0. -1.
         25    2    1    2    0    0 -0.40545449691E+02  0.14922947178E+02 -0.65364366449E+03  0.66688981126E+03  0.12500140951E+03 0.  0.
          2    1    1    2  501    0  0.25947136403E+02  0.38675572064E+02 -0.71181275334E+03  0.71333473880E+03  0.00000000000E+00 0. -1.
          1    1    1    2  502    0  0.14598313288E+02 -0.53598519243E+02  0.68840855839E+03  0.69064625916E+03  0.00000000000E+00 0. -1.
         22    1    3    3    0    0 -0.84346445665E+02  0.22032114675E+02 -0.39945622659E+03  0.40885818315E+03  0.00000000000E+00 0.  1.
         22    1    3    3    0    0  0.43800995974E+02 -0.71091674967E+01 -0.25418743791E+03  0.25803162810E+03  0.00000000000E+00 0.  1.
</event>
<event>
 7    1  0.6262315E-006  0.1876462E+03  0.7818608E-02  0.1336653E+00
          2   -1    0    0  502    0  0.00000000000E+00  0.00000000000E+00  0.92729421568E+03  0.92729421568E+03  0.00000000000E+00 0. -1.
          1   -1    0    0  501    0 -0.00000000000E+00 -0.00000000000E+00 -0.29273520409E+03  0.29273520409E+03  0.00000000000E+00 0. -1.
         25    2    1    2    0    0  0.16138501794E+02 -0.20726857434E+03  0.75568968938E+02  0.25408147975E+03  0.12500406447E+03 0.  0.
          2    1    1    2  501    0 -0.32519639774E+02  0.17988428244E+03 -0.16199902375E+03  0.24425307723E+03  0.00000000000E+00 0. -1.
          1    1    1    2  502    0  0.16381137980E+02  0.27384291898E+02  0.72098906640E+03  0.72169486280E+03  0.00000000000E+00 0. -1.
         22    1    3    3    0    0  0.68893661287E+02 -0.14783418075E+03  0.49528649188E+02  0.17045342078E+03  0.00000000000E+00 0.  1.
         22    1    3    3    0    0 -0.52755159493E+02 -0.59434393584E+02  0.26040319750E+02  0.83628058967E+02  0.00000000000E+00 0.  1.
</event>
<event>
 7    1  0.6262315E-006  0.4881072E+02  0.7818608E-02  0.1487390E+00
          2   -1    0    0  502    0  0.00000000000E+00  0.00000000000E+00  0.29864805025E+02  0.29864805025E+02  0.00000000000E+00 0. -1.
          1   -1    0    0  501    0 -0.00000000000E+00 -0.00000000000E+00 -0.42110334030E+03  0.42110334030E+03  0.00000000000E+00 0. -1.
         25    2    1    2    0    0 -0.61759331578E+01 -0.59527119058E+01 -0.23363927735E+03  0.26511422516E+03  0.12499865414E+03 0.  0.
          2    1    1    2  501    0  0.36451930773E+02 -0.32461413537E+02 -0.90450339775E+02  0.10278010796E+03  0.00000000000E+00 0. -1.
          1    1    1    2  502    0 -0.30275997615E+02  0.38414125443E+02 -0.67148918157E+02  0.83073812208E+02  0.00000000000E+00 0. -1.
         22    1    3    3    0    0 -0.59681788877E+02 -0.29521777481E+02 -0.13258343334E+03  0.14836380308E+03  0.00000000000E+00 0. -1.
         22    1    3    3    0    0  0.53505855719E+02  0.23569065575E+02 -0.10105584401E+03  0.11675042208E+03  0.00000000000E+00 0. -1.
</event>
<event>
 7    1  0.6262315E-006  0.6999378E+02  0.7818608E-02  0.1377630E+00
          2   -1    0    0  502    0  0.00000000000E+00  0.00000000000E+00  0.27744358144E+03  0.27744358144E+03  0.00000000000E+00 0. -1.
          1   -1    0    0  501    0 -0.00000000000E+00 -0.00000000000E+00 -0.10889697696E+04  0.10889697696E+04  0.00000000000E+00 0. -1.
         25    2    1    2    0    0 -0.31229691184E+02  0.47563584534E+02 -0.17712819459E+03  0.22413649460E+03  0.12500073082E+03 0.  0.
          2    1    1    2  501    0 -0.25949719572E+02 -0.67426757403E+02 -0.88323416900E+03  0.88618415290E+03  0.00000000000E+00 0. -1.
          1    1    1    2  502    0  0.57179410755E+02  0.19863172870E+02  0.24883617539E+03  0.25609270359E+03  0.00000000000E+00 0. -1.
         22    1    3    3    0    0  0.28567666643E+02 -0.24455052301E+00 -0.13244582177E+03  0.13549194473E+03  0.00000000000E+00 0. -1.
         22    1    3    3    0    0 -0.59797357826E+02  0.47808135057E+02 -0.44682372824E+02  0.88644549871E+02  0.00000000000E+00 0. -1.
</event>
<event>
 7    1  0.6262315E-006  0.1779244E+03  0.7818608E-02  0.1211041E+00
          2   -1    0    0  502    0  0.00000000000E+00  0.00000000000E+00  0.21133479846E+03  0.21133479846E+03  0.00000000000E+00 0. -1.
          1   -1    0    0  501    0 -0.00000000000E+00 -0.00000000000E+00 -0.13590746851E+04  0.13590746851E+04  0.00000000000E+00 0. -1.
         25    2    1    2    0    0 -0.11003550125E+03  0.12087858859E+03 -0.70094805254E+03  0.73053039950E+03  0.12500818978E+03 0.  0.
          2    1    1    2  501    0  0.20320977250E+03 -0.57170075390E+02 -0.60770493385E+03  0.64332566853E+03  0.00000000000E+00 0. -1.
          1    1    1    2  502    0 -0.93174271246E+02 -0.63708513198E+02  0.16091309977E+03  0.19655341552E+03  0.00000000000E+00 0. -1.
         22    1    3    3    0    0 -0.89332182034E+02  0.87774965586E+02 -0.66741152592E+03  0.67906025378E+03  0.00000000000E+00 0. -1.
         22    1    3    3    0    0 -0.20703319219E+02  0.33103623002E+02 -0.33536526624E+02  0.51470145721E+02  0.00000000000E+00 0. -1.
</event>
<event>
 7    1  0.6262315E-006  0.7566727E+02  0.7818608E-02  0.1461835E+00
          2   -1    0    0  502    0  0.00000000000E+00  0.00000000000E+00  0.78026184342E+03  0.78026184342E+03  0.00000000000E+00 0. -1.
          1   -1    0    0  501    0 -0.00000000000E+00 -0.00000000000E+00 -0.27465973649E+03  0.27465973649E+03  0.00000000000E+00 0. -1.
         25    2    1    2    0    0 -0.47086418340E+02  0.74273845783E+01  0.48035396163E+03  0.49863512357E+03  0.12499904468E+03 0.  0.
          2    1    1    2  501    0  0.73019087272E+02 -0.21015393308E+02 -0.25931670721E+03  0.27021951909E+03  0.00000000000E+00 0. -1.
          1    1    1    2  502    0 -0.25932668932E+02  0.13588008730E+02  0.28456485251E+03  0.28606693724E+03  0.00000000000E+00 0. -1.
         22    1    3    3    0    0 -0.60940512857E+01  0.62267064190E+02  0.17957232151E+03  0.19015925799E+03  0.00000000000E+00 0. -1.
         22    1    3    3    0    0 -0.40992367054E+02 -0.54839679612E+02  0.30078164012E+03  0.30847586559E+03  0.00000000000E+00 0. -1.
</event>
<event>
 7    1  0.6262315E-006  0.9062766E+02  0.7818608E-02  0.1361906E+00
          2   -1    0    0  502    0  0.00000000000E+00  0.00000000000E+00  0.66182523395E+03  0.66182523395E+03  0.00000000000E+00 0. -1.
          1   -1    0    0  501    0 -0.00000000000E+00 -0.00000000000E+00 -0.17870450283E+04  0.17870450283E+04  0.00000000000E+00 0. -1.
         25    2    1    2    0    0 -0.75619553317E+02 -0.33153141530E+02  0.95080932010E+02  0.17745713479E+03  0.12503280937E+03 0.  0.
          2    1    1    2  501    0  0.46729473973E+02  0.77886005538E+02 -0.17433227319E+04  0.17456872633E+04  0.00000000000E+00 0. -1.
          1    1    1    2  502    0  0.28890079343E+02 -0.44732864008E+02  0.52302200563E+03  0.52572586410E+03  0.00000000000E+00 0. -1.
         22    1    3    3    0    0 -0.95302071295E+02  0.14572281613E+02  0.48490854533E+02  0.10791755723E+03  0.00000000000E+00 0. -1.
         22    1    3    3    0    0  0.19682517978E+02 -0.47725423143E+02  0.46590077477E+02  0.69539577562E+02  0.00000000000E+00 0. -1.
</event>
<event>
 7    1  0.6262315E-006  0.6475462E+02  0.7818608E-02  0.1425416E+00
          2   -1    0    0  502    0  0.00000000000E+00  0.00000000000E+00  0.55501639481E+03  0.55501639481E+03  0.00000000000E+00 0. -1.
          1   -1    0    0  501    0 -0.00000000000E+00 -0.00000000000E+00 -0.14313097620E+04  0.14313097620E+04  0.00000000000E+00 0. -1.
         25    2    1    2    0    0 -0.75118090789E+02  0.17533152207E+02 -0.11270565534E+02  0.14731493235E+03  0.12499809861E+03 0.  0.
          2    1    1    2  501    0  0.42794513909E+02 -0.48625473917E+02 -0.13502062944E+04  0.13517591667E+04  0.00000000000E+00 0. -1.
          1    1    1    2  502    0  0.32323576880E+02  0.31092321710E+02  0.48518349282E+03  0.48725205776E+03  0.00000000000E+00 0. -1.
         22    1    3    3    0    0 -0.10902293677E+03  0.23215707473E+02 -0.11311471954E+01  0.11147308782E+03  0.00000000000E+00 0.  1.
         22    1    3    3    0    0  0.33904845976E+02 -0.56825552660E+01 -0.10139418338E+02  0.35841844529E+02  0.00000000000E+00 0.  1.
</event>
<event>
 7    1  0.6262315E-006  0.1793762E+03  0.7818608E-02  0.1255223E+00
          2   -1    0    0  502    0  0.00000000000E+00  0.00000000000E+00  0.12416356113E+04  0.12416356113E+04  0.00000000000E+00 0. -1.
          1   -1    0    0  501    0 -0.00000000000E+00 -0.00000000000E+00 -0.64158419470E+03  0.64158419470E+03  0.00000000000E+00 0. -1.
         25    2    1    2    0    0 -0.16249730955E+03  0.13380947936E+03  0.32029443528E+03  0.40313380991E+03  0.12497196104E+03 0.  0.
          2    1    1    2  501    0 -0.52217741569E+00 -0.71105927857E+02 -0.58933867955E+03  0.59361300934E+03  0.00000000000E+00 0. -1.
          1    1    1    2  502    0  0.16301948696E+03 -0.62703551500E+02  0.86909566088E+03  0.88647298676E+03  0.00000000000E+00 0. -1.
         22    1    3    3    0    0 -0.82007004392E+01  0.56992479251E+02  0.15070657589E+03  0.16133154123E+03  0.00000000000E+00 0. -1.
         22    1    3    3    0    0 -0.15429660911E+03  0.76817000106E+02  0.16958785939E+03  0.24180226868E+03  0.00000000000E+00 0. -1.
</event>
<event>
 7    1  0.6262315E-006  0.9186011E+02  0.7818608E-02  0.1385347E+00
          2   -1    0    0  502    0  0.00000000000E+00  0.00000000000E+00  0.84604673439E+03  0.84604673439E+03  0.00000000000E+00 0. -1.
          1   -1    0    0  501    0 -0.00000000000E+00 -0.00000000000E+00 -0.13524277694E+03  0.13524277694E+03  0.00000000000E+00 0. -1.
         25    2    1    2    0    0  0.69113949919E+02 -0.24943026163E+02  0.21636764282E+03  0.26045885054E+03  0.12499985334E+03 0.  0.
          2    1    1    2  501    0 -0.13798485774E+01 -0.43293225313E+02 -0.10507802460E+03  0.11365561400E+03  0.00000000000E+00 0. -1.
          1    1    1    2  502    0 -0.67734101342E+02  0.68236251476E+02  0.59951433923E+03  0.60717504678E+03  0.00000000000E+00 0. -1.
         22    1    3    3    0    0  0.33761136213E+02 -0.38419543151E+02  0.21666854963E+03  0.22262330519E+03  0.00000000000E+00 0.  1.
         22    1    3    3    0    0  0.35352813706E+02  0.13476516988E+02 -0.30090680749E+00  0.37835545351E+02  0.00000000000E+00 0.  1.
</event>
<event>
 7    1  0.6262315E-006  0.5534830E+02  0.7818608E-02  0.1450545E+00
          2   -1    0    0  502    0  0.00000000000E+00  0.00000000000E+00  0.19957486765E+04  0.19957486765E+04  0.00000000000E+00 0. -1.
          1   -1    0    0  501    0 -0.00000000000E+00 -0.00000000000E+00 -0.71178647011E+03  0.71178647011E+03  0.00000000000E+00 0. -1.
         25    2    1    2    0    0  0.53096955619E+02  0.53544613223E+01  0.89037734831E+02  0.16248235789E+03  0.12499936580E+03 0.  0.
          2    1    1    2  501    0 -0.33597222046E+02 -0.44199742529E+02 -0.67366949133E+03  0.67595338161E+03  0.00000000000E+00 0. -1.
          1    1    1    2  502    0 -0.19499733574E+02  0.38845281206E+02  0.18685939629E+04  0.18690994071E+04  0.00000000000E+00 0. -1.
         22    1    3    3    0    0 -0.15968907807E+02  0.50196506143E+02  0.25790406672E+02  0.58650151934E+02  0.00000000000E+00 0.  1.
         22    1    3    3    0    0  0.69065863427E+02 -0.44842044821E+02  0.63247328159E+02  0.10383220596E+03  0.00000000000E+00 0.  1.
</event>
<event>
 7    1  0.6262315E-006  0.6267801E+02  0.7818608E-02  0.1423231E+00
          2   -1    0    0  502    0  0.00000000000E+00  0.00000000000E+00  0.14808234150E+04  0.14808234150E+04  0.00000000000E+00 0. -1.
          1   -1    0    0  501    0 -0.00000000000E+00 -0.00000000000E+00 -0.23944611393E+03  0.23944611393E+03  0.00000000000E+00 0. -1.
         25    2    1    2    0    0  0.19832687665E+02  0.11693866755E+01  0.21878918332E+03  0.25276366108E+03  0.12500423456E+03 0.  0.
          2    1    1    2  501    0  0.41535610305E+02 -0.22243763524E+02 -0.21910741152E+03  0.22411615230E+03  0.00000000000E+00 0. -1.
          1    1    1    2  502    0 -0.61368297970E+02  0.21074376848E+02  0.12416955293E+04  0.12433897156E+04  0.00000000000E+00 0. -1.
         22    1    3    3    0    0 -0.30135570879E+01 -0.60049176836E+02  0.88269610736E+02  0.10680126097E+03  0.00000000000E+00 0.  1.
         22    1    3    3    0    0  0.22846244753E+02  0.61218563512E+02  0.13051957258E+03  0.14596240011E+03  0.00000000000E+00 0.  1.
</event>
<event>
 7    1  0.6262315E-006  0.7948817E+02  0.7818608E-02  0.1476606E+00
          2   -1    0    0  502    0  0.00000000000E+00  0.00000000000E+00  0.38830769365E+03  0.38830769365E+03  0.00000000000E+00 0. -1.
          1   -1    0    0  501    0 -0.00000000000E+00 -0.00000000000E+00 -0.20563265063E+03  0.20563265063E+03  0.00000000000E+00 0. -1.
         25    2    1    2    0    0  0.84140532115E+01 -0.86178523325E+02  0.17902076277E+03  0.23489008009E+03  0.12500952782E+03 0.  0.
          2    1    1    2  501    0 -0.30004511475E+02  0.73439100135E+02 -0.16788701801E+03  0.18568689494E+03  0.00000000000E+00 0. -1.
          1    1    1    2  502    0  0.21590458264E+02  0.12739423190E+02  0.17154129825E+03  0.17336336925E+03  0.00000000000E+00 0. -1.
         22    1    3    3    0    0  0.67497208390E+01 -0.99377160364E+02  0.19200310715E+03  0.21630203857E+03  0.00000000000E+00 0. -1.
         22    1    3    3    0    0  0.16643323726E+01  0.13198637039E+02 -0.12982344380E+02  0.18588041520E+02  0.00000000000E+00 0. -1.
</event>
<event>
 7    1  0.6262315E-006  0.8111401E+02  0.7818608E-02  0.1405819E+00
          2   -1    0    0  502    0  0.00000000000E+00  0.00000000000E+00  0.13988814119E+03  0.13988814119E+03  0.00000000000E+00 0. -1.
          1   -1    0    0  501    0 -0.00000000000E+00 -0.00000000000E+00 -0.12600423758E+04  0.12600423758E+04  0.00000000000E+00 0. -1.
         25    2    1    2    0    0  0.54369077178E+02 -0.22850904246E+02 -0.15467048778E+03  0.20742819137E+03  0.12500133761E+03 0.  0.
          2    1    1    2  501    0 -0.82485387295E+02 -0.79029053134E+01 -0.10735176454E+04  0.10767109315E+04  0.00000000000E+00 0. -1.
          1    1    1    2  502    0  0.28116310116E+02  0.30753809559E+02  0.10803389860E+03  0.11579139408E+03  0.00000000000E+00 0. -1.
         22    1    3    3    0    0  0.18506767562E+02 -0.65596822154E+02 -0.12923602239E+03  0.14610747073E+03  0.00000000000E+00 0. -1.
         22    1    3    3    0    0  0.35862309617E+02  0.42745917909E+02 -0.25434465394E+02  0.61320720632E+02  0.00000000000E+00 0. -1.
</event>
<event>
 7    1  0.6262315E-006  0.1063960E+03  0.7818608E-02  0.1272850E+00
          2   -1    0    0  502    0  0.00000000000E+00  0.00000000000E+00  0.89005923279E+03  0.89005923279E+03  0.00000000000E+00 0. -1.
          1   -1    0    0  501    0 -0.00000000000E+00 -0.00000000000E+00 -0.60362030025E+03  0.60362030025E+03  0.00000000000E+00 0. -1.
         25    2    1    2    0    0  0.18785188940E+03  0.82983467293E+02 -0.11011962029E+03  0.26443257312E+03  0.12499466691E+03 0.  0.
          2    1    1    2  501    0 -0.93934236830E+02 -0.36917646778E+02 -0.40678630387E+03  0.41912009079E+03  0.00000000000E+00 0. -1.
          1    1    1    2  502    0 -0.93917652574E+02 -0.46065820515E+02  0.80334485671E+03  0.81012686913E+03  0.00000000000E+00 0. -1.
         22    1    3    3    0    0  0.35321436758E+02  0.60764691944E+02 -0.81564810340E+02  0.10766972633E+03  0.00000000000E+00 0.  1.
         22    1    3    3    0    0  0.15253045265E+03  0.22218775349E+02 -0.28554809954E+02  0.15676284679E+03  0.00000000000E+00 0.  1.
</event>
<event>
 7    1  0.6262315E-006  0.6608713E+02  0.7818608E-02  0.1385304E+00
          2   -1    0    0  502    0  0.00000000000E+00  0.00000000000E+00  0.16981763578E+02  0.16981763578E+02  0.00000000000E+00 0. -1.
          1   -1    0    0  501    0 -0.00000000000E+00 -0.00000000000E+00 -0.18931494216E+04  0.18931494216E+04  0.00000000000E+00 0. -1.
         25    2    1    2    0    0 -0.50720554403E+02 -0.15164188121E+02 -0.38787011149E+03  0.41093895488E+03  0.12500029602E+03 0.  0.
          2    1    1    2  501    0 -0.38537715668E+02 -0.46285520024E+02 -0.30145762586E+03  0.30741536247E+03  0.00000000000E+00 0. -1.
          1    1    1    2  502    0  0.89258270071E+02  0.61449708145E+02 -0.11868399207E+04  0.11917768679E+04  0.00000000000E+00 0. -1.
         22    1    3    3    0    0  0.12988011438E+02 -0.57672125677E+02 -0.17416368705E+03  0.18392322422E+03  0.00000000000E+00 0. -1.
         22    1    3    3    0    0 -0.63708565841E+02  0.42507937555E+02 -0.21370642444E+03  0.22701573065E+03  0.00000000000E+00 0. -1.
</event>
<event>
 7    1  0.6262315E-006  0.7793204E+02  0.7818608E-02  0.1371678E+00
          2   -1    0    0  502    0  0.00000000000E+00  0.00000000000E+00  0.13643018274E+04  0.13643018274E+04  0.00000000000E+00 0. -1.
          1   -1    0    0  501    0 -0.00000000000E+00 -0.00000000000E+00 -0.17696073923E+04  0.17696073923E+04  0.00000000000E+00 0. -1.
         25    2    1    2    0    0  0.82428114250E+02 -0.78078352047E+02 -0.77888613563E+02  0.18596255527E+03  0.12499925105E+03 0.  0.
          2    1    1    2  501    0 -0.74484697365E+02  0.21542045085E+02 -0.16361413506E+04  0.16379775789E+04  0.00000000000E+00 0. -1.
          1    1    1    2  502    0 -0.79434168853E+01  0.56536306962E+02  0.13087243992E+04  0.13099690855E+04  0.00000000000E+00 0. -1.
         22    1    3    3    0    0 -0.11441438395E+02 -0.66001136939E+02 -0.62751618984E+01  0.67278780062E+02  0.00000000000E+00 0.  1.
         22    1    3    3    0    0  0.93869552646E+02 -0.12077215108E+02 -0.71613451665E+02  0.11868377521E+03  0.00000000000E+00 0.  1.
</event>
<event>
 7    1  0.6262315E-006  0.6984717E+02  0.7818608E-02  0.1371829E+00
          2   -1    0    0  502    0  0.00000000000E+00  0.00000000000E+00  0.33936944203E+04  0.33936944203E+04  0.00000000000E+00 0. -1.
          1   -1    0    0  501    0 -0.00000000000E+00 -0.00000000000E+00 -0.11966967444E+04  0.11966967444E+04  0.00000000000E+00 0. -1.
         25    2    1    2    0    0  0.10134299549E+02  0.25965036114E+02  0.26974889585E+03  0.29860785173E+03  0.12500118070E+03 0.  0.
          2    1    1    2  501    0  0.48568676648E+02 -0.50491875333E+02 -0.11809035415E+04  0.11829799323E+04  0.00000000000E+00 0. -1.
          1    1    1    2  502    0 -0.58702976197E+02  0.24526839219E+02  0.31081523216E+04  0.31088033806E+04  0.00000000000E+00 0. -1.
         22    1    3    3    0    0 -0.50992179037E+01 -0.49321821248E+02  0.13008396343E+03  0.13921379822E+03  0.00000000000E+00 0. -1.
         22    1    3    3    0    0  0.15233517453E+02  0.75286857362E+02  0.13966493243E+03  0.15939405351E+03  0.00000000000E+00 0. -1.
</event>
<event>
 7    1  0.6262315E-006  0.1330315E+03  0.7818608E-02  0.1358382E+00
          2   -1    0    0  502    0  0.00000000000E+00  0.00000000000E+00  0.29584686872E+04  0.29584686872E+04  0.00000000000E+00 0. -1.
          1   -1    0    0  501    0 -0.00000000000E+00 -0.00000000000E+00 -0.50067640402E+03  0.50067640402E+03  0.00000000000E+00 0. -1.
         25    2    1    2    0    0 -0.96766637797E+02  0.14389299463E+01  0.75216321884E+03  0.76859632430E+03  0.12499979693E+03 0.  0.
          2    1    1    2  501    0  0.13331404295E+03  0.63468138967E+01 -0.48325462739E+03  0.50134613890E+03  0.00000000000E+00 0. -1.
          1    1    1    2  502    0 -0.36547405157E+02 -0.77857438429E+01  0.21888836917E+04  0.21892026280E+04  0.00000000000E+00 0. -1.
         22    1    3    3    0    0 -0.95919451942E+02 -0.48334683815E+02  0.55041916220E+03  0.56080124558E+03  0.00000000000E+00 0.  1.
         22    1    3    3    0    0 -0.84718585563E+00  0.49773613761E+02  0.20174405664E+03  0.20779507872E+03  0.00000000000E+00 0.  1.
</event>
<event>
 7    1  0.6262315E-006  0.3301525E+02  0.7818608E-02  0.1597636E+00
          2   -1    0    0  502    0  0.00000000000E+00  0.00000000000E+00  0.42358280142E+04  0.42358280142E+04  0.00000000000E+00 0. -1.
          1   -1    0    0  501    0 -0.00000000000E+00 -0.00000000000E+00 -0.13972193447E+02  0.13972193447E+02  0.00000000000E+00 0. -1.
         25    2    1    2    0    0  0.35108779111E+02  0.27629236056E+02  0.32455757305E+04  0.32482889014E+04  0.12499185376E+03 0.  0.
          2    1    1    2  501    0 -0.32996357786E+02 -0.37635269383E+00  0.94915732862E+01  0.34336441748E+02  0.00000000000E+00 0. -1.
          1    1    1    2  502    0 -0.21124213258E+01 -0.27252883362E+02  0.96678851697E+03  0.96717486450E+03  0.00000000000E+00 0. -1.
         22    1    3    3    0    0 -0.29418586389E+02  0.53122926044E+02  0.11979898505E+04  0.11995278989E+04  0.00000000000E+00 0.  1.
         22    1    3    3    0    0  0.64527365500E+02 -0.25493689988E+02  0.20475858801E+04  0.20487610025E+04  0.00000000000E+00 0.  1.
</event>
<event>
 7    1  0.6262315E-006  0.1167866E+03  0.7818608E-02  0.1289906E+00
          2   -1    0    0  502    0  0.00000000000E+00  0.00000000000E+00  0.27062186276E+04  0.27062186276E+04  0.00000000000E+00 0. -1.
          1   -1    0    0  501    0 -0.00000000000E+00 -0.00000000000E+00 -0.50974738894E+02  0.50974738894E+02  0.00000000000E+00 0. -1.
         25    2    1    2    0    0 -0.41420236663E+02  0.24916095576E+02  0.14643769154E+04  0.14704968062E+04  0.12499863538E+03 0.  0.
          2    1    1    2  501    0  0.71635334260E+02 -0.97044255850E+02  0.31460017330E+02  0.12465529029E+03  0.00000000000E+00 0. -1.
          1    1    1    2  502    0 -0.30215097597E+02  0.72128160274E+02  0.11594069560E+04  0.11620412700E+04  0.00000000000E+00 0. -1.
         22    1    3    3    0    0  0.36384516774E+02  0.26236002364E+02  0.28039048709E+03  0.28395595808E+03  0.00000000000E+00 0. -1.
         22    1    3    3    0    0 -0.77804753438E+02 -0.13199067880E+01  0.11839864283E+04  0.11865408481E+04  0.00000000000E+00 0. -1.
</event>
<event>
 7    1  0.6262315E-006  0.8014817E+02  0.7818608E-02  0.1342627E+00
          2   -1    0    0  502    0  0.00000000000E+00  0.00000000000E+00  0.41350480941E+03  0.41350480941E+03  0.00000000000E+00 0. -1.
          1   -1    0    0  501    0 -0.00000000000E+00 -0.00000000000E+00 -0.86451940677E+03  0.86451940677E+03  0.00000000000E+00 0. -1.
         25    2    1    2    0    0 -0.78625554454E+02 -0.22150300282E+02 -0.24311734718E+03  0.28531281095E+03  0.12499896789E+03 0.  0.
          2    1    1    2  501    0  0.33342147482E+02  0.76756279834E+02 -0.59414176992E+03  0.60000639001E+03  0.00000000000E+00 0. -1.
          1    1    1    2  502    0  0.45283406972E+02 -0.54605979552E+02  0.38624451974E+03  0.39270501522E+03  0.00000000000E+00 0. -1.
         22    1    3    3    0    0 -0.84996463177E+02  0.26224583447E+02 -0.20476761116E+03  0.22325300023E+03  0.00000000000E+00 0. -1.
         22    1    3    3    0    0  0.63709087236E+01 -0.48374883730E+02 -0.38349736019E+02  0.62059810720E+02  0.00000000000E+00 0. -1.
</event>
<event>
 7    1  0.6262315E-006  0.6034370E+02  0.7818608E-02  0.1426244E+00
          2   -1    0    0  502    0  0.00000000000E+00  0.00000000000E+00  0.52542015858E+02  0.52542015858E+02  0.00000000000E+00 0. -1.
          1   -1    0    0  501    0 -0.00000000000E+00 -0.00000000000E+00 -0.62759937613E+03  0.62759937613E+03  0.00000000000E+00 0. -1.
         25    2    1    2    0    0  0.68130163377E+02 -0.35732906626E+02 -0.19842041250E+03  0.24680831501E+03  0.12500049793E+03 0.  0.
          2    1    1    2  501    0 -0.43841767713E+02 -0.19110616856E+02 -0.36989521105E+03  0.37297423963E+03  0.00000000000E+00 0. -1.
          1    1    1    2  502    0 -0.24288395664E+02  0.54843523483E+02 -0.67417367249E+01  0.60358837348E+02  0.00000000000E+00 0. -1.
         22    1    3    3    0    0  0.21096232918E+02 -0.38589220289E+02 -0.11563924912E+01  0.43994502036E+02  0.00000000000E+00 0. -1.
         22    1    3    3    0    0  0.47033930459E+02  0.28563136624E+01 -0.19726402001E+03  0.20281381297E+03  0.00000000000E+00 0. -1.
</event>
<event>
 7    1  0.6262315E-006  0.1492368E+03  0.7818608E-02  0.1304004E+00
          2   -1    0    0  502    0  0.00000000000E+00  0.00000000000E+00  0.49406881585E+03  0.49406881585E+03  0.00000000000E+00 0. -1.
          1   -1    0    0  501    0 -0.00000000000E+00 -0.00000000000E+00 -0.49158741117E+03  0.49158741117E+03  0.00000000000E+00 0. -1.
         25    2    1    2    0    0 -0.14012168331E+03  0.61656202825E+02  0.77684107129E+02  0.21235775559E+03  0.12500168951E+03 0.  0.
          2    1    1    2  501    0  0.10741507583E+03 -0.10425410261E+03 -0.40883210475E+03  0.43537409925E+03  0.00000000000E+00 0. -1.
          1    1    1    2  502    0  0.32706607487E+02  0.42597899790E+02  0.33362940229E+03  0.33792437218E+03  0.00000000000E+00 0. -1.
         22    1    3    3    0    0 -0.86864002578E+02 -0.27029216361E+02  0.55475752877E+02  0.10655276927E+03  0.00000000000E+00 0. -1.
         22    1    3    3    0    0 -0.53257680734E+02  0.88685419186E+02  0.22208354252E+02  0.10580498633E+03  0.00000000000E+00 0. -1.
</event>
<event>
 7    1  0.6262315E-006  0.1502981E+03  0.7818608E-02  0.1295005E+00
          2   -1    0    0  502    0  0.00000000000E+00  0.00000000000E+00  0.91385945725E+03  0.91385945725E+03  0.00000000000E+00 0. -1.
          1   -1    0    0  501    0 -0.00000000000E+00 -0.00000000000E+00 -0.13412546065E+03  0.13412546065E+03  0.00000000000E+00 0. -1.
         25    2    1    2    0    0  0.47472116654E+02  0.99237311570E+02  0.21268772020E+03  0.27011959834E+03  0.12500754063E+03 0.  0.
          2    1    1    2  501    0  0.28724110388E+01  0.57871159876E+02 -0.86335735504E+02  0.10397682971E+03  0.00000000000E+00 0. -1.
          1    1    1    2  502    0 -0.50344527693E+02 -0.15710847145E+03  0.65338201191E+03  0.67388848985E+03  0.00000000000E+00 0. -1.
         22    1    3    3    0    0  0.38357860339E+02 -0.15467898575E+02  0.20602657430E+02  0.46206610233E+02  0.00000000000E+00 0.  1.
         22    1    3    3    0    0  0.91142563149E+01  0.11470521014E+03  0.19208506277E+03  0.22391298811E+03  0.00000000000E+00 0.  1.
</event>
<event>
 7    1  0.6262315E-006  0.8795365E+02  0.7818608E-02  0.1345502E+00
          2   -1    0    0  502    0  0.00000000000E+00  0.00000000000E+00  0.26506790567E+03  0.26506790567E+03  0.00000000000E+00 0. -1.
          1   -1    0    0  501    0 -0.00000000000E+00 -0.00000000000E+00 -0.56357919471E+03  0.56357919471E+03  0.00000000000E+00 0. -1.
         25    2    1    2    0    0 -0.29910459960E+02  0.39888871708E+02  0.13653101559E+02  0.13526516327E+03  0.12499799803E+03 0.  0.
          2    1    1    2  501    0 -0.62462997729E+02 -0.86808426256E+01 -0.48814168684E+03  0.49219842497E+03  0.00000000000E+00 0. -1.
          1    1    1    2  502    0  0.92373457689E+02 -0.31208029082E+02  0.17597729624E+03  0.20118351214E+03  0.00000000000E+00 0. -1.
         22    1    3    3    0    0  0.31252016246E+02  0.47709025845E+02 -0.25233917016E+02  0.62366579468E+02  0.00000000000E+00 0. -1.
         22    1    3    3    0    0 -0.61162476207E+02 -0.78201541366E+01  0.38887018576E+02  0.72898583801E+02  0.00000000000E+00 0. -1.
</event>
<event>
 7    1  0.6262315E-006  0.1062904E+03  0.7818608E-02  0.1341303E+00
          2   -1    0    0  502    0  0.00000000000E+00  0.00000000000E+00  0.26189020196E+03  0.26189020196E+03  0.00000000000E+00 0. -1.
          1   -1    0    0  501    0 -0.00000000000E+00 -0.00000000000E+00 -0.15203002249E+04  0.15203002249E+04  0.00000000000E+00 0. -1.
         25    2    1    2    0    0 -0.15496463630E+03 -0.94675985688E+01 -0.33511841443E+03  0.38991409321E+03  0.12499989788E+03 0.  0.
          2    1    1    2  501    0  0.10224955872E+03 -0.27252584742E+01 -0.11523670636E+04  0.11568976829E+04  0.00000000000E+00 0. -1.
          1    1    1    2  502    0  0.52715077576E+02  0.12192857043E+02  0.22907545505E+03  0.23537865084E+03  0.00000000000E+00 0. -1.
         22    1    3    3    0    0 -0.17516037287E+03 -0.31359117799E+01 -0.27384052643E+03  0.32508402619E+03  0.00000000000E+00 0.  1.
         22    1    3    3    0    0  0.20195736566E+02 -0.63316867889E+01 -0.61277887994E+02  0.64830067022E+02  0.00000000000E+00 0.  1.
</event>
<event>
 7    1  0.6262315E-006  0.6386769E+02  0.7818608E-02  0.1458389E+00
          2   -1    0    0  502    0  0.00000000000E+00  0.00000000000E+00  0.85114009341E+02  0.85114009341E+02  0.00000000000E+00 0. -1.
          1   -1    0    0  501    0 -0.00000000000E+00 -0.00000000000E+00 -0.50637627819E+03  0.50637627819E+03  0.00000000000E+00 0. -1.
         25    2    1    2    0    0  0.54788693357E+01  0.76627231714E+02 -0.19105860527E+03  0.24089709771E+03  0.12500508145E+03 0.  0.
          2    1    1    2  501    0 -0.32813040259E+02 -0.53874047740E+02 -0.28132900128E+03  0.28831426533E+03  0.00000000000E+00 0. -1.
          1    1    1    2  502    0  0.27334170923E+02 -0.22753183973E+02  0.51125337700E+02  0.62278924493E+02  0.00000000000E+00 0. -1.
         22    1    3    3    0    0  0.32598426890E+01  0.10380453238E+03 -0.18619241062E+03  0.21319854899E+03  0.00000000000E+00 0. -1.
         22    1    3    3    0    0  0.22190266467E+01 -0.27177300671E+02 -0.48661946515E+01  0.27698548724E+02  0.00000000000E+00 0. -1.
</event>
<event>
 7    1  0.6262315E-006  0.1080023E+03  0.7818608E-02  0.1367768E+00
          2   -1    0    0  502    0  0.00000000000E+00  0.00000000000E+00  0.80501486505E+02  0.80501486505E+02  0.00000000000E+00 0. -1.
          1   -1    0    0  501    0 -0.00000000000E+00 -0.00000000000E+00 -0.25801606055E+04  0.25801606055E+04  0.00000000000E+00 0. -1.
         25    2    1    2    0    0  0.51587917494E+02 -0.67932452310E+02 -0.27127114441E+03  0.31062700380E+03  0.12499988156E+03 0.  0.
          2    1    1    2  501    0 -0.31289616441E+02  0.10533068303E+03 -0.22802809159E+04  0.22829267724E+04  0.00000000000E+00 0. -1.
          1    1    1    2  502    0 -0.20298301053E+02 -0.37398230718E+02  0.51892941318E+02  0.67108315768E+02  0.00000000000E+00 0. -1.
         22    1    3    3    0    0 -0.38192707259E+02 -0.77590717980E+01 -0.42826109274E+02  0.57904764213E+02  0.00000000000E+00 0. -1.
         22    1    3    3    0    0  0.89780624753E+02 -0.60173380512E+02 -0.22844503513E+03  0.25272223958E+03  0.00000000000E+00 0. -1.
</event>
<event>
 7    1  0.6262315E-006  0.3093566E+03  0.7818608E-02  0.1212686E+00
          2   -1    0    0  502    0  0.00000000000E+00  0.00000000000E+00  0.74957419751E+03  0.74957419751E+03  0.00000000000E+00 0. -1.
          1   -1    0    0  501    0 -0.00000000000E+00 -0.00000000000E+00 -0.80199911287E+03  0.80199911287E+03  0.00000000000E+00 0. -1.
         25    2    1    2    0    0 -0.15635605120E+03  0.24582827138E+03  0.16728656843E+03  0.35845342170E+03  0.12500122318E+03 0.  0.
          2    1    1    2  501    0  0.36622256378E+02  0.52231986569E+02 -0.65169086769E+03  0.65480558727E+03  0.00000000000E+00 0. -1.
          1    1    1    2  502    0  0.11973379482E+03 -0.29806025795E+03  0.43197938390E+03  0.53831430142E+03  0.00000000000E+00 0. -1.
         22    1    3    3    0    0 -0.74441930067E+02  0.21090974928E+02  0.49229264828E+02  0.91705783302E+02  0.00000000000E+00 0. -1.
         22    1    3    3    0    0 -0.81914121135E+02  0.22473729645E+03  0.11805730360E+03  0.26674763840E+03  0.00000000000E+00 0. -1.
</event>
<event>
 7    1  0.6262315E-006  0.9639767E+02  0.7818608E-02  0.1388767E+00
          2   -1    0    0  502    0  0.00000000000E+00  0.00000000000E+00  0.19667054982E+02  0.19667054982E+02  0.00000000000E+00 0. -1.
          1   -1    0    0  501    0 -0.00000000000E+00 -0.00000000000E+00 -0.14356470445E+04  0.14356470445E+04  0.00000000000E+00 0. -1.
         25    2    1    2    0    0  0.70072766557E+02  0.52654002936E+02 -0.99056120673E+03  0.10022561241E+04  0.12499278927E+03 0.  0.
          2    1    1    2  501    0  0.26779547253E+02 -0.29918043323E+02 -0.23308270485E+03  0.23651592074E+03  0.00000000000E+00 0. -1.
          1    1    1    2  502    0 -0.96852313810E+02 -0.22735959613E+02 -0.19233607792E+03  0.21654205462E+03  0.00000000000E+00 0. -1.
         22    1    3    3    0    0 -0.31365556569E+02 -0.96306960500E+01 -0.17430354812E+03  0.17736480861E+03  0.00000000000E+00 0.  1.
         22    1    3    3    0    0  0.10143832313E+03  0.62284698986E+02 -0.81625765862E+03  0.82489131549E+03  0.00000000000E+00 0.  1.
</event>
<event>
 7    1  0.6262315E-006  0.7687333E+02  0.7818608E-02  0.1444677E+00
          2   -1    0    0  502    0  0.00000000000E+00  0.00000000000E+00  0.75538344285E+03  0.75538344285E+03  0.00000000000E+00 0. -1.
          1   -1    0    0  501    0 -0.00000000000E+00 -0.00000000000E+00 -0.28153940911E+03  0.28153940911E+03  0.00000000000E+00 0. -1.
         25    2    1    2    0    0 -0.53742645779E+02  0.71470687320E+02  0.39146304097E+02  0.15860395305E+03  0.12500579858E+03 0.  0.
          2    1    1    2  501    0  0.21119391298E+02 -0.73424251765E+02 -0.21480853859E+03  0.22799091580E+03  0.00000000000E+00 0. -1.
          1    1    1    2  502    0  0.32623254481E+02  0.19535644457E+01  0.64950626823E+03  0.65032798311E+03  0.00000000000E+00 0. -1.
         22    1    3    3    0    0 -0.11702280781E+02  0.75412926414E+01  0.73446088329E+02  0.74753878568E+02  0.00000000000E+00 0.  1.
         22    1    3    3    0    0 -0.42040364998E+02  0.63929394678E+02 -0.34299784231E+02  0.83850074487E+02  0.00000000000E+00 0.  1.
</event>
<event>
 7    1  0.6262315E-006  0.2633280E+03  0.7818608E-02  0.1154984E+00
          2   -1    0    0  502    0  0.00000000000E+00  0.00000000000E+00  0.73655419936E+03  0.73655419936E+03  0.00000000000E+00 0. -1.
          1   -1    0    0  501    0 -0.00000000000E+00 -0.00000000000E+00 -0.64993424990E+03  0.64993424990E+03  0.00000000000E+00 0. -1.
         25    2    1    2    0    0 -0.18605991135E+03 -0.24974789542E+02  0.28037365537E+02  0.22727197388E+03  0.12499770207E+03 0.  0.
          2    1    1    2  501    0 -0.98852040229E+02  0.10303685230E+03 -0.50397464870E+03  0.52381176516E+03  0.00000000000E+00 0. -1.
          1    1    1    2  502    0  0.28491195158E+03 -0.78062062753E+02  0.56255723263E+03  0.63540471022E+03  0.00000000000E+00 0. -1.
         22    1    3    3    0    0  0.61616672157E+01  0.22162141768E+02 -0.11071091680E+02  0.25528332135E+02  0.00000000000E+00 0. -1.
         22    1    3    3    0    0 -0.19222157857E+03 -0.47136931310E+02  0.39108457217E+02  0.20174364175E+03  0.00000000000E+00 0. -1.
</event>
<event>
 7    1  0.6262315E-006  0.6804652E+02  0.7818608E-02  0.1460840E+00
          2   -1    0    0  502    0  0.00000000000E+00  0.00000000000E+00  0.10118489829E+03  0.10118489829E+03  0.00000000000E+00 0. -1.
          1   -1    0    0  501    0 -0.00000000000E+00 -0.00000000000E+00 -0.19725985198E+04  0.19725985198E+04  0.00000000000E+00 0. -1.
         25    2    1    2    0    0 -0.30810820261E+02  0.95336809692E+02 -0.70128432159E+03  0.71934970218E+03  0.12500352153E+03 0.  0.
          2    1    1    2  501    0  0.11923876469E+02 -0.30546789097E+02 -0.12496817109E+04  0.12501118605E+04  0.00000000000E+00 0. -1.
          1    1    1    2  502    0  0.18886943791E+02 -0.64790020595E+02  0.79552411019E+02  0.10432185540E+03  0.00000000000E+00 0. -1.
         22    1    3    3    0    0 -0.32712458602E+02 -0.14785926298E+02 -0.33353721323E+03  0.33546356162E+03  0.00000000000E+00 0. -1.
         22    1    3    3    0    0  0.19016383412E+01  0.11012273599E+03 -0.36774710835E+03  0.38388614056E+03  0.00000000000E+00 0. -1.
</event>
<event>
 7    1  0.6262315E-006  0.1173906E+03  0.7818608E-02  0.1330461E+00
          2   -1    0    0  502    0  0.00000000000E+00  0.00000000000E+00  0.56290901221E+03  0.56290901221E+03  0.00000000000E+00 0. -1.
          1   -1    0    0  501    0 -0.00000000000E+00 -0.00000000000E+00 -0.76807835605E+03  0.76807835605E+03  0.00000000000E+00 0. -1.
         25    2    1    2    0    0  0.12096891194E+03  0.26358716307E+02 -0.16166453996E+03  0.23893295384E+03  0.12500109347E+03 0.  0.
          2    1    1    2  501    0 -0.93166637916E+02 -0.72472875872E+02 -0.56023085763E+03  0.57253030836E+03  0.00000000000E+00 0. -1.
          1    1    1    2  502    0 -0.27802274022E+02  0.46114159564E+02  0.51672605375E+03  0.51952410606E+03  0.00000000000E+00 0. -1.
         22    1    3    3    0    0  0.61140889333E+02  0.47194770122E+02 -0.14329761864E+02  0.78555055537E+02  0.00000000000E+00 0.  1.
         22    1    3    3    0    0  0.59828022606E+02 -0.20836053815E+02 -0.14733477810E+03  0.16037789830E+03  0.00000000000E+00 0.  1.
</event>
<event>
 7    1  0.6262315E-006  0.6642505E+02  0.7818608E-02  0.1436328E+00
          2   -1    0    0  502    0  0.00000000000E+00  0.00000000000E+00  0.52655764946E+03  0.52655764946E+03  0.00000000000E+00 0. -1.
          1   -1    0    0  501    0 -0.00000000000E+00 -0.00000000000E+00 -0.31767859479E+02  0.31767859479E+02  0.00000000000E+00 0. -1.
         25    2    1    2    0    0 -0.31400600234E+02  0.32531708062E+02  0.22455443074E+03  0.26094396124E+03  0.12499099494E+03 0.  0.
          2    1    1    2  501    0 -0.39438377595E+02 -0.80695496906E+01  0.46898919535E+02  0.61806244936E+02  0.00000000000E+00 0. -1.
          1    1    1    2  502    0  0.70838977829E+02 -0.24462158371E+02  0.22333643971E+03  0.23557530277E+03  0.00000000000E+00 0. -1.
         22    1    3    3    0    0 -0.72968319128E+02  0.52638359946E+01  0.17956392691E+03  0.19389504226E+03  0.00000000000E+00 0.  1.
         22    1    3    3    0    0  0.41567718894E+02  0.27267872067E+02  0.44990503828E+02  0.67048918976E+02  0.00000000000E+00 0.  1.
</event>
<event>
 7    1  0.6262315E-006  0.8569630E+02  0.7818608E-02  0.1346112E+00
          2   -1    0    0  502    0  0.00000000000E+00  0.00000000000E+00  0.13158030354E+04  0.13158030354E+04  0.00000000000E+00 0. -1.
          1   -1    0    0  501    0 -0.00000000000E+00 -0.00000000000E+00 -0.17689055497E+04  0.17689055497E+04  0.00000000000E+00 0. -1.
         25    2    1    2    0    0 -0.24693358356E+02  0.38683056998E+02  0.28457254747E+03  0.31419293578E+03  0.12501809978E+03 0.  0.
          2    1    1    2  501    0  0.35913913793E+02  0.53439541652E+02 -0.17513842274E+04  0.17525673470E+04  0.00000000000E+00 0. -1.
          1    1    1    2  502    0 -0.11220555437E+02 -0.92122598650E+02  0.10137091655E+04  0.10179483024E+04  0.00000000000E+00 0. -1.
         22    1    3    3    0    0  0.16336168466E+02 -0.20855488950E+02  0.70618666838E+01  0.27416998022E+02  0.00000000000E+00 0. -1.
         22    1    3    3    0    0 -0.41029526822E+02  0.59538545948E+02  0.27751068079E+03  0.28677593776E+03  0.00000000000E+00 0. -1.
</event>
<event>
 7    1  0.6262315E-006  0.2925421E+02  0.7818608E-02  0.1619520E+00
          2   -1    0    0  502    0  0.00000000000E+00  0.00000000000E+00  0.21966559799E+04  0.21966559799E+04  0.00000000000E+00 0. -1.
          1   -1    0    0  501    0 -0.00000000000E+00 -0.00000000000E+00 -0.13541939456E+02  0.13541939456E+02  0.00000000000E+00 0. -1.
         25    2    1    2    0    0  0.68395548260E+01  0.14307000588E+02  0.17592067993E+04  0.17637135316E+04  0.12500155715E+03 0.  0.
          2    1    1    2  501    0  0.26776905088E+02 -0.40552059489E+01  0.68315653184E+01  0.27930585853E+02  0.00000000000E+00 0. -1.
          1    1    1    2  502    0 -0.33616459914E+02 -0.10251794639E+02  0.41707567588E+03  0.41855380190E+03  0.00000000000E+00 0. -1.
         22    1    3    3    0    0  0.25637424468E+02  0.64012822403E+02  0.12027215535E+04  0.12046966649E+04  0.00000000000E+00 0.  1.
         22    1    3    3    0    0 -0.18797869642E+02 -0.49705821815E+02  0.55648524574E+03  0.55901686678E+03  0.00000000000E+00 0.  1.
</event>
<event>
 7    1  0.6262315E-006  0.5848897E+02  0.7818608E-02  0.1529394E+00
          2   -1    0    0  502    0  0.00000000000E+00  0.00000000000E+00  0.26081126312E+03  0.26081126312E+03  0.00000000000E+00 0. -1.
          1   -1    0    0  501    0 -0.00000000000E+00 -0.00000000000E+00 -0.55149688913E+03  0.55149688913E+03  0.00000000000E+00 0. -1.
         25    2    1    2    0    0 -0.30856823558E+02  0.43339309601E+02 -0.46089847827E+03  0.48050281162E+03  0.12500042154E+03 0.  0.
          2    1    1    2  501    0 -0.19528290945E+02 -0.13494623120E+02 -0.75534705436E+02  0.79176705701E+02  0.00000000000E+00 0. -1.
          1    1    1    2  502    0  0.50385114503E+02 -0.29844686481E+02  0.24574755769E+03  0.25262863493E+03  0.00000000000E+00 0. -1.
         22    1    3    3    0    0  0.84457092674E+01  0.62914950872E+02 -0.11107565989E+03  0.12793523076E+03  0.00000000000E+00 0.  1.
         22    1    3    3    0    0 -0.39302532825E+02 -0.19575641271E+02 -0.34982281838E+03  0.35256758086E+03  0.00000000000E+00 0.  1.
</event>
<event>
 7    1  0.6262315E-006  0.1284581E+03  0.7818608E-02  0.1278994E+00
          2   -1    0    0  502    0  0.00000000000E+00  0.00000000000E+00  0.53932908799E+03  0.53932908799E+03  0.00000000000E+00 0. -1.
          1   -1    0    0  501    0 -0.00000000000E+00 -0.00000000000E+00 -0.49614223518E+03  0.49614223518E+03  0.00000000000E+00 0. -1.
         25    2    1    2    0    0 -0.89746926512E+02 -0.15384981615E+02  0.91863961228E+02  0.17987251177E+03  0.12499569849E+03 0.  0.
          2    1    1    2  501    0 -0.18906630880E+02 -0.76515795541E+02 -0.43594475239E+03  0.44301236416E+03  0.00000000000E+00 0. -1.
          1    1    1    2  502    0  0.10865355739E+03  0.91900777157E+02  0.38726764398E+03  0.41258644724E+03  0.00000000000E+00 0. -1.
         22    1    3    3    0    0 -0.22593133622E+02  0.38925008136E+02  0.81214795341E+02  0.92851757805E+02  0.00000000000E+00 0. -1.
         22    1    3    3    0    0 -0.67153792890E+02 -0.54309989752E+02  0.10649165887E+02  0.87020753964E+02  0.00000000000E+00 0. -1.
</event>
<event>
 7    1  0.6262315E-006  0.6098141E+02  0.7818608E-02  0.1471954E+00
          2   -1    0    0  502    0  0.00000000000E+00  0.00000000000E+00  0.56787566861E+03  0.56787566861E+03  0.00000000000E+00 0. -1.
          1   -1    0    0  501    0 -0.00000000000E+00 -0.00000000000E+00 -0.26066437747E+03  0.26066437747E+03  0.00000000000E+00 0. -1.
         25    2    1    2    0    0 -0.59645853113E+02  0.18320608538E+02  0.40629266214E+03  0.42964131637E+03  0.12499864372E+03 0.  0.
          2    1    1    2  501    0  0.17276945901E+02  0.29024110973E+02 -0.24102729636E+03  0.24338251677E+03  0.00000000000E+00 0. -1.
          1    1    1    2  502    0  0.42368907212E+02 -0.47344719511E+02  0.14194592536E+03  0.15551621295E+03  0.00000000000E+00 0. -1.
         22    1    3    3    0    0 -0.16946020170E+02  0.25598391430E+02  0.37487862812E+03  0.37613352824E+03  0.00000000000E+00 0. -1.
         22    1    3    3    0    0 -0.42699832944E+02 -0.72777828923E+01  0.31414034016E+02  0.53507788128E+02  0.00000000000E+00 0. -1.
</event>
<event>
 7    1  0.6262315E-006  0.1846128E+03  0.7818608E-02  0.1333263E+00
          2   -1    0    0  502    0  0.00000000000E+00  0.00000000000E+00  0.91514831997E+03  0.91514831997E+03  0.00000000000E+00 0. -1.
          1   -1    0    0  501    0 -0.00000000000E+00 -0.00000000000E+00 -0.36874347635E+03  0.36874347635E+03  0.00000000000E+00 0. -1.
         25    2    1    2    0    0 -0.59496464161E+02 -0.16393565883E+03  0.41206282487E+02  0.21849134499E+03  0.12500312250E+03 0.  0.
          2    1    1    2  501    0  0.33255131242E+02  0.18461240631E+03 -0.24828302663E+03  0.31117857514E+03  0.00000000000E+00 0. -1.
          1    1    1    2  502    0  0.26241332919E+02 -0.20676747482E+02  0.75348158776E+03  0.75422187620E+03  0.00000000000E+00 0. -1.
         22    1    3    3    0    0  0.17169767338E+00 -0.10899558080E+03 -0.27254885874E+02  0.11235165739E+03  0.00000000000E+00 0.  1.
         22    1    3    3    0    0 -0.59668161835E+02 -0.54940078027E+02  0.68461168361E+02  0.10613968760E+03  0.00000000000E+00 0.  1.
</event>
<event>
 7    1  0.6262315E-006  0.8901541E+02  0.7818608E-02  0.1371565E+00
          2   -1    0    0  502    0  0.00000000000E+00  0.00000000000E+00  0.18929997793E+04  0.18929997793E+04  0.00000000000E+00 0. -1.
          1   -1    0    0  501    0 -0.00000000000E+00 -0.00000000000E+00 -0.10662283469E+03  0.10662283469E+03  0.00000000000E+00 0. -1.
         25    2    1    2    0    0 -0.42464086881E+02  0.69345124054E+02  0.19221943987E+03  0.24328312078E+03  0.12500567542E+03 0.  0.
          2    1    1    2  501    0 -0.24824837108E+01 -0.91317525456E+02 -0.54863252270E+02  0.10655998137E+03  0.00000000000E+00 0. -1.
          1    1    1    2  502    0  0.44946570592E+02  0.21972401402E+02  0.16490207571E+04  0.16497795119E+04  0.00000000000E+00 0. -1.
         22    1    3    3    0    0 -0.82528241576E+02  0.65262527224E+02  0.16098639711E+03  0.19231933905E+03  0.00000000000E+00 0.  1.
         22    1    3    3    0    0  0.40064154695E+02  0.40825968298E+01  0.31233042758E+02  0.50963781730E+02  0.00000000000E+00 0.  1.
</event>
<event>
 7    1  0.6262315E-006  0.3314452E+02  0.7818608E-02  0.1600780E+00
          2   -1    0    0  502    0  0.00000000000E+00  0.00000000000E+00  0.14049299492E+04  0.14049299492E+04  0.00000000000E+00 0. -1.
          1   -1    0    0  501    0 -0.00000000000E+00 -0.00000000000E+00 -0.27560718911E+03  0.27560718911E+03  0.00000000000E+00 0. -1.
         25    2    1    2    0    0 -0.15690614949E+02  0.19347265480E+02  0.29767620134E+03  0.32381536230E+03  0.12499902374E+03 0.  0.
          2    1    1    2  501    0 -0.17795774108E+02 -0.19928051649E+02 -0.26160077517E+03  0.26296156066E+03  0.00000000000E+00 0. -1.
          1    1    1    2  502    0  0.33486389058E+02  0.58078616942E+00  0.10932473339E+04  0.10937602153E+04  0.00000000000E+00 0. -1.
         22    1    3    3    0    0 -0.39461658979E+02  0.40322693086E+01  0.29236476338E+03  0.29504344865E+03  0.00000000000E+00 0. -1.
         22    1    3    3    0    0  0.23771044029E+02  0.15314996171E+02  0.53114379652E+01  0.28771913652E+02  0.00000000000E+00 0. -1.
</event>
<event>
 7    1  0.6262315E-006  0.2101859E+03  0.7818608E-02  0.1329724E+00
          2   -1    0    0  502    0  0.00000000000E+00  0.00000000000E+00  0.53049033934E+03  0.53049033934E+03  0.00000000000E+00 0. -1.
          1   -1    0    0  501    0 -0.00000000000E+00 -0.00000000000E+00 -0.46687353331E+03  0.46687353331E+03  0.00000000000E+00 0. -1.
         25    2    1    2    0    0  0.17676643219E+03 -0.62152423489E+02  0.24700905411E+02  0.22659132324E+03  0.12499679093E+03 0.  0.
          2    1    1    2  501    0 -0.20008725434E+03  0.81449719872E+02 -0.33337649987E+03  0.39725162918E+03  0.00000000000E+00 0. -1.
          1    1    1    2  502    0  0.23320822149E+02 -0.19297296383E+02  0.37229240049E+03  0.37352092024E+03  0.00000000000E+00 0. -1.
         22    1    3    3    0    0  0.13256791712E+03 -0.88075076919E+02 -0.17624263199E+02  0.16013146623E+03  0.00000000000E+00 0. -1.
         22    1    3    3    0    0  0.44198515069E+02  0.25922653430E+02  0.42325168610E+02  0.66459857005E+02  0.00000000000E+00 0. -1.
</event>
<event>
 7    1  0.6262315E-006  0.8905503E+02  0.7818608E-02  0.1332188E+00
          2   -1    0    0  502    0  0.00000000000E+00  0.00000000000E+00  0.60471085973E+03  0.60471085973E+03  0.00000000000E+00 0. -1.
          1   -1    0    0  501    0 -0.00000000000E+00 -0.00000000000E+00 -0.39888049431E+03  0.39888049431E+03  0.00000000000E+00 0. -1.
         25    2    1    2    0    0  0.23480234217E+01 -0.53789140012E+02  0.28046860487E+03  0.31175864841E+03  0.12502812379E+03 0.  0.
          2    1    1    2  501    0  0.47634276315E+02 -0.51172555580E+02 -0.36888561924E+03  0.37545206726E+03  0.00000000000E+00 0. -1.
          1    1    1    2  502    0 -0.49982299737E+02  0.10496169559E+03  0.29424737979E+03  0.31638063838E+03  0.00000000000E+00 0. -1.
         22    1    3    3    0    0  0.27540982423E+02 -0.38558321786E+01  0.24266224703E+03  0.24425056661E+03  0.00000000000E+00 0.  1.
         22    1    3    3    0    0 -0.25192959001E+02 -0.49933307833E+02  0.37806357840E+02  0.67508081794E+02  0.00000000000E+00 0.  1.
</event>
<event>
 7    1  0.6262315E-006  0.4932197E+02  0.7818608E-02  0.1578800E+00
          2   -1    0    0  502    0  0.00000000000E+00  0.00000000000E+00  0.39273685635E+03  0.39273685635E+03  0.00000000000E+00 0. -1.
          1   -1    0    0  501    0 -0.00000000000E+00 -0.00000000000E+00 -0.18870365490E+03  0.18870365490E+03  0.00000000000E+00 0. -1.
         25    2    1    2    0    0  0.41681511026E+02 -0.53372501791E+02  0.20289111647E+03  0.24774126863E+03  0.12499983491E+03 0.  0.
          2    1    1    2  501    0 -0.35543997181E+02  0.33782771313E+02 -0.16200590553E+03  0.16926477720E+03  0.00000000000E+00 0. -1.
          1    1    1    2  502    0 -0.61375138449E+01  0.19589730478E+02  0.16314799050E+03  0.16443446543E+03  0.00000000000E+00 0. -1.
         22    1    3    3    0    0 -0.21868093373E+02  0.26842638776E+02  0.25694183486E+02  0.43115331719E+02  0.00000000000E+00 0. -1.
         22    1    3    3    0    0  0.63549604398E+02 -0.80215140567E+02  0.17719693299E+03  0.20462593691E+03  0.00000000000E+00 0. -1.
</event>
<event>
 7    1  0.6262315E-006  0.7966451E+02  0.7818608E-02  0.1342458E+00
          2   -1    0    0  502    0  0.00000000000E+00  0.00000000000E+00  0.10354480011E+04  0.10354480011E+04  0.00000000000E+00 0. -1.
          1   -1    0    0  501    0 -0.00000000000E+00 -0.00000000000E+00 -0.32279320421E+03  0.32279320421E+03  0.00000000000E+00 0. -1.
         25    2    1    2    0    0 -0.53949013444E+02 -0.56065708150E+02  0.25999092501E+03  0.29878676406E+03  0.12499755841E+03 0.  0.
          2    1    1    2  501    0 -0.13704694208E+02  0.79120626731E+02 -0.29635098590E+03  0.30703712978E+03  0.00000000000E+00 0. -1.
          1    1    1    2  502    0  0.67653707652E+02 -0.23054918581E+02  0.74901485773E+03  0.75241731143E+03  0.00000000000E+00 0. -1.
         22    1    3    3    0    0 -0.63636715480E+02 -0.86375987611E+02  0.23497771681E+03  0.25831176936E+03  0.00000000000E+00 0. -1.
         22    1    3    3    0    0  0.96877020360E+01  0.30310279461E+02  0.25013208202E+02  0.40474994704E+02  0.00000000000E+00 0. -1.
</event>
<event>
 7    1  0.6262315E-006  0.4736923E+02  0.7818608E-02  0.1530004E+00
          2   -1    0    0  502    0  0.00000000000E+00  0.00000000000E+00  0.10334834568E+04  0.10334834568E+04  0.00000000000E+00 0. -1.
          1   -1    0    0  501    0 -0.00000000000E+00 -0.00000000000E+00 -0.83778889800E+02  0.83778889800E+02  0.00000000000E+00 0. -1.
         25    2    1    2    0    0 -0.60540465013E+02  0.44489991468E+02  0.33349661108E+03  0.36399148278E+03  0.12500121074E+03 0.  0.
          2    1    1    2  501    0  0.24026968837E+02 -0.16579047747E+02 -0.64612515865E+02  0.70900897471E+02  0.00000000000E+00 0. -1.
          1    1    1    2  502    0  0.36513496176E+02 -0.27910943721E+02  0.68082047183E+03  0.68236996640E+03  0.00000000000E+00 0. -1.
         22    1    3    3    0    0 -0.59653413468E+02  0.46259029062E+02  0.78212460913E+02  0.10869966214E+03  0.00000000000E+00 0.  1.
         22    1    3    3    0    0 -0.88705154554E+00 -0.17690375941E+01  0.25528415017E+03  0.25529182063E+03  0.00000000000E+00 0.  1.
</event>
<event>
 7    1  0.6262315E-006  0.6979035E+02  0.7818608E-02  0.1458556E+00
          2   -1    0    0  502    0  0.00000000000E+00  0.00000000000E+00  0.10643637374E+04  0.10643637374E+04  0.00000000000E+00 0. -1.
          1   -1    0    0  501    0 -0.00000000000E+00 -0.00000000000E+00 -0.28468045720E+03  0.28468045720E+03  0.00000000000E+00 0. -1.
         25    2    1    2    0    0 -0.54524855625E+02 -0.11553608629E+02  0.81589375166E+03  0.82729317259E+03  0.12499973465E+03 0.  0.
          2    1    1    2  501    0  0.67469551380E+02 -0.18265130123E+02 -0.27347680754E+03  0.28226816966E+03  0.00000000000E+00 0. -1.
          1    1    1    2  502    0 -0.12944695754E+02  0.29818738752E+02  0.23726633607E+03  0.23948285233E+03  0.00000000000E+00 0. -1.
         22    1    3    3    0    0 -0.90319382044E+02 -0.23683743767E+02  0.67462989213E+03  0.68106093842E+03  0.00000000000E+00 0.  1.
         22    1    3    3    0    0  0.35794526419E+02  0.12130135138E+02  0.14126385953E+03  0.14623223417E+03  0.00000000000E+00 0.  1.
</event>
<event>
 7    1  0.6262315E-006  0.4941389E+02  0.7818608E-02  0.1481590E+00
          2   -1    0    0  502    0  0.00000000000E+00  0.00000000000E+00  0.56127457390E+02  0.56127457390E+02  0.00000000000E+00 0. -1.
          1   -1    0    0  501    0 -0.00000000000E+00 -0.00000000000E+00 -0.20959082538E+04  0.20959082538E+04  0.00000000000E+00 0. -1.
         25    2    1    2    0    0  0.10899844331E+02  0.18033052243E+02 -0.10929508651E+04  0.11002784350E+04  0.12500817402E+03 0.  0.
          2    1    1    2  501    0 -0.23570330803E+01 -0.56013494061E+02 -0.99116912706E+03  0.99275339614E+03  0.00000000000E+00 0. -1.
          1    1    1    2  502    0 -0.85428112511E+01  0.37980441818E+02  0.44339195691E+02  0.59003880035E+02  0.00000000000E+00 0. -1.
         22    1    3    3    0    0  0.27197786212E+02  0.45978121902E+02 -0.10073991724E+04  0.10088145517E+04  0.00000000000E+00 0.  1.
         22    1    3    3    0    0 -0.16297941881E+02 -0.27945069659E+02 -0.85551692698E+02  0.91463883316E+02  0.00000000000E+00 0.  1.
</event>
<event>
 7    1  0.6262315E-006  0.4393160E+02  0.7818608E-02  0.1502670E+00
          2   -1    0    0  502    0  0.00000000000E+00  0.00000000000E+00  0.73899500336E+03  0.73899500336E+03  0.00000000000E+00 0. -1.
          1   -1    0    0  501    0 -0.00000000000E+00 -0.00000000000E+00 -0.12617110192E+04  0.12617110192E+04  0.00000000000E+00 0. -1.
         25    2    1    2    0    0  0.38433069548E+02 -0.23713557581E+02  0.20943171063E+03  0.24804557873E+03  0.12500213623E+03 0.  0.
          2    1    1    2  501    0  0.39958962944E+01  0.37611335198E+02 -0.12411387926E+04  0.12417149762E+04  0.00000000000E+00 0. -1.
          1    1    1    2  502    0 -0.42428965842E+02 -0.13897777617E+02  0.50899106618E+03  0.51094546755E+03  0.00000000000E+00 0. -1.
         22    1    3    3    0    0 -0.40230469508E+02 -0.31838170543E+02  0.10676596115E+03  0.11845307190E+03  0.00000000000E+00 0. -1.
         22    1    3    3    0    0  0.78663539056E+02  0.81246129621E+01  0.10266574947E+03  0.12959250683E+03  0.00000000000E+00 0. -1.
</event>
<event>
 7    1  0.6262315E-006  0.6012832E+02  0.7818608E-02  0.1427116E+00
          2   -1    0    0  502    0  0.00000000000E+00  0.00000000000E+00  0.26488304348E+03  0.26488304348E+03  0.00000000000E+00 0. -1.
          1   -1    0    0  501    0 -0.00000000000E+00 -0.00000000000E+00 -0.33475600623E+03  0.33475600623E+03  0.00000000000E+00 0. -1.
         25    2    1    2    0    0  0.24007942183E+02  0.61360223463E+01  0.38681386171E+02  0.13316765038E+03  0.12499336548E+03 0.  0.
          2    1    1    2  501    0 -0.31353275691E+02 -0.53246366449E+02 -0.28091853021E+03  0.28763418443E+03  0.00000000000E+00 0. -1.
          1    1    1    2  502    0  0.73453335074E+01  0.47110344102E+02  0.17236418129E+03  0.17883721491E+03  0.00000000000E+00 0. -1.
         22    1    3    3    0    0  0.57121203758E+01  0.64638394832E+02  0.29140222072E+02  0.71132994792E+02  0.00000000000E+00 0. -1.
         22    1    3    3    0    0  0.18295821807E+02 -0.58502372486E+02  0.95411640988E+01  0.62034655592E+02  0.00000000000E+00 0. -1.
</event>
<event>
 7    1  0.6262315E-006  0.3290626E+02  0.7818608E-02  0.1600874E+00
          2   -1    0    0  502    0  0.00000000000E+00  0.00000000000E+00  0.46241318391E+03  0.46241318391E+03  0.00000000000E+00 0. -1.
          1   -1    0    0  501    0 -0.00000000000E+00 -0.00000000000E+00 -0.23082725921E+04  0.23082725921E+04  0.00000000000E+00 0. -1.
         25    2    1    2    0    0 -0.80749111692E+01 -0.73193225664E+01 -0.34593258924E+03  0.36798509774E+03  0.12499959675E+03 0.  0.
          2    1    1    2  501    0  0.83264775093E+00  0.33221509147E+02 -0.19507714649E+04  0.19510545021E+04  0.00000000000E+00 0. -1.
          1    1    1    2  502    0  0.72422634183E+01 -0.25902186580E+02  0.45084464595E+03  0.45164617615E+03  0.00000000000E+00 0. -1.
         22    1    3    3    0    0  0.35718778434E+02  0.13908809978E+02 -0.29521947868E+03  0.29769754235E+03  0.00000000000E+00 0. -1.
         22    1    3    3    0    0 -0.43793689603E+02 -0.21228132544E+02 -0.50713110562E+02  0.70287555394E+02  0.00000000000E+00 0. -1.
</event>
<event>
 7    1  0.6262315E-006  0.9757093E+02  0.7818608E-02  0.1410546E+00
          2   -1    0    0  502    0  0.00000000000E+00  0.00000000000E+00  0.59188694613E+03  0.59188694613E+03  0.00000000000E+00 0. -1.
          1   -1    0    0  501    0 -0.00000000000E+00 -0.00000000000E+00 -0.46764035851E+03  0.46764035851E+03  0.00000000000E+00 0. -1.
         25    2    1    2    0    0 -0.36622813426E+01  0.12904112960E+03  0.96284750171E+02  0.20386593286E+03  0.12500216012E+03 0.  0.
          2    1    1    2  501    0 -0.30943050879E+01 -0.96348771407E+02 -0.40758880548E+03  0.41883325421E+03  0.00000000000E+00 0. -1.
          1    1    1    2  502    0  0.67565864305E+01 -0.32692358190E+02  0.43555064293E+03  0.43682811757E+03  0.00000000000E+00 0. -1.
         22    1    3    3    0    0  0.40001022984E+02 -0.34248070726E+01  0.23943375402E+02  0.46745014375E+02  0.00000000000E+00 0. -1.
         22    1    3    3    0    0 -0.43663304327E+02  0.13246593667E+03  0.72341374768E+02  0.15712091849E+03  0.00000000000E+00 0. -1.
</event>
<event>
 7    1  0.6262315E-006  0.1647676E+03  0.7818608E-02  0.1295553E+00
          2   -1    0    0  502    0  0.00000000000E+00  0.00000000000E+00  0.70387753718E+03  0.70387753718E+03  0.00000000000E+00 0. -1.
          1   -1    0    0  501    0 -0.00000000000E+00 -0.00000000000E+00 -0.11875774591E+03  0.11875774591E+03  0.00000000000E+00 0. -1.
         25    2    1    2    0    0  0.22919264745E+02 -0.16972794977E+03  0.17324596133E+03  0.27381015599E+03  0.12499987510E+03 0.  0.
          2    1    1    2  501    0  0.48159251118E+02  0.21117437349E+02 -0.41154528678E+02  0.66775406095E+02  0.00000000000E+00 0. -1.
          1    1    1    2  502    0 -0.71078515863E+02  0.14861051242E+03  0.45302835861E+03  0.48204972101E+03  0.00000000000E+00 0. -1.
         22    1    3    3    0    0  0.48817083266E+01  0.57905228082E+01 -0.14380394012E+02  0.16252906279E+02  0.00000000000E+00 0. -1.
         22    1    3    3    0    0  0.18037556419E+02 -0.17551847258E+03  0.18762635534E+03  0.25755724971E+03  0.00000000000E+00 0. -1.
</event>
<event>
 7    1  0.6262315E-006  0.1320533E+03  0.7818608E-02  0.1375488E+00
          2   -1    0    0  502    0  0.00000000000E+00  0.00000000000E+00  0.61626501781E+02  0.61626501781E+02  0.00000000000E+00 0. -1.
          1   -1    0    0  501    0 -0.00000000000E+00 -0.00000000000E+00 -0.12514021595E+04  0.12514021595E+04  0.00000000000E+00 0. -1.
         25    2    1    2    0    0 -0.70089616344E+02 -0.77186470763E+02 -0.17282747363E+03  0.23741291669E+03  0.12500100714E+03 0.  0.
          2    1    1    2  501    0  0.97915832440E+02  0.94271149669E+02 -0.10311059947E+04  0.10400260248E+04  0.00000000000E+00 0. -1.
          1    1    1    2  502    0 -0.27826216096E+02 -0.17084678906E+02  0.14157810604E+02  0.35589719817E+02  0.00000000000E+00 0. -1.
         22    1    3    3    0    0 -0.81157592672E+02  0.21168880265E+01 -0.70828895934E+02  0.10773935475E+03  0.00000000000E+00 0.  1.
         22    1    3    3    0    0  0.11067976328E+02 -0.79303358789E+02 -0.10199857769E+03  0.12967356194E+03  0.00000000000E+00 0.  1.
</event>
<event>
 7    1  0.6262315E-006  0.9476842E+02  0.7818608E-02  0.1416622E+00
          2   -1    0    0  502    0  0.00000000000E+00  0.00000000000E+00  0.54546304632E+03  0.54546304632E+03  0.00000000000E+00 0. -1.
          1   -1    0    0  501    0 -0.00000000000E+00 -0.00000000000E+00 -0.53005676526E+03  0.53005676526E+03  0.00000000000E+00 0. -1.
         25    2    1    2    0    0  0.43262633762E+02 -0.72848033128E+02  0.17879630750E+02  0.15205742105E+03  0.12499314657E+03 0.  0.
          2    1    1    2  501    0 -0.73774469412E+02  0.60847305875E+02 -0.45743334504E+03  0.46732251403E+03  0.00000000000E+00 0. -1.
          1    1    1    2  502    0  0.30511835650E+02  0.12000727253E+02  0.45495999535E+03  0.45613987651E+03  0.00000000000E+00 0. -1.
         22    1    3    3    0    0  0.85837384134E+02 -0.64985919945E+02  0.14436202024E+02  0.10862610292E+03  0.00000000000E+00 0. -1.
         22    1    3    3    0    0 -0.42574750373E+02 -0.78621131832E+01  0.34434287265E+01  0.43431318129E+02  0.00000000000E+00 0. -1.
</event>
<event>
 7    1  0.6262315E-006  0.6116566E+02  0.7818608E-02  0.1479421E+00
          2   -1    0    0  502    0  0.00000000000E+00  0.00000000000E+00  0.79874656170E+03  0.79874656170E+03  0.00000000000E+00 0. -1.
          1   -1    0    0  501    0 -0.00000000000E+00 -0.00000000000E+00 -0.15936743779E+04  0.15936743779E+04  0.00000000000E+00 0. -1.
         25    2    1    2    0    0  0.58960834530E+02  0.68273249592E+02  0.11153689010E+03  0.19027505860E+03  0.12500601366E+03 0.  0.
          2    1    1    2  501    0 -0.26738743723E+02 -0.17460974678E+02 -0.15527437496E+04  0.15530721162E+04  0.00000000000E+00 0. -1.
          1    1    1    2  502    0 -0.32222090806E+02 -0.50812274913E+02  0.64627904329E+03  0.64907376485E+03  0.00000000000E+00 0. -1.
         22    1    3    3    0    0  0.23010626879E+02  0.87692878373E+02  0.11810524006E+03  0.14889048861E+03  0.00000000000E+00 0. -1.
         22    1    3    3    0    0  0.35950207651E+02 -0.19419628782E+02 -0.65683499615E+01  0.41384569991E+02  0.00000000000E+00 0. -1.
</event>
<event>
 7    1  0.6262315E-006  0.1385441E+03  0.7818608E-02  0.1325132E+00
          2   -1    0    0  502    0  0.00000000000E+00  0.00000000000E+00  0.23370281330E+04  0.23370281330E+04  0.00000000000E+00 0. -1.
          1   -1    0    0  501    0 -0.00000000000E+00 -0.00000000000E+00 -0.13234775155E+03  0.13234775155E+03  0.00000000000E+00 0. -1.
         25    2    1    2    0    0  0.12234597565E+03 -0.13825405679E+03  0.12740494763E+04  0.12934105149E+04  0.12500387997E+03 0.  0.
          2    1    1    2  501    0 -0.94682977783E+02  0.99244556694E+02 -0.83582598249E+02  0.16062502621E+03  0.00000000000E+00 0. -1.
          1    1    1    2  502    0 -0.27662997868E+02  0.39009500094E+02  0.10142135033E+04  0.10153403434E+04  0.00000000000E+00 0. -1.
         22    1    3    3    0    0  0.13755826435E+03 -0.14637553462E+03  0.12263068120E+04  0.12426489731E+04  0.00000000000E+00 0.  1.
         22    1    3    3    0    0 -0.15212288695E+02  0.81214778344E+01  0.47742664295E+02  0.50761541776E+02  0.00000000000E+00 0.  1.
</event>
<event>
 7    1  0.6262315E-006  0.2161450E+03  0.7818608E-02  0.1285884E+00
          2   -1    0    0  502    0  0.00000000000E+00  0.00000000000E+00  0.89286506824E+03  0.89286506824E+03  0.00000000000E+00 0. -1.
          1   -1    0    0  501    0 -0.00000000000E+00 -0.00000000000E+00 -0.23686113984E+03  0.23686113984E+03  0.00000000000E+00 0. -1.
         25    2    1    2    0    0  0.97812630662E+02 -0.22624305258E+03  0.22696529781E+03  0.35761509253E+03  0.12498831320E+03 0.  0.
          2    1    1    2  501    0 -0.62525734680E+02  0.20015882694E+03 -0.10621409748E+03  0.23506266824E+03  0.00000000000E+00 0. -1.
          1    1    1    2  502    0 -0.35286895982E+02  0.26084225645E+02  0.53525272807E+03  0.53704844731E+03  0.00000000000E+00 0. -1.
         22    1    3    3    0    0  0.10438703862E+03 -0.20486306601E+03  0.23947662052E+03  0.33198581509E+03  0.00000000000E+00 0. -1.
         22    1    3    3    0    0 -0.65744079625E+01 -0.21379986570E+02 -0.12511322711E+02  0.25629277433E+02  0.00000000000E+00 0. -1.
</event>
<event>
 7    1  0.6262315E-006  0.6061613E+02  0.7818608E-02  0.1424511E+00
          2   -1    0    0  502    0  0.00000000000E+00  0.00000000000E+00  0.17683256050E+02  0.17683256050E+02  0.00000000000E+00 0. -1.
          1   -1    0    0  501    0 -0.00000000000E+00 -0.00000000000E+00 -0.13865420131E+04  0.13865420131E+04  0.00000000000E+00 0. -1.
         25    2    1    2    0    0  0.67248974816E+02 -0.64445143603E+01 -0.85406842878E+03  0.86580705677E+03  0.12500008854E+03 0.  0.
          2    1    1    2  501    0 -0.41618575749E+02  0.47318044284E+02 -0.46440042115E+03  0.46865643528E+03  0.00000000000E+00 0. -1.
          1    1    1    2  502    0 -0.25630399067E+02 -0.40873529924E+02 -0.50389907116E+02  0.69761777099E+02  0.00000000000E+00 0. -1.
         22    1    3    3    0    0  0.10403060535E+03 -0.41282802083E+01 -0.67538344425E+03  0.68336096341E+03  0.00000000000E+00 0. -1.
         22    1    3    3    0    0 -0.36781630535E+02 -0.23162341520E+01 -0.17868498453E+03  0.18244609336E+03  0.00000000000E+00 0. -1.
</event>
<event>
 7    1  0.6262315E-006  0.6854873E+02  0.7818608E-02  0.1394302E+00
          2   -1    0    0  502    0  0.00000000000E+00  0.00000000000E+00  0.25908846506E+04  0.25908846506E+04  0.00000000000E+00 0. -1.
          1   -1    0    0  501    0 -0.00000000000E+00 -0.00000000000E+00 -0.36527614985E+03  0.36527614985E+03  0.00000000000E+00 0. -1.
         25    2    1    2    0    0 -0.17906800747E+01  0.62534369425E+02  0.11690081625E+04  0.11773355674E+04  0.12500080189E+03 0.  0.
          2    1    1    2  501    0  0.52566955031E+02 -0.44112642124E+02 -0.35733189836E+03  0.36386164341E+03  0.00000000000E+00 0. -1.
          1    1    1    2  502    0 -0.50776274957E+02 -0.18421727301E+02  0.14139322367E+04  0.14149635896E+04  0.00000000000E+00 0. -1.
         22    1    3    3    0    0 -0.54662778738E+01  0.14592753094E+02  0.12904641636E+02  0.20232607652E+02  0.00000000000E+00 0. -1.
         22    1    3    3    0    0  0.36755977991E+01  0.47941616331E+02  0.11561035209E+04  0.11571029598E+04  0.00000000000E+00 0. -1.
</event>
<event>
 7    1  0.6262315E-006  0.5661984E+02  0.7818608E-02  0.1450786E+00
          2   -1    0    0  502    0  0.00000000000E+00  0.00000000000E+00  0.17888061905E+04  0.17888061905E+04  0.00000000000E+00 0. -1.
          1   -1    0    0  501    0 -0.00000000000E+00 -0.00000000000E+00 -0.13593638411E+03  0.13593638411E+03  0.00000000000E+00 0. -1.
         25    2    1    2    0    0 -0.11644847288E+02  0.32069535845E+02  0.85754953225E+02  0.15538181615E+03  0.12500215674E+03 0.  0.
          2    1    1    2  501    0 -0.25058617691E+02 -0.53323824477E+02 -0.92246877551E+02  0.10945707376E+03  0.00000000000E+00 0. -1.
          1    1    1    2  502    0  0.36703464979E+02  0.21254288632E+02  0.16593617307E+04  0.16599036847E+04  0.00000000000E+00 0. -1.
         22    1    3    3    0    0 -0.42075226566E+02  0.64441535861E+02  0.26659604950E+02  0.81447963577E+02  0.00000000000E+00 0. -1.
         22    1    3    3    0    0  0.30430379279E+02 -0.32372000016E+02  0.59095348276E+02  0.73933852570E+02  0.00000000000E+00 0. -1.
</event>
<event>
 7    1  0.6262315E-006  0.5091533E+02  0.7818608E-02  0.1571922E+00
          2   -1    0    0  502    0  0.00000000000E+00  0.00000000000E+00  0.13826581421E+04  0.13826581421E+04  0.00000000000E+00 0. -1.
          1   -1    0    0  501    0 -0.00000000000E+00 -0.00000000000E+00 -0.17726751063E+03  0.17726751063E+03  0.00000000000E+00 0. -1.
         25    2    1    2    0    0 -0.28647059545E+02 -0.33393494239E+02  0.55232606843E+03  0.56800069012E+03  0.12499967452E+03 0.  0.
          2    1    1    2  501    0  0.13000823412E+02 -0.16177814245E+02 -0.16796956902E+03  0.16924691784E+03  0.00000000000E+00 0. -1.
          1    1    1    2  502    0  0.15646236133E+02  0.49571308484E+02  0.82103413203E+03  0.82267804474E+03  0.00000000000E+00 0. -1.
         22    1    3    3    0    0  0.32931182600E+02 -0.70881917100E+01  0.40231754966E+03  0.40372529771E+03  0.00000000000E+00 0. -1.
         22    1    3    3    0    0 -0.61578242145E+02 -0.26305302529E+02  0.15000851877E+03  0.16427539241E+03  0.00000000000E+00 0. -1.
</event>
<event>
 7    1  0.6262315E-006  0.1420705E+03  0.7818608E-02  0.1316101E+00
          2   -1    0    0  502    0  0.00000000000E+00  0.00000000000E+00  0.32555906085E+03  0.32555906085E+03  0.00000000000E+00 0. -1.
          1   -1    0    0  501    0 -0.00000000000E+00 -0.00000000000E+00 -0.58176156861E+03  0.58176156861E+03  0.00000000000E+00 0. -1.
         25    2    1    2    0    0 -0.97069264779E+02 -0.27214063257E+02 -0.62044121783E+02  0.17215441018E+03  0.12499848197E+03 0.  0.
          2    1    1    2  501    0  0.14596955768E+03  0.40023550522E+02 -0.44979567353E+03  0.47457891261E+03  0.00000000000E+00 0. -1.
          1    1    1    2  502    0 -0.48900292906E+02 -0.12809487266E+02  0.25563728755E+03  0.26058730667E+03  0.00000000000E+00 0. -1.
         22    1    3    3    0    0 -0.11213150384E+03 -0.56029805562E+02 -0.35780758581E+02  0.13035749287E+03  0.00000000000E+00 0.  1.
         22    1    3    3    0    0  0.15062239058E+02  0.28815742305E+02 -0.26263363201E+02  0.41796917310E+02  0.00000000000E+00 0.  1.
</event>
<event>
 7    1  0.6262315E-006  0.7850040E+02  0.7818608E-02  0.1432774E+00
          2   -1    0    0  502    0  0.00000000000E+00  0.00000000000E+00  0.37063286676E+02  0.37063286676E+02  0.00000000000E+00 0. -1.
          1   -1    0    0  501    0 -0.00000000000E+00 -0.00000000000E+00 -0.12743912757E+04  0.12743912757E+04  0.00000000000E+00 0. -1.
         25    2    1    2    0    0 -0.69124846639E+02  0.31173304857E+02 -0.37997359198E+03  0.40712924770E+03  0.12499709746E+03 0.  0.
          2    1    1    2  501    0  0.79744315164E+02  0.21635009826E+01 -0.86486880856E+03  0.86854009266E+03  0.00000000000E+00 0. -1.
          1    1    1    2  502    0 -0.10619468526E+02 -0.33336805840E+02  0.75144115026E+01  0.35785222028E+02  0.00000000000E+00 0. -1.
         22    1    3    3    0    0 -0.35438843189E+01  0.47374439053E+02 -0.29388899489E+03  0.29770394339E+03  0.00000000000E+00 0. -1.
         22    1    3    3    0    0 -0.65580962320E+02 -0.16201134196E+02 -0.86084597095E+02  0.10942530432E+03  0.00000000000E+00 0. -1.
</event>
<event>
 7    1  0.6262315E-006  0.7307161E+02  0.7818608E-02  0.1491517E+00
          2   -1    0    0  502    0  0.00000000000E+00  0.00000000000E+00  0.53869169330E+02  0.53869169330E+02  0.00000000000E+00 0. -1.
          1   -1    0    0  501    0 -0.00000000000E+00 -0.00000000000E+00 -0.76380054021E+03  0.76380054021E+03  0.00000000000E+00 0. -1.
         25    2    1    2    0    0 -0.29710556531E+02 -0.42278161530E+02 -0.25345798779E+03  0.28729087555E+03  0.12499974195E+03 0.  0.
          2    1    1    2  501    0 -0.15122018066E+02 -0.19350454381E+02 -0.45344354032E+03  0.45410809261E+03  0.00000000000E+00 0. -1.
          1    1    1    2  502    0  0.44832574597E+02  0.61628615911E+02 -0.30298427759E+01  0.76270741385E+02  0.00000000000E+00 0. -1.
         22    1    3    3    0    0 -0.73336369800E+02 -0.52588573344E+02 -0.17636793009E+03  0.19811468382E+03  0.00000000000E+00 0. -1.
         22    1    3    3    0    0  0.43625813269E+02  0.10310411814E+02 -0.77090057701E+02  0.89176191730E+02  0.00000000000E+00 0. -1.
</event>
<event>
 7    1  0.6262315E-006  0.7317493E+02  0.7818608E-02  0.1461330E+00
          2   -1    0    0  502    0  0.00000000000E+00  0.00000000000E+00  0.40580230240E+03  0.40580230240E+03  0.00000000000E+00 0. -1.
          1   -1    0    0  501    0 -0.00000000000E+00 -0.00000000000E+00 -0.77819115705E+03  0.77819115705E+03  0.00000000000E+00 0. -1.
         25    2    1    2    0    0 -0.56481278514E+02  0.23176017159E+02  0.15064208494E+03  0.20504724409E+03  0.12499628779E+03 0.  0.
          2    1    1    2  501    0  0.50700446650E+02 -0.53006255786E+02 -0.74817453624E+03  0.75176148818E+03  0.00000000000E+00 0. -1.
          1    1    1    2  502    0  0.57808318645E+01  0.29830238626E+02  0.22514359664E+03  0.22718472718E+03  0.00000000000E+00 0. -1.
         22    1    3    3    0    0  0.18347239305E+02  0.50514894944E+02  0.33323874480E+02  0.63236511698E+02  0.00000000000E+00 0. -1.
         22    1    3    3    0    0 -0.74828517820E+02 -0.27338877785E+02  0.11731821046E+03  0.14181073240E+03  0.00000000000E+00 0. -1.
</event>
<event>
 7    1  0.6262315E-006  0.8352781E+02  0.7818608E-02  0.1358786E+00
          2   -1    0    0  502    0  0.00000000000E+00  0.00000000000E+00  0.23048321619E+03  0.23048321619E+03  0.00000000000E+00 0. -1.
          1   -1    0    0  501    0 -0.00000000000E+00 -0.00000000000E+00 -0.17629140012E+04  0.17629140012E+04  0.00000000000E+00 0. -1.
         25    2    1    2    0    0  0.41416582735E+02 -0.24417994079E+02 -0.89337706335E+03  0.90335986027E+03  0.12499955225E+03 0.  0.
          2    1    1    2  501    0 -0.94716907071E+02  0.50435811631E+02 -0.85724149063E+03  0.86393173159E+03  0.00000000000E+00 0. -1.
          1    1    1    2  502    0  0.53300324335E+02 -0.26017817551E+02  0.21818776893E+03  0.22610562557E+03  0.00000000000E+00 0. -1.
         22    1    3    3    0    0  0.85270594852E+02 -0.14807935417E+02 -0.66535517893E+03  0.67096040377E+03  0.00000000000E+00 0. -1.
         22    1    3    3    0    0 -0.43854012117E+02 -0.96100586618E+01 -0.22802188442E+03  0.23239945650E+03  0.00000000000E+00 0. -1.
</event>
<event>
 7    1  0.6262315E-006  0.7834165E+02  0.7818608E-02  0.1340876E+00
          2   -1    0    0  502    0  0.00000000000E+00  0.00000000000E+00  0.16634758141E+04  0.16634758141E+04  0.00000000000E+00 0. -1.
          1   -1    0    0  501    0 -0.00000000000E+00 -0.00000000000E+00 -0.12187643735E+04  0.12187643735E+04  0.00000000000E+00 0. -1.
         25    2    1    2    0    0  0.34144654151E+02 -0.10558250762E+03  0.38622551107E+03  0.42084134966E+03  0.12499509134E+03 0.  0.
          2    1    1    2  501    0 -0.67431907059E+02  0.39848872288E+02 -0.11991004171E+04  0.12016558597E+04  0.00000000000E+00 0. -1.
          1    1    1    2  502    0  0.33287252909E+02  0.65733635327E+02  0.12575863466E+04  0.12597429783E+04  0.00000000000E+00 0. -1.
         22    1    3    3    0    0 -0.18874182138E+02 -0.44115284758E+01  0.20964173424E+03  0.21053587122E+03  0.00000000000E+00 0.  1.
         22    1    3    3    0    0  0.53018836288E+02 -0.10117097914E+03  0.17658377683E+03  0.21030547844E+03  0.00000000000E+00 0.  1.
</event>
<event>
 7    1  0.6262315E-006  0.7500753E+02  0.7818608E-02  0.1514137E+00
          2   -1    0    0  502    0  0.00000000000E+00  0.00000000000E+00  0.13640419678E+04  0.13640419678E+04  0.00000000000E+00 0. -1.
          1   -1    0    0  501    0 -0.00000000000E+00 -0.00000000000E+00 -0.22441716539E+02  0.22441716539E+02  0.00000000000E+00 0. -1.
         25    2    1    2    0    0  0.28353753773E+02 -0.61301312821E+02  0.33743636784E+03  0.36612965534E+03  0.12500334345E+03 0.  0.
          2    1    1    2  501    0 -0.15369245030E+02 -0.13555010435E+02  0.91480123137E+01  0.22441883388E+02  0.00000000000E+00 0. -1.
          1    1    1    2  502    0 -0.12984508743E+02  0.74856323256E+02  0.99501587109E+03  0.99791214559E+03  0.00000000000E+00 0. -1.
         22    1    3    3    0    0 -0.11709081072E+02 -0.12489858882E+02  0.28074949966E+03  0.28127100937E+03  0.00000000000E+00 0. -1.
         22    1    3    3    0    0  0.40062834845E+02 -0.48811453939E+02  0.56686868179E+02  0.84858645967E+02  0.00000000000E+00 0. -1.
</event>
<event>
 7    1  0.6262315E-006  0.1154344E+03  0.7818608E-02  0.1417431E+00
          2   -1    0    0  502    0  0.00000000000E+00  0.00000000000E+00  0.22383923978E+03  0.22383923978E+03  0.00000000000E+00 0. -1.
          1   -1    0    0  501    0 -0.00000000000E+00 -0.00000000000E+00 -0.51737230604E+03  0.51737230604E+03  0.00000000000E+00 0. -1.
         25    2    1    2    0    0 -0.88101339676E+02  0.55340438169E+02 -0.57609531512E+02  0.17253435575E+03  0.12499934257E+03 0.  0.
          2    1    1    2  501    0  0.33340039010E+01  0.26540924697E+02 -0.38090091382E+03  0.38183902684E+03  0.00000000000E+00 0. -1.
          1    1    1    2  502    0  0.84767335775E+02 -0.81881362867E+02  0.14497737907E+03  0.18683816324E+03  0.00000000000E+00 0. -1.
         22    1    3    3    0    0 -0.26684980439E+02 -0.40450200577E+02 -0.11832510033E+02  0.49883015160E+02  0.00000000000E+00 0.  1.
         22    1    3    3    0    0 -0.61416359237E+02  0.95790638747E+02 -0.45777021479E+02  0.12265134059E+03  0.00000000000E+00 0.  1.
</event>
<event>
 7    1  0.6262315E-006  0.9515386E+02  0.7818608E-02  0.1463298E+00
          2   -1    0    0  502    0  0.00000000000E+00  0.00000000000E+00  0.34904079177E+03  0.34904079177E+03  0.00000000000E+00 0. -1.
          1   -1    0    0  501    0 -0.00000000000E+00 -0.00000000000E+00 -0.61731772093E+03  0.61731772093E+03  0.00000000000E+00 0. -1.
         25    2    1    2    0    0  0.74924879913E+02 -0.47529112964E+02 -0.21547395744E+03  0.26443535206E+03  0.12499709948E+03 0.  0.
          2    1    1    2  501    0 -0.91894938462E+02  0.31950997135E+02 -0.37066846796E+03  0.38322403249E+03  0.00000000000E+00 0. -1.
          1    1    1    2  502    0  0.16970058549E+02  0.15578115829E+02  0.31786549624E+03  0.31869912815E+03  0.00000000000E+00 0. -1.
         22    1    3    3    0    0 -0.21841960064E+02 -0.44868812826E+02 -0.39700390852E+02  0.63768351223E+02  0.00000000000E+00 0. -1.
         22    1    3    3    0    0  0.96766839977E+02 -0.26603001381E+01 -0.17577356659E+03  0.20066700084E+03  0.00000000000E+00 0. -1.
</event>
<event>
 7    1  0.6262315E-006  0.4719480E+02  0.7818608E-02  0.1481809E+00
          2   -1    0    0  502    0  0.00000000000E+00  0.00000000000E+00  0.13702431215E+04  0.13702431215E+04  0.00000000000E+00 0. -1.
          1   -1    0    0  501    0 -0.00000000000E+00 -0.00000000000E+00 -0.55110286237E+03  0.55110286237E+03  0.00000000000E+00 0. -1.
         25    2    1    2    0    0  0.11514476962E+00 -0.29616208122E+02  0.48497286468E+03  0.50169758593E+03  0.12499862085E+03 0.  0.
          2    1    1    2  501    0  0.40678393717E+02  0.12302304262E+01 -0.54127184380E+03  0.54279964451E+03  0.00000000000E+00 0. -1.
          1    1    1    2  502    0 -0.40793538486E+02  0.28385977696E+02  0.87543923827E+03  0.87684875344E+03  0.00000000000E+00 0. -1.
         22    1    3    3    0    0  0.41759387755E+02  0.15538403529E+01  0.57552074953E+02  0.71123148249E+02  0.00000000000E+00 0. -1.
         22    1    3    3    0    0 -0.41644242986E+02 -0.31170048475E+02  0.42742078973E+03  0.43057443768E+03  0.00000000000E+00 0. -1.
</event>
<event>
 7    1  0.6262315E-006  0.1533583E+03  0.7818608E-02  0.1267059E+00
          2   -1    0    0  502    0  0.00000000000E+00  0.00000000000E+00  0.20222638175E+04  0.20222638175E+04  0.00000000000E+00 0. -1.
          1   -1    0    0  501    0 -0.00000000000E+00 -0.00000000000E+00 -0.18093248061E+03  0.18093248061E+03  0.00000000000E+00 0. -1.
         25    2    1    2    0    0  0.17380245651E+03 -0.13762460796E+03  0.61547452982E+03  0.66601916896E+03  0.12499923981E+03 0.  0.
          2    1    1    2  501    0 -0.10823309391E+03  0.10320393821E+03 -0.11848403886E+03  0.19079812091E+03  0.00000000000E+00 0. -1.
          1    1    1    2  502    0 -0.65569362606E+02  0.34420669749E+02  0.13443408459E+04  0.13463790082E+04  0.00000000000E+00 0. -1.
         22    1    3    3    0    0  0.55122590995E+02  0.18305050697E+02  0.12440557786E+03  0.13729647746E+03  0.00000000000E+00 0. -1.
         22    1    3    3    0    0  0.11867986552E+03 -0.15592965865E+03  0.49106895196E+03  0.52872269150E+03  0.00000000000E+00 0. -1.
</event>
<event>
 7    1  0.6262315E-006  0.6580931E+02  0.7818608E-02  0.1398020E+00
          2   -1    0    0  502    0  0.00000000000E+00  0.00000000000E+00  0.12747383939E+04  0.12747383939E+04  0.00000000000E+00 0. -1.
          1   -1    0    0  501    0 -0.00000000000E+00 -0.00000000000E+00 -0.63743572510E+03  0.63743572510E+03  0.00000000000E+00 0. -1.
         25    2    1    2    0    0  0.21836262957E+02  0.55481318120E+02  0.17061313139E+03  0.21974911586E+03  0.12500333707E+03 0.  0.
          2    1    1    2  501    0 -0.63074131030E+02 -0.19662327471E+02 -0.61039311016E+03  0.61395822501E+03  0.00000000000E+00 0. -1.
          1    1    1    2  502    0  0.41237868073E+02 -0.35818990649E+02  0.10770826476E+04  0.10784667781E+04  0.00000000000E+00 0. -1.
         22    1    3    3    0    0  0.38162348415E+01  0.77423809562E+02  0.42251701700E+02  0.88284858453E+02  0.00000000000E+00 0.  1.
         22    1    3    3    0    0  0.18020028115E+02 -0.21942491442E+02  0.12836142969E+03  0.13146425741E+03  0.00000000000E+00 0.  1.
</event>
<event>
 7    1  0.6262315E-006  0.2689232E+02  0.7818608E-02  0.1682474E+00
          2   -1    0    0  502    0  0.00000000000E+00  0.00000000000E+00  0.10851813474E+04  0.10851813474E+04  0.00000000000E+00 0. -1.
          1   -1    0    0  501    0 -0.00000000000E+00 -0.00000000000E+00 -0.64488854680E+03  0.64488854680E+03  0.00000000000E+00 0. -1.
         25    2    1    2    0    0  0.36095770100E+02 -0.28586307965E+02  0.96188347496E+02  0.16431657292E+03  0.12501062483E+03 0.  0.
          2    1    1    2  501    0 -0.16958647467E+02  0.20818267254E+02 -0.61041757789E+03  0.61100786851E+03  0.00000000000E+00 0. -1.
          1    1    1    2  502    0 -0.19137122633E+02  0.77680407105E+01  0.95452203098E+03  0.95474545275E+03  0.00000000000E+00 0. -1.
         22    1    3    3    0    0 -0.46265005198E+02 -0.18791804919E+01  0.39137583479E+02  0.60627819240E+02  0.00000000000E+00 0. -1.
         22    1    3    3    0    0  0.82360775298E+02 -0.26707127473E+02  0.57050764017E+02  0.10368875368E+03  0.00000000000E+00 0. -1.
</event>
<event>
 7    1  0.6262315E-006  0.6301105E+02  0.7818608E-02  0.1470172E+00
          2   -1    0    0  502    0  0.00000000000E+00  0.00000000000E+00  0.15172456531E+03  0.15172456531E+03  0.00000000000E+00 0. -1.
          1   -1    0    0  501    0 -0.00000000000E+00 -0.00000000000E+00 -0.20929045727E+04  0.20929045727E+04  0.00000000000E+00 0. -1.
         25    2    1    2    0    0  0.47124081932E+02  0.78669951581E+01  0.50762024943E+02  0.14313117387E+03  0.12500872388E+03 0.  0.
          2    1    1    2  501    0 -0.58726729864E+02  0.23141881357E+02 -0.20411843633E+04  0.20421601261E+04  0.00000000000E+00 0. -1.
          1    1    1    2  502    0  0.11602647931E+02 -0.31008876515E+02  0.49242331005E+02  0.59337838051E+02  0.00000000000E+00 0. -1.
         22    1    3    3    0    0  0.50039195169E+02  0.81186986828E+01  0.90261854719E+02  0.10352312176E+03  0.00000000000E+00 0. -1.
         22    1    3    3    0    0 -0.29151132367E+01 -0.25170352474E+00 -0.39499829775E+02  0.39608052112E+02  0.00000000000E+00 0. -1.
</event>
<event>
 7    1  0.6262315E-006  0.1590002E+03  0.7818608E-02  0.1321739E+00
          2   -1    0    0  502    0  0.00000000000E+00  0.00000000000E+00  0.17025656456E+04  0.17025656456E+04  0.00000000000E+00 0. -1.
          1   -1    0    0  501    0 -0.00000000000E+00 -0.00000000000E+00 -0.22321770720E+03  0.22321770720E+03  0.00000000000E+00 0. -1.
         25    2    1    2    0    0 -0.60129204008E+02 -0.18028358898E+03  0.56758756015E+03  0.61146967511E+03  0.12498732539E+03 0.  0.
          2    1    1    2  501    0 -0.42824482586E+01  0.42731638395E+02 -0.19373258969E+03  0.19843550235E+03  0.00000000000E+00 0. -1.
          1    1    1    2  502    0  0.64411652266E+02  0.13755195058E+03  0.11054929679E+04  0.11158781753E+04  0.00000000000E+00 0. -1.
         22    1    3    3    0    0 -0.24805413488E+02 -0.46787971664E+02  0.34845632231E+03  0.35245741783E+03  0.00000000000E+00 0.  1.
         22    1    3    3    0    0 -0.35323790519E+02 -0.13349561731E+03  0.21913123785E+03  0.25901225727E+03  0.00000000000E+00 0.  1.
</event>
<event>
 7    1  0.6262315E-006  0.8834923E+02  0.7818608E-02  0.1482991E+00
          2   -1    0    0  502    0  0.00000000000E+00  0.00000000000E+00  0.43279747468E+03  0.43279747468E+03  0.00000000000E+00 0. -1.
          1   -1    0    0  501    0 -0.00000000000E+00 -0.00000000000E+00 -0.62248451161E+03  0.62248451161E+03  0.00000000000E+00 0. -1.
         25    2    1    2    0    0  0.50465148785E+01 -0.97716121460E+02  0.10286673143E+03  0.18916729486E+03  0.12501517230E+03 0.  0.
          2    1    1    2  501    0 -0.18198543187E+02  0.11559669571E+02 -0.57250492858E+03  0.57291073143E+03  0.00000000000E+00 0. -1.
          1    1    1    2  502    0  0.13152028308E+02  0.86156451890E+02  0.27995116023E+03  0.29320396000E+03  0.00000000000E+00 0. -1.
         22    1    3    3    0    0  0.59524714245E+02 -0.40367431836E+02  0.78350202472E+02  0.10635542011E+03  0.00000000000E+00 0. -1.
         22    1    3    3    0    0 -0.54478199366E+02 -0.57348689624E+02  0.24516528956E+02  0.82811874751E+02  0.00000000000E+00 0. -1.
</event>
<event>
 7    1  0.6262315E-006  0.6870318E+02  0.7818608E-02  0.1402859E+00
          2   -1    0    0  502    0  0.00000000000E+00  0.00000000000E+00  0.65702376553E+03  0.65702376553E+03  0.00000000000E+00 0. -1.
          1   -1    0    0  501    0 -0.00000000000E+00 -0.00000000000E+00 -0.51611095951E+02  0.51611095951E+02  0.00000000000E+00 0. -1.
         25    2    1    2    0    0  0.48580965704E+02  0.47320038894E+02  0.85911474108E+02  0.16614733270E+03  0.12499943388E+03 0.  0.
          2    1    1    2  501    0 -0.45054631098E+02  0.22489448932E+02  0.62931126597E+02  0.80597901905E+02  0.00000000000E+00 0. -1.
          1    1    1    2  502    0 -0.35263346053E+01 -0.69809487826E+02  0.45657006888E+03  0.46188962688E+03  0.00000000000E+00 0. -1.
         22    1    3    3    0    0  0.64153752809E+02 -0.21016195744E+02  0.21213537572E+02  0.70762975202E+02  0.00000000000E+00 0.  1.
         22    1    3    3    0    0 -0.15572787106E+02  0.68336234638E+02  0.64697936537E+02  0.95384357496E+02  0.00000000000E+00 0.  1.
</event>
<event>
 7    1  0.6262315E-006  0.7904751E+02  0.7818608E-02  0.1382773E+00
          2   -1    0    0  502    0  0.00000000000E+00  0.00000000000E+00  0.14188020916E+04  0.14188020916E+04  0.00000000000E+00 0. -1.
          1   -1    0    0  501    0 -0.00000000000E+00 -0.00000000000E+00 -0.72052938960E+02  0.72052938960E+02  0.00000000000E+00 0. -1.
         25    2    1    2    0    0 -0.22377320001E+02 -0.11855953575E+03  0.66708442791E+03  0.68933583766E+03  0.12500062061E+03 0.  0.
          2    1    1    2  501    0 -0.46384176634E+01  0.51187586075E+02 -0.47950819798E+02  0.70291998164E+02  0.00000000000E+00 0. -1.
          1    1    1    2  502    0  0.27015737665E+02  0.67371949673E+02  0.72761554451E+03  0.73122719472E+03  0.00000000000E+00 0. -1.
         22    1    3    3    0    0 -0.38528666302E+02 -0.11654409578E+03  0.33378873450E+03  0.35564294407E+03  0.00000000000E+00 0. -1.
         22    1    3    3    0    0  0.16151346301E+02 -0.20154399717E+01  0.33329569341E+03  0.33369289359E+03  0.00000000000E+00 0. -1.
</event>
<event>
 7    1  0.6262315E-006  0.1086355E+03  0.7818608E-02  0.1344453E+00
          2   -1    0    0  502    0  0.00000000000E+00  0.00000000000E+00  0.22480219372E+04  0.22480219372E+04  0.00000000000E+00 0. -1.
          1   -1    0    0  501    0 -0.00000000000E+00 -0.00000000000E+00 -0.20020139143E+03  0.20020139143E+03  0.00000000000E+00 0. -1.
         25    2    1    2    0    0  0.93643047809E+02 -0.21392493898E+01  0.27367309012E+03  0.31511099432E+03  0.12499752674E+03 0.  0.
          2    1    1    2  501    0 -0.98509379175E+02 -0.49150492464E+02 -0.16222582767E+03  0.19605378817E+03  0.00000000000E+00 0. -1.
          1    1    1    2  502    0  0.48663313661E+01  0.51289741853E+02  0.19363732833E+04  0.19370585461E+04  0.00000000000E+00 0. -1.
         22    1    3    3    0    0  0.82247539230E+02 -0.32945666289E+02  0.82259233171E+02  0.12089936343E+03  0.00000000000E+00 0.  1.
         22    1    3    3    0    0  0.11395508579E+02  0.30806416899E+02  0.19141385695E+03  0.19421163088E+03  0.00000000000E+00 0.  1.
</event>
<event>
 7    1  0.6262315E-006  0.1061553E+03  0.7818608E-02  0.1334614E+00
          2   -1    0    0  502    0  0.00000000000E+00  0.00000000000E+00  0.40857795755E+03  0.40857795755E+03  0.00000000000E+00 0. -1.
          1   -1    0    0  501    0 -0.00000000000E+00 -0.00000000000E+00 -0.12071329004E+04  0.12071329004E+04  0.00000000000E+00 0. -1.
         25    2    1    2    0    0 -0.46595034211E+02  0.25090850343E+02  0.93687314526E+02  0.16493182896E+03  0.12499818925E+03 0.  0.
          2    1    1    2  501    0  0.10400624563E+03 -0.25964891753E+02 -0.11660746124E+04  0.11709916637E+04  0.00000000000E+00 0. -1.
          1    1    1    2  502    0 -0.57411211416E+02  0.87404141024E+00  0.27383235501E+03  0.27978736533E+03  0.00000000000E+00 0. -1.
         22    1    3    3    0    0 -0.27379442566E+02 -0.40213239566E+02 -0.58350593819E+00  0.48652636011E+02  0.00000000000E+00 0. -1.
         22    1    3    3    0    0 -0.19215591645E+02  0.65304089909E+02  0.94270820464E+02  0.11627919295E+03  0.00000000000E+00 0. -1.
</event>
<event>
 7    1  0.7274042E-006  0.6835521E+02  0.7818608E-02  0.1466092E+00
          2   -1    0    0  502    0  0.00000000000E+00  0.00000000000E+00  0.10669735267E+04  0.10669735267E+04  0.00000000000E+00 0. -1.
          1   -1    0    0  501    0 -0.00000000000E+00 -0.00000000000E+00 -0.12385129418E+04  0.12385129418E+04  0.00000000000E+00 0. -1.
         25    2    1    2    0    0 -0.52472404074E+02 -0.18709103518E+02 -0.33675445411E+03  0.36349986677E+03  0.12500082814E+03 0.  0.
          2    1    1    2  501    0  0.49299362106E+02  0.49975898940E+02 -0.88676395770E+03  0.88953827026E+03  0.00000000000E+00 0. -1.
          1    1    1    2  502    0  0.31730419679E+01 -0.31266795422E+02  0.10519789968E+04  0.10524483315E+04  0.00000000000E+00 0. -1.
         22    1    3    3    0    0 -0.87850406952E+02  0.11932475776E+02 -0.24397096568E+03  0.25958025749E+03  0.00000000000E+00 0. -1.
         22    1    3    3    0    0  0.35378002878E+02 -0.30641579293E+02 -0.92783488430E+02  0.10391960929E+03  0.00000000000E+00 0. -1.
</event>
<event>
 7    1  0.6262315E-006  0.7344474E+02  0.7818608E-02  0.1423539E+00
          2   -1    0    0  502    0  0.00000000000E+00  0.00000000000E+00  0.16006916037E+03  0.16006916037E+03  0.00000000000E+00 0. -1.
          1   -1    0    0  501    0 -0.00000000000E+00 -0.00000000000E+00 -0.40636713707E+03  0.40636713707E+03  0.00000000000E+00 0. -1.
         25    2    1    2    0    0  0.20573449864E+02 -0.89972893919E+02 -0.71132416679E+02  0.17087576740E+03  0.12498127340E+03 0.  0.
          2    1    1    2  501    0 -0.44047803696E+02  0.57443566268E+02 -0.27689861741E+03  0.28620415203E+03  0.00000000000E+00 0. -1.
          1    1    1    2  502    0  0.23474353831E+02  0.32529327652E+02  0.10173305739E+03  0.10935637801E+03  0.00000000000E+00 0. -1.
         22    1    3    3    0    0 -0.44632228873E+02 -0.42571557032E+01 -0.36290589335E+02  0.57681592412E+02  0.00000000000E+00 0.  1.
         22    1    3    3    0    0  0.65205678738E+02 -0.85715738216E+02 -0.34841827344E+02  0.11319417498E+03  0.00000000000E+00 0.  1.
</event>
<event>
 7    1  0.6262315E-006  0.8145523E+02  0.7818608E-02  0.1447032E+00
          2   -1    0    0  502    0  0.00000000000E+00  0.00000000000E+00  0.69013919255E+02  0.69013919255E+02  0.00000000000E+00 0. -1.
          1   -1    0    0  501    0 -0.00000000000E+00 -0.00000000000E+00 -0.52396959368E+03  0.52396959368E+03  0.00000000000E+00 0. -1.
         25    2    1    2    0    0  0.19455095817E+02  0.97862212801E+02 -0.32680841811E+03  0.36384605923E+03  0.12499879687E+03 0.  0.
          2    1    1    2  501    0 -0.65188895168E+00 -0.74090015479E+02 -0.16532583556E+03  0.18116949869E+03  0.00000000000E+00 0. -1.
          1    1    1    2  502    0 -0.18803206865E+02 -0.23772197322E+02  0.37178579244E+02  0.47967955017E+02  0.00000000000E+00 0. -1.
         22    1    3    3    0    0  0.59198393018E+02  0.99372677578E+02 -0.20106040237E+03  0.23195832424E+03  0.00000000000E+00 0.  1.
         22    1    3    3    0    0 -0.39743297202E+02 -0.15104647775E+01 -0.12574801574E+03  0.13188773499E+03  0.00000000000E+00 0.  1.
</event>
<event>
 7    1  0.6262315E-006  0.1180360E+03  0.7818608E-02  0.1304938E+00
          2   -1    0    0  502    0  0.00000000000E+00  0.00000000000E+00  0.19145333937E+04  0.19145333937E+04  0.00000000000E+00 0. -1.
          1   -1    0    0  501    0 -0.00000000000E+00 -0.00000000000E+00 -0.96882284376E+02  0.96882284376E+02  0.00000000000E+00 0. -1.
         25    2    1    2    0    0 -0.79080574640E+02  0.96286899097E+01  0.80550523948E+03  0.81903006744E+03  0.12500044634E+03 0.  0.
          2    1    1    2  501    0 -0.66943228354E+02 -0.71501743764E+01 -0.71927225711E+02  0.98519270270E+02  0.00000000000E+00 0. -1.
          1    1    1    2  502    0  0.14602380299E+03 -0.24785155333E+01  0.10840730956E+04  0.10938663404E+04  0.00000000000E+00 0. -1.
         22    1    3    3    0    0 -0.67139932869E+02  0.44561154131E+02  0.73537260251E+03  0.73977451400E+03  0.00000000000E+00 0. -1.
         22    1    3    3    0    0 -0.11940641771E+02 -0.34932464221E+02  0.70132636972E+02  0.79255553440E+02  0.00000000000E+00 0. -1.
</event>
<event>
 7    1  0.6262315E-006  0.6162465E+02  0.7818608E-02  0.1412621E+00
          2   -1    0    0  502    0  0.00000000000E+00  0.00000000000E+00  0.44854721798E+03  0.44854721798E+03  0.00000000000E+00 0. -1.
          1   -1    0    0  501    0 -0.00000000000E+00 -0.00000000000E+00 -0.10016743114E+04  0.10016743114E+04  0.00000000000E+00 0. -1.
         25    2    1    2    0    0 -0.27385872200E+02 -0.16802282784E+02 -0.11506100818E+03  0.17291149063E+03  0.12500818087E+03 0.  0.
          2    1    1    2  501    0  0.25211774114E+02 -0.45489620650E+02 -0.85457852849E+03  0.85615968166E+03  0.00000000000E+00 0. -1.
          1    1    1    2  502    0  0.21740980854E+01  0.62291903434E+02  0.41651244323E+03  0.42115035712E+03  0.00000000000E+00 0. -1.
         22    1    3    3    0    0  0.38559049815E+02  0.17534270934E+02 -0.80409723499E+02  0.90884402474E+02  0.00000000000E+00 0.  1.
         22    1    3    3    0    0 -0.65944922015E+02 -0.34336553718E+02 -0.34651284677E+02  0.82027088151E+02  0.00000000000E+00 0.  1.
</event>
<event>
 7    1  0.6262315E-006  0.1069902E+03  0.7818608E-02  0.1330368E+00
          2   -1    0    0  502    0  0.00000000000E+00  0.00000000000E+00  0.32118288982E+03  0.32118288982E+03  0.00000000000E+00 0. -1.
          1   -1    0    0  501    0 -0.00000000000E+00 -0.00000000000E+00 -0.28685498859E+04  0.28685498859E+04  0.00000000000E+00 0. -1.
         25    2    1    2    0    0 -0.12440487757E+03 -0.32563329144E+02 -0.14169682462E+04  0.14282717967E+04  0.12499748222E+03 0.  0.
          2    1    1    2  501    0  0.19984570728E+02  0.55650014076E+02 -0.14362426478E+04  0.14374593040E+04  0.00000000000E+00 0. -1.
          1    1    1    2  502    0  0.10442030684E+03 -0.23086684931E+02  0.30584389796E+03  0.32400167503E+03  0.00000000000E+00 0. -1.
         22    1    3    3    0    0 -0.38332358052E+02 -0.73229758145E+02 -0.56788877047E+03  0.57387247954E+03  0.00000000000E+00 0. -1.
         22    1    3    3    0    0 -0.86072519515E+02  0.40666429001E+02 -0.84907947571E+03  0.85439931714E+03  0.00000000000E+00 0. -1.
</event>
<event>
 7    1  0.6262315E-006  0.9332076E+02  0.7818608E-02  0.1381010E+00
          2   -1    0    0  502    0  0.00000000000E+00  0.00000000000E+00  0.39079589514E+04  0.39079589514E+04  0.00000000000E+00 0. -1.
          1   -1    0    0  501    0 -0.00000000000E+00 -0.00000000000E+00 -0.15201399293E+03  0.15201399293E+03  0.00000000000E+00 0. -1.
         25    2    1    2    0    0  0.91988203999E+02  0.98447266311E+02  0.82552987806E+03  0.84574128759E+03  0.12500020820E+03 0.  0.
          2    1    1    2  501    0 -0.30748752643E+02 -0.31702996082E+02 -0.13778730097E+03  0.14469245335E+03  0.00000000000E+00 0. -1.
          1    1    1    2  502    0 -0.61239451356E+02 -0.66744270228E+02  0.30682023814E+04  0.30695392034E+04  0.00000000000E+00 0. -1.
         22    1    3    3    0    0  0.52942427368E+02  0.66244156678E+02  0.75026181807E+03  0.75503906161E+03  0.00000000000E+00 0.  1.
         22    1    3    3    0    0  0.39045776631E+02  0.32203109633E+02  0.75268059987E+02  0.90702225976E+02  0.00000000000E+00 0.  1.
</event>
<event>
 7    1  0.6262315E-006  0.9916540E+02  0.7818608E-02  0.1406568E+00
          2   -1    0    0  502    0  0.00000000000E+00  0.00000000000E+00  0.18929265462E+04  0.18929265462E+04  0.00000000000E+00 0. -1.
          1   -1    0    0  501    0 -0.00000000000E+00 -0.00000000000E+00 -0.56301395650E+02  0.56301395650E+02  0.00000000000E+00 0. -1.
         25    2    1    2    0    0 -0.58803118306E+02 -0.36194988258E+02  0.11814501652E+03  0.18534319622E+03  0.12500388618E+03 0.  0.
          2    1    1    2  501    0 -0.33751808986E+02 -0.29921724936E+01 -0.77269603760E+01  0.34754044696E+02  0.00000000000E+00 0. -1.
          1    1    1    2  502    0  0.92554927292E+02  0.39187160752E+02  0.17262070944E+04  0.17291307009E+04  0.00000000000E+00 0. -1.
         22    1    3    3    0    0 -0.38797492002E+02 -0.76873767978E+02  0.10931925861E+03  0.13916005854E+03  0.00000000000E+00 0. -1.
         22    1    3    3    0    0 -0.20005626304E+02  0.40678779720E+02  0.88257579036E+01  0.46183137679E+02  0.00000000000E+00 0. -1.
</event>
<event>
 7    1  0.6262315E-006  0.8726407E+02  0.7818608E-02  0.1350631E+00
          2   -1    0    0  502    0  0.00000000000E+00  0.00000000000E+00  0.23597547266E+04  0.23597547266E+04  0.00000000000E+00 0. -1.
          1   -1    0    0  501    0 -0.00000000000E+00 -0.00000000000E+00 -0.52848748140E+02  0.52848748140E+02  0.00000000000E+00 0. -1.
         25    2    1    2    0    0  0.73060507096E+02  0.42084232277E+02  0.42647847757E+03  0.45234906146E+03  0.12500744486E+03 0.  0.
          2    1    1    2  501    0 -0.43927724501E+02  0.42082193568E+02 -0.15065562143E+02  0.62669986102E+02  0.00000000000E+00 0. -1.
          1    1    1    2  502    0 -0.29132782595E+02 -0.84166425845E+02  0.18954930630E+04  0.18975844271E+04  0.00000000000E+00 0. -1.
         22    1    3    3    0    0  0.14041544760E+02  0.12635061714E+02 -0.18427233944E+01  0.18979077777E+02  0.00000000000E+00 0.  1.
         22    1    3    3    0    0  0.59018962335E+02  0.29449170563E+02  0.42832120097E+03  0.43336998369E+03  0.00000000000E+00 0.  1.
</event>
<event>
 7    1  0.6262315E-006  0.6905426E+02  0.7818608E-02  0.1467940E+00
          2   -1    0    0  502    0  0.00000000000E+00  0.00000000000E+00  0.86609469611E+03  0.86609469611E+03  0.00000000000E+00 0. -1.
          1   -1    0    0  501    0 -0.00000000000E+00 -0.00000000000E+00 -0.59790105716E+03  0.59790105716E+03  0.00000000000E+00 0. -1.
         25    2    1    2    0    0 -0.23771986042E+02 -0.93627521152E+02 -0.10629222229E+03  0.19040939835E+03  0.12500592955E+03 0.  0.
          2    1    1    2  501    0 -0.35618250989E+01  0.30491166702E+02 -0.44758754918E+03  0.44863906654E+03  0.00000000000E+00 0. -1.
          1    1    1    2  502    0  0.27333811141E+02  0.63136354450E+02  0.82207341042E+03  0.82494728838E+03  0.00000000000E+00 0. -1.
         22    1    3    3    0    0 -0.69653431632E+02 -0.86098229656E+02 -0.83066125600E+02  0.13843585847E+03  0.00000000000E+00 0. -1.
         22    1    3    3    0    0  0.45881445590E+02 -0.75292914957E+01 -0.23226096690E+02  0.51973539877E+02  0.00000000000E+00 0. -1.
</event>
<event>
 7    1  0.6262315E-006  0.1294644E+03  0.7818608E-02  0.1440267E+00
          2   -1    0    0  502    0  0.00000000000E+00  0.00000000000E+00  0.14871110298E+04  0.14871110298E+04  0.00000000000E+00 0. -1.
          1   -1    0    0  501    0 -0.00000000000E+00 -0.00000000000E+00 -0.45587554023E+03  0.45587554023E+03  0.00000000000E+00 0. -1.
         25    2    1    2    0    0  0.45639845581E+02 -0.12166658398E+03 -0.32799314551E+03  0.37428607219E+03  0.12499922869E+03 0.  0.
          2    1    1    2  501    0 -0.19389732167E+02 -0.51174488140E+01 -0.10088444604E+03  0.10285825902E+03  0.00000000000E+00 0. -1.
          1    1    1    2  502    0 -0.26250113414E+02  0.12678403279E+03  0.14601130811E+04  0.14658422388E+04  0.00000000000E+00 0. -1.
         22    1    3    3    0    0  0.35154470316E+02 -0.11124783580E+03 -0.33723959515E+03  0.35685075633E+03  0.00000000000E+00 0.  1.
         22    1    3    3    0    0  0.10485375264E+02 -0.10418748176E+02  0.92464496475E+01  0.17435315858E+02  0.00000000000E+00 0.  1.
</event>
<event>
 7    1  0.6262315E-006  0.8903380E+02  0.7818608E-02  0.1322035E+00
          2   -1    0    0  502    0  0.00000000000E+00  0.00000000000E+00  0.15168728241E+04  0.15168728241E+04  0.00000000000E+00 0. -1.
          1   -1    0    0  501    0 -0.00000000000E+00 -0.00000000000E+00 -0.50173468486E+03  0.50173468486E+03  0.00000000000E+00 0. -1.
         25    2    1    2    0    0  0.71240964060E+02  0.24535680871E+02  0.10048436502E+03  0.17721003181E+03  0.12501605163E+03 0.  0.
          2    1    1    2  501    0  0.32047486856E+01 -0.76424586140E+02 -0.45870751415E+03  0.46504147269E+03  0.00000000000E+00 0. -1.
          1    1    1    2  502    0 -0.74445712746E+02  0.51888905269E+02  0.13733612884E+04  0.13763560045E+04  0.00000000000E+00 0. -1.
         22    1    3    3    0    0  0.68497922260E+02 -0.21577882992E+02  0.60356142916E+01  0.72069404245E+02  0.00000000000E+00 0. -1.
         22    1    3    3    0    0  0.27430418004E+01  0.46113563863E+02  0.94448750728E+02  0.10514062756E+03  0.00000000000E+00 0. -1.
</event>
<event>
 7    1  0.6262315E-006  0.1359007E+03  0.7818608E-02  0.1338463E+00
          2   -1    0    0  502    0  0.00000000000E+00  0.00000000000E+00  0.11060229777E+04  0.11060229777E+04  0.00000000000E+00 0. -1.
          1   -1    0    0  501    0 -0.00000000000E+00 -0.00000000000E+00 -0.12492865421E+03  0.12492865421E+03  0.00000000000E+00 0. -1.
         25    2    1    2    0    0  0.45394705520E+02  0.15957106144E+03  0.58387766789E+03  0.61973607958E+03  0.12504428953E+03 0.  0.
          2    1    1    2  501    0 -0.18227150314E+02 -0.39356354771E+02 -0.94665367226E+02  0.10412820666E+03  0.00000000000E+00 0. -1.
          1    1    1    2  502    0 -0.27167555206E+02 -0.12021470667E+03  0.49188202280E+03  0.50708734565E+03  0.00000000000E+00 0. -1.
         22    1    3    3    0    0  0.80278331330E+02  0.56739897150E+02  0.24947861668E+03  0.26814847862E+03  0.00000000000E+00 0. -1.
         22    1    3    3    0    0 -0.34883625809E+02  0.10283116429E+03  0.33439905121E+03  0.35158760096E+03  0.00000000000E+00 0. -1.
</event>
<event>
 7    1  0.6262315E-006  0.1000671E+03  0.7818608E-02  0.1330506E+00
          2   -1    0    0  502    0  0.00000000000E+00  0.00000000000E+00  0.61324329782E+03  0.61324329782E+03  0.00000000000E+00 0. -1.
          1   -1    0    0  501    0 -0.00000000000E+00 -0.00000000000E+00 -0.65251452168E+03  0.65251452168E+03  0.00000000000E+00 0. -1.
         25    2    1    2    0    0 -0.11946683610E+02 -0.15777227009E+03  0.10430573654E+03  0.22702274178E+03  0.12499930461E+03 0.  0.
          2    1    1    2  501    0  0.11430473722E+01  0.63133334729E+02 -0.58436793772E+03  0.58776952213E+03  0.00000000000E+00 0. -1.
          1    1    1    2  502    0  0.10803636238E+02  0.94638935357E+02  0.44079097732E+03  0.45096555559E+03  0.00000000000E+00 0. -1.
         22    1    3    3    0    0 -0.68221166443E+02 -0.98385321503E+02  0.58373858038E+02  0.13319649523E+03  0.00000000000E+00 0. -1.
         22    1    3    3    0    0  0.56274482833E+02 -0.59386948584E+02  0.45931878502E+02  0.93826246557E+02  0.00000000000E+00 0. -1.
</event>
<event>
 7    1  0.6262315E-006  0.8636713E+02  0.7818608E-02  0.1427256E+00
          2   -1    0    0  502    0  0.00000000000E+00  0.00000000000E+00  0.20288120808E+04  0.20288120808E+04  0.00000000000E+00 0. -1.
          1   -1    0    0  501    0 -0.00000000000E+00 -0.00000000000E+00 -0.13071586243E+03  0.13071586243E+03  0.00000000000E+00 0. -1.
         25    2    1    2    0    0 -0.16483222430E+02  0.11211683196E+03  0.39173382738E+03  0.42652226320E+03  0.12499587537E+03 0.  0.
          2    1    1    2  501    0 -0.99981650081E+01 -0.31615651908E+02 -0.10976181714E+03  0.11466110609E+03  0.00000000000E+00 0. -1.
          1    1    1    2  502    0  0.26481387438E+02 -0.80501180047E+02  0.16161242082E+04  0.16183445740E+04  0.00000000000E+00 0. -1.
         22    1    3    3    0    0  0.15063222262E+02  0.40128820690E+02  0.21340142147E+02  0.47881359439E+02  0.00000000000E+00 0.  1.
         22    1    3    3    0    0 -0.31546444692E+02  0.71988011265E+02  0.37039368523E+03  0.37864090376E+03  0.00000000000E+00 0.  1.
</event>
<event>
 7    1  0.6262315E-006  0.1260193E+03  0.7818608E-02  0.1426155E+00
          2   -1    0    0  502    0  0.00000000000E+00  0.00000000000E+00  0.11578573074E+04  0.11578573074E+04  0.00000000000E+00 0. -1.
          1   -1    0    0  501    0 -0.00000000000E+00 -0.00000000000E+00 -0.10614365356E+04  0.10614365356E+04  0.00000000000E+00 0. -1.
         25    2    1    2    0    0 -0.75793604711E+02 -0.10757037104E+03  0.51998599054E+03  0.55075054886E+03  0.12499872589E+03 0.  0.
          2    1    1    2  501    0  0.53779711957E+02  0.11393920566E+03 -0.10420474004E+04  0.10496366917E+04  0.00000000000E+00 0. -1.
          1    1    1    2  502    0  0.22013892754E+02 -0.63688346249E+01  0.61848218162E+03  0.61890660241E+03  0.00000000000E+00 0. -1.
         22    1    3    3    0    0 -0.50017840078E+02 -0.91265015827E+02  0.16922512455E+03  0.19866612751E+03  0.00000000000E+00 0.  1.
         22    1    3    3    0    0 -0.25775764633E+02 -0.16305355211E+02  0.35076086599E+03  0.35208442136E+03  0.00000000000E+00 0.  1.
</event>
<event>
 7    1  0.6262315E-006  0.5599150E+02  0.7818608E-02  0.1530244E+00
          2   -1    0    0  502    0  0.00000000000E+00  0.00000000000E+00  0.57089029944E+03  0.57089029944E+03  0.00000000000E+00 0. -1.
          1   -1    0    0  501    0 -0.00000000000E+00 -0.00000000000E+00 -0.62623291533E+03  0.62623291533E+03  0.00000000000E+00 0. -1.
         25    2    1    2    0    0  0.29549441615E+02  0.46939399175E+02 -0.39542447833E+01  0.13680623150E+03  0.12499532883E+03 0.  0.
          2    1    1    2  501    0 -0.47441058270E+02 -0.29972372599E+02 -0.55413346215E+03  0.55696758524E+03  0.00000000000E+00 0. -1.
          1    1    1    2  502    0  0.17891616654E+02 -0.16967026576E+02  0.50274509104E+03  0.50334939804E+03  0.00000000000E+00 0. -1.
         22    1    3    3    0    0 -0.13629469715E+01  0.37964913445E+02  0.56635718333E+02  0.68196751158E+02  0.00000000000E+00 0. -1.
         22    1    3    3    0    0  0.30912388587E+02  0.89744857301E+01 -0.60589963117E+02  0.68609480342E+02  0.00000000000E+00 0. -1.
</event>
<event>
 7    1  0.6262315E-006  0.3410087E+02  0.7818608E-02  0.1557397E+00
          2   -1    0    0  502    0  0.00000000000E+00  0.00000000000E+00  0.80705569959E+02  0.80705569959E+02  0.00000000000E+00 0. -1.
          1   -1    0    0  501    0 -0.00000000000E+00 -0.00000000000E+00 -0.17277303730E+03  0.17277303730E+03  0.00000000000E+00 0. -1.
         25    2    1    2    0    0  0.22227006759E+01 -0.12268775776E-01 -0.88429626622E+02  0.15313334778E+03  0.12500033115E+03 0.  0.
          2    1    1    2  501    0  0.33735930180E+02  0.38701084643E+01 -0.37648575634E+02  0.50700157514E+02  0.00000000000E+00 0. -1.
          1    1    1    2  502    0 -0.35958630856E+02 -0.38578396886E+01  0.34010734915E+02  0.49645101970E+02  0.00000000000E+00 0. -1.
         22    1    3    3    0    0  0.34730952407E+02 -0.52612510280E+02 -0.40981825817E+02  0.75191923372E+02  0.00000000000E+00 0.  1.
         22    1    3    3    0    0 -0.32508251731E+02  0.52600241504E+02 -0.47447800804E+02  0.77941424404E+02  0.00000000000E+00 0.  1.
</event>
<event>
 7    1  0.6262315E-006  0.6818921E+02  0.7818608E-02  0.1456301E+00
          2   -1    0    0  502    0  0.00000000000E+00  0.00000000000E+00  0.24019587126E+03  0.24019587126E+03  0.00000000000E+00 0. -1.
          1   -1    0    0  501    0 -0.00000000000E+00 -0.00000000000E+00 -0.39905089150E+03  0.39905089150E+03  0.00000000000E+00 0. -1.
         25    2    1    2    0    0  0.97271490272E+02 -0.17355816152E+02 -0.83456183415E+02  0.17986549585E+03  0.12499477939E+03 0.  0.
          2    1    1    2  501    0 -0.65349051572E+02  0.61808964953E+01 -0.26181685565E+03  0.26991992873E+03  0.00000000000E+00 0. -1.
          1    1    1    2  502    0 -0.31922438700E+02  0.11174919657E+02  0.18641801883E+03  0.18946133818E+03  0.00000000000E+00 0. -1.
         22    1    3    3    0    0  0.10890062857E+03  0.15718287817E+02 -0.92403218253E+02  0.14368286682E+03  0.00000000000E+00 0.  1.
         22    1    3    3    0    0 -0.11629138299E+02 -0.33074103970E+02  0.89470348374E+01  0.36182629028E+02  0.00000000000E+00 0.  1.
</event>
<event>
 7    1  0.6262315E-006  0.7768875E+02  0.7818608E-02  0.1351027E+00
          2   -1    0    0  502    0  0.00000000000E+00  0.00000000000E+00  0.50265021689E+03  0.50265021689E+03  0.00000000000E+00 0. -1.
          1   -1    0    0  501    0 -0.00000000000E+00 -0.00000000000E+00 -0.15568785555E+04  0.15568785555E+04  0.00000000000E+00 0. -1.
         25    2    1    2    0    0  0.74268929645E+02  0.98355959885E+02 -0.41016300069E+02  0.18026980191E+03  0.12500038341E+03 0.  0.
          2    1    1    2  501    0 -0.97256915339E+01 -0.76634887453E+02 -0.14425181516E+04  0.14445851005E+04  0.00000000000E+00 0. -1.
          1    1    1    2  502    0 -0.64543238111E+02 -0.21721072432E+02  0.42930611300E+03  0.43467386997E+03  0.00000000000E+00 0. -1.
         22    1    3    3    0    0  0.10182273429E+03  0.10431557181E+03 -0.25167059153E+02  0.14792899854E+03  0.00000000000E+00 0. -1.
         22    1    3    3    0    0 -0.27553804649E+02 -0.59596119297E+01 -0.15849240917E+02  0.32340803370E+02  0.00000000000E+00 0. -1.
</event>
<event>
 7    1  0.6262315E-006  0.2377166E+03  0.7818608E-02  0.1206235E+00
          2   -1    0    0  502    0  0.00000000000E+00  0.00000000000E+00  0.12372298908E+04  0.12372298908E+04  0.00000000000E+00 0. -1.
          1   -1    0    0  501    0 -0.00000000000E+00 -0.00000000000E+00 -0.61219953541E+03  0.61219953541E+03  0.00000000000E+00 0. -1.
         25    2    1    2    0    0  0.20861023675E+03 -0.62996838400E+02 -0.20736300703E+03  0.32574808472E+03  0.12500226194E+03 0.  0.
          2    1    1    2  501    0 -0.25979102182E+03 -0.97430043972E+01 -0.29475881394E+03  0.39302552023E+03  0.00000000000E+00 0. -1.
          1    1    1    2  502    0  0.51180785070E+02  0.72739842798E+02  0.11271521764E+04  0.11306558213E+04  0.00000000000E+00 0. -1.
         22    1    3    3    0    0  0.33819064510E+02 -0.90631699764E+01  0.14762391380E+02  0.37997346929E+02  0.00000000000E+00 0. -1.
         22    1    3    3    0    0  0.17479117224E+03 -0.53933668424E+02 -0.22212539841E+03  0.28775073779E+03  0.00000000000E+00 0. -1.
</event>
<event>
 7    1  0.6262315E-006  0.6298392E+02  0.7818608E-02  0.1402937E+00
          2   -1    0    0  502    0  0.00000000000E+00  0.00000000000E+00  0.74565319976E+03  0.74565319976E+03  0.00000000000E+00 0. -1.
          1   -1    0    0  501    0 -0.00000000000E+00 -0.00000000000E+00 -0.49039735590E+03  0.49039735590E+03  0.00000000000E+00 0. -1.
         25    2    1    2    0    0  0.44045050442E+02 -0.59563038278E+02  0.91370589473E+02  0.17164153874E+03  0.12499804480E+03 0.  0.
          2    1    1    2  501    0 -0.62677768021E+02  0.79276740784E+01 -0.44680856741E+03  0.45125297398E+03  0.00000000000E+00 0. -1.
          1    1    1    2  502    0  0.18632717579E+02  0.51635364199E+02  0.61069382180E+03  0.61315604293E+03  0.00000000000E+00 0. -1.
         22    1    3    3    0    0  0.74981108516E+02 -0.69533338201E+02  0.94174781996E+02  0.13901777340E+03  0.00000000000E+00 0.  1.
         22    1    3    3    0    0 -0.30936058075E+02  0.99702999235E+01 -0.28041925228E+01  0.32623765348E+02  0.00000000000E+00 0.  1.
</event>
<event>
 7    1  0.6262315E-006  0.9748449E+02  0.7818608E-02  0.1305284E+00
          2   -1    0    0  502    0  0.00000000000E+00  0.00000000000E+00  0.76216097010E+02  0.76216097010E+02  0.00000000000E+00 0. -1.
          1   -1    0    0  501    0 -0.00000000000E+00 -0.00000000000E+00 -0.14395844478E+04  0.14395844478E+04  0.00000000000E+00 0. -1.
         25    2    1    2    0    0  0.16413737800E+02 -0.74775358765E+02 -0.64238947070E+03  0.65890068819E+03  0.12500047908E+03 0.  0.
          2    1    1    2  501    0  0.60526702608E+02  0.10091526687E+03 -0.75837349488E+03  0.76744884556E+03  0.00000000000E+00 0. -1.
          1    1    1    2  502    0 -0.76940440408E+02 -0.26139908101E+02  0.37394614781E+02  0.89451011064E+02  0.00000000000E+00 0. -1.
         22    1    3    3    0    0  0.31775319237E+02 -0.16534474465E+02 -0.53152443781E+03  0.53273003271E+03  0.00000000000E+00 0.  1.
         22    1    3    3    0    0 -0.15361581437E+02 -0.58240884300E+02 -0.11086503289E+03  0.12617065548E+03  0.00000000000E+00 0.  1.
</event>
<event>
 7    1  0.6262315E-006  0.2020473E+03  0.7818608E-02  0.1221520E+00
          2   -1    0    0  502    0  0.00000000000E+00  0.00000000000E+00  0.20629721384E+04  0.20629721384E+04  0.00000000000E+00 0. -1.
          1   -1    0    0  501    0 -0.00000000000E+00 -0.00000000000E+00 -0.30365264535E+03  0.30365264535E+03  0.00000000000E+00 0. -1.
         25    2    1    2    0    0 -0.14865528019E+03  0.23581264654E+03  0.10073528213E+04  0.10526590869E+04  0.12500180034E+03 0.  0.
          2    1    1    2  501    0  0.75958926511E+02 -0.18450220494E+03 -0.24334387199E+03  0.31468565614E+03  0.00000000000E+00 0. -1.
          1    1    1    2  502    0  0.72696353683E+02 -0.51310441604E+02  0.99531054371E+03  0.99928004067E+03  0.00000000000E+00 0. -1.
         22    1    3    3    0    0 -0.44353560104E+02  0.17647660123E+03  0.68287316783E+03  0.70670148748E+03  0.00000000000E+00 0. -1.
         22    1    3    3    0    0 -0.10430172009E+03  0.59336045313E+02  0.32447965351E+03  0.34595759946E+03  0.00000000000E+00 0. -1.
</event>
<event>
 7    1  0.6262315E-006  0.8236074E+02  0.7818608E-02  0.1499643E+00
          2   -1    0    0  502    0  0.00000000000E+00  0.00000000000E+00  0.44727154928E+03  0.44727154928E+03  0.00000000000E+00 0. -1.
          1   -1    0    0  501    0 -0.00000000000E+00 -0.00000000000E+00 -0.10526281263E+03  0.10526281263E+03  0.00000000000E+00 0. -1.
         25    2    1    2    0    0  0.76739271939E+02  0.17301403669E+02  0.21411867382E+03  0.26011519492E+03  0.12499941490E+03 0.  0.
          2    1    1    2  501    0 -0.73823347259E+02 -0.37692373445E+02 -0.60680788219E+02  0.10272662593E+03  0.00000000000E+00 0. -1.
          1    1    1    2  502    0 -0.29159246799E+01  0.20390969776E+02  0.18857085105E+03  0.18969254105E+03  0.00000000000E+00 0. -1.
         22    1    3    3    0    0  0.50407818666E+02 -0.21982908655E+02  0.17233593668E+02  0.57629794432E+02  0.00000000000E+00 0. -1.
         22    1    3    3    0    0  0.26331453273E+02  0.39284312324E+02  0.19688508015E+03  0.20248540049E+03  0.00000000000E+00 0. -1.
</event>
<event>
 7    1  0.6262315E-006  0.5152846E+02  0.7818608E-02  0.1482999E+00
          2   -1    0    0  502    0  0.00000000000E+00  0.00000000000E+00  0.63275054751E+03  0.63275054751E+03  0.00000000000E+00 0. -1.
          1   -1    0    0  501    0 -0.00000000000E+00 -0.00000000000E+00 -0.14833285333E+03  0.14833285333E+03  0.00000000000E+00 0. -1.
         25    2    1    2    0    0 -0.65445868624E+02 -0.36087008667E+02  0.63823774902E+02  0.15898650534E+03  0.12497119958E+03 0.  0.
          2    1    1    2  501    0  0.14370782364E+02  0.34055414991E+02 -0.96057047656E+02  0.10292350111E+03  0.00000000000E+00 0. -1.
          1    1    1    2  502    0  0.51075086260E+02  0.20315936763E+01  0.51665096693E+03  0.51917339439E+03  0.00000000000E+00 0. -1.
         22    1    3    3    0    0 -0.97428390250E+02 -0.17162137377E+02  0.18957676167E+02  0.10072846505E+03  0.00000000000E+00 0.  1.
         22    1    3    3    0    0  0.31982521626E+02 -0.18924871290E+02  0.44866098736E+02  0.58258040292E+02  0.00000000000E+00 0.  1.
</event>
<event>
 7    1  0.6262315E-006  0.5372635E+02  0.7818608E-02  0.1444398E+00
          2   -1    0    0  502    0  0.00000000000E+00  0.00000000000E+00  0.17807302990E+03  0.17807302990E+03  0.00000000000E+00 0. -1.
          1   -1    0    0  501    0 -0.00000000000E+00 -0.00000000000E+00 -0.15313669516E+04  0.15313669516E+04  0.00000000000E+00 0. -1.
         25    2    1    2    0    0 -0.13668513592E+02 -0.95722256941E+02 -0.57767756588E+03  0.59890383607E+03  0.12499942404E+03 0.  0.
          2    1    1    2  501    0 -0.27765461504E+00  0.50986548454E+02 -0.93909302010E+03  0.94047615898E+03  0.00000000000E+00 0. -1.
          1    1    1    2  502    0  0.13946168207E+02  0.44735708488E+02  0.16347666429E+03  0.17005998644E+03  0.00000000000E+00 0. -1.
         22    1    3    3    0    0 -0.61244438787E+02 -0.18456206611E+02 -0.18067532575E+03  0.19166399291E+03  0.00000000000E+00 0.  1.
         22    1    3    3    0    0  0.47575925195E+02 -0.77266050330E+02 -0.39700224013E+03  0.40723984317E+03  0.00000000000E+00 0.  1.
</event>
<event>
 7    1  0.6262315E-006  0.4223284E+02  0.7818608E-02  0.1581617E+00
          2   -1    0    0  502    0  0.00000000000E+00  0.00000000000E+00  0.50192843949E+01  0.50192843949E+01  0.00000000000E+00 0. -1.
          1   -1    0    0  501    0 -0.00000000000E+00 -0.00000000000E+00 -0.34896762229E+04  0.34896762229E+04  0.00000000000E+00 0. -1.
         25    2    1    2    0    0 -0.63885375407E+01  0.47203231767E+02 -0.96454046778E+03  0.97377081771E+03  0.12498933131E+03 0.  0.
          2    1    1    2  501    0  0.20538671106E+02 -0.11545407401E+02 -0.12739661156E+04  0.12741839730E+04  0.00000000000E+00 0. -1.
          1    1    1    2  502    0 -0.14150133566E+02 -0.35657824366E+02 -0.12461503552E+04  0.12467407166E+04  0.00000000000E+00 0. -1.
         22    1    3    3    0    0  0.49658826028E+02  0.58031164108E+02 -0.51962049882E+03  0.52520384405E+03  0.00000000000E+00 0. -1.
         22    1    3    3    0    0 -0.56047363569E+02 -0.10827932341E+02 -0.44491996896E+03  0.44856697366E+03  0.00000000000E+00 0. -1.
</event>
<event>
 7    1  0.6262315E-006  0.2983241E+03  0.7818608E-02  0.1191350E+00
          2   -1    0    0  502    0  0.00000000000E+00  0.00000000000E+00  0.38027834146E+03  0.38027834146E+03  0.00000000000E+00 0. -1.
          1   -1    0    0  501    0 -0.00000000000E+00 -0.00000000000E+00 -0.14866512807E+04  0.14866512807E+04  0.00000000000E+00 0. -1.
         25    2    1    2    0    0 -0.30342215293E+03 -0.63307569240E+02  0.80757576058E+01  0.33431000845E+03  0.12500045071E+03 0.  0.
          2    1    1    2  501    0  0.41233924967E+02 -0.72417794074E+02 -0.12171738286E+04  0.12200232385E+04  0.00000000000E+00 0. -1.
          1    1    1    2  502    0  0.26218822796E+03  0.13572536331E+03  0.10272513172E+03  0.31259637524E+03  0.00000000000E+00 0. -1.
         22    1    3    3    0    0 -0.10791311384E+03 -0.80520746685E+02  0.26343908565E+02  0.13719632759E+03  0.00000000000E+00 0. -1.
         22    1    3    3    0    0 -0.19550903908E+03  0.17213177445E+02 -0.18268150959E+02  0.19711368086E+03  0.00000000000E+00 0. -1.
</event>
<event>
 7    1  0.6262315E-006  0.9746186E+02  0.7818608E-02  0.1472705E+00
          2   -1    0    0  502    0  0.00000000000E+00  0.00000000000E+00  0.75637019778E+03  0.75637019778E+03  0.00000000000E+00 0. -1.
          1   -1    0    0  501    0 -0.00000000000E+00 -0.00000000000E+00 -0.92497042954E+02  0.92497042954E+02  0.00000000000E+00 0. -1.
         25    2    1    2    0    0 -0.68298330053E+02  0.37741961186E+02  0.21155482493E+02  0.14886700695E+03  0.12499885518E+03 0.  0.
          2    1    1    2  501    0 -0.15445730859E+02  0.14258867438E+02 -0.20579776878E+02  0.29417904731E+02  0.00000000000E+00 0. -1.
          1    1    1    2  502    0  0.83744060912E+02 -0.52000828624E+02  0.66329744921E+03  0.67058232906E+03  0.00000000000E+00 0. -1.
         22    1    3    3    0    0  0.16977785022E+02  0.24070338535E+02 -0.35080427334E+02  0.45806798222E+02  0.00000000000E+00 0.  1.
         22    1    3    3    0    0 -0.85276115075E+02  0.13671622651E+02  0.56235909827E+02  0.10306020872E+03  0.00000000000E+00 0.  1.
</event>
<event>
 7    1  0.6262315E-006  0.1580022E+03  0.7818608E-02  0.1358471E+00
          2   -1    0    0  502    0  0.00000000000E+00  0.00000000000E+00  0.12365795402E+04  0.12365795402E+04  0.00000000000E+00 0. -1.
          1   -1    0    0  501    0 -0.00000000000E+00 -0.00000000000E+00 -0.66715658122E+03  0.66715658122E+03  0.00000000000E+00 0. -1.
         25    2    1    2    0    0 -0.13159754425E+03 -0.13090718167E+03  0.12354152343E+03  0.25562132844E+03  0.12500060670E+03 0.  0.
          2    1    1    2  501    0  0.10297542525E+03  0.11790178628E+03 -0.59068296282E+03  0.61107375330E+03  0.00000000000E+00 0. -1.
          1    1    1    2  502    0  0.28622119005E+02  0.13005395390E+02  0.10365643984E+04  0.10370410397E+04  0.00000000000E+00 0. -1.
         22    1    3    3    0    0 -0.69130042249E+02 -0.59615614817E+02 -0.10030262584E+02  0.91834581933E+02  0.00000000000E+00 0.  1.
         22    1    3    3    0    0 -0.62467502006E+02 -0.71291566855E+02  0.13357178602E+03  0.16378674651E+03  0.00000000000E+00 0.  1.
</event>
<event>
 7    1  0.6262315E-006  0.4332867E+02  0.7818608E-02  0.1520266E+00
          2   -1    0    0  502    0  0.00000000000E+00  0.00000000000E+00  0.14416891946E+04  0.14416891946E+04  0.00000000000E+00 0. -1.
          1   -1    0    0  501    0 -0.00000000000E+00 -0.00000000000E+00 -0.15385485609E+03  0.15385485609E+03  0.00000000000E+00 0. -1.
         25    2    1    2    0    0  0.54120340530E+02 -0.42676400126E+02  0.12500837967E+03  0.18974257183E+03  0.12499944876E+03 0.  0.
          2    1    1    2  501    0 -0.12438262056E+02  0.31692389076E+02 -0.11873301248E+03  0.12351779686E+03  0.00000000000E+00 0. -1.
          1    1    1    2  502    0 -0.41682078474E+02  0.10984011050E+02  0.12815589713E+04  0.12822836820E+04  0.00000000000E+00 0. -1.
         22    1    3    3    0    0  0.61418239119E+02 -0.54575409109E+01  0.13677531696E+03  0.15003157060E+03  0.00000000000E+00 0.  1.
         22    1    3    3    0    0 -0.72978985891E+01 -0.37218859215E+02 -0.11766937292E+02  0.39711001225E+02  0.00000000000E+00 0.  1.
</event>
<event>
 7    1  0.6262315E-006  0.1536445E+03  0.7818608E-02  0.1387805E+00
          2   -1    0    0  502    0  0.00000000000E+00  0.00000000000E+00  0.21426187881E+04  0.21426187881E+04  0.00000000000E+00 0. -1.
          1   -1    0    0  501    0 -0.00000000000E+00 -0.00000000000E+00 -0.17686708988E+03  0.17686708988E+03  0.00000000000E+00 0. -1.
         25    2    1    2    0    0 -0.99622141917E+02 -0.14626085619E+03  0.48303859482E+02  0.22198049746E+03  0.12500107678E+03 0.  0.
          2    1    1    2  501    0  0.75275975890E+01  0.24246472551E+02 -0.85266142150E+02  0.88965561617E+02  0.00000000000E+00 0. -1.
          1    1    1    2  502    0  0.92094544328E+02  0.12201438364E+03  0.20027139809E+04  0.20085398189E+04  0.00000000000E+00 0. -1.
         22    1    3    3    0    0 -0.12611143671E+03 -0.96304888592E+02  0.46722902338E+02  0.16541389191E+03  0.00000000000E+00 0.  1.
         22    1    3    3    0    0  0.26489294790E+02 -0.49955967603E+02  0.15809571444E+01  0.56566605547E+02  0.00000000000E+00 0.  1.
</event>
<event>
 7    1  0.6262315E-006  0.1162135E+03  0.7818608E-02  0.1403349E+00
          2   -1    0    0  502    0  0.00000000000E+00  0.00000000000E+00  0.32290433728E+03  0.32290433728E+03  0.00000000000E+00 0. -1.
          1   -1    0    0  501    0 -0.00000000000E+00 -0.00000000000E+00 -0.21612892403E+04  0.21612892403E+04  0.00000000000E+00 0. -1.
         25    2    1    2    0    0 -0.34120308154E+02  0.94470555824E+02 -0.21561689003E+03  0.26871307852E+03  0.12500877550E+03 0.  0.
          2    1    1    2  501    0  0.20129957037E+02  0.21775558168E+02 -0.19074399706E+04  0.19076704725E+04  0.00000000000E+00 0. -1.
          1    1    1    2  502    0  0.13990351117E+02 -0.11624611399E+03  0.28467195767E+03  0.30781002652E+03  0.00000000000E+00 0. -1.
         22    1    3    3    0    0 -0.12270304528E+02  0.74293108060E+02 -0.30532441293E+02  0.81254269117E+02  0.00000000000E+00 0.  1.
         22    1    3    3    0    0 -0.21850003626E+02  0.20177447764E+02 -0.18508444874E+03  0.18745880940E+03  0.00000000000E+00 0.  1.
</event>
<event>
 7    1  0.6262315E-006  0.3785112E+02  0.7818608E-02  0.1587710E+00
          2   -1    0    0  502    0  0.00000000000E+00  0.00000000000E+00  0.89674993546E+03  0.89674993546E+03  0.00000000000E+00 0. -1.
          1   -1    0    0  501    0 -0.00000000000E+00 -0.00000000000E+00 -0.24744064121E+03  0.24744064121E+03  0.00000000000E+00 0. -1.
         25    2    1    2    0    0  0.29479253712E+02 -0.39678125350E+02 -0.15926601368E+03  0.20840568653E+03  0.12499554805E+03 0.  0.
          2    1    1    2  501    0 -0.33391289177E+02  0.14658122606E+02 -0.58177655519E+02  0.68662059050E+02  0.00000000000E+00 0. -1.
          1    1    1    2  502    0  0.39120354648E+01  0.25020002744E+02  0.86675296345E+03  0.86712283109E+03  0.00000000000E+00 0. -1.
         22    1    3    3    0    0  0.65394603561E+02  0.52551648104E+01 -0.42299555656E+02  0.78059742126E+02  0.00000000000E+00 0.  1.
         22    1    3    3    0    0 -0.35915349849E+02 -0.44933290160E+02 -0.11696645802E+03  0.13034594440E+03  0.00000000000E+00 0.  1.
</event>
<event>
 7    1  0.6262315E-006  0.1338712E+03  0.7818608E-02  0.1348869E+00
          2   -1    0    0  502    0  0.00000000000E+00  0.00000000000E+00  0.22413264568E+04  0.22413264568E+04  0.00000000000E+00 0. -1.
          1   -1    0    0  501    0 -0.00000000000E+00 -0.00000000000E+00 -0.22249544431E+04  0.22249544431E+04  0.00000000000E+00 0. -1.
         25    2    1    2    0    0  0.86080741557E+02 -0.82114192908E+02  0.49674048558E+03  0.52585920590E+03  0.12499663865E+03 0.  0.
          2    1    1    2  501    0 -0.11974227108E+03  0.60038720834E+02 -0.22081310583E+04  0.22121902337E+04  0.00000000000E+00 0. -1.
          1    1    1    2  502    0  0.33661529523E+02  0.22075472074E+02  0.17277625864E+04  0.17282314602E+04  0.00000000000E+00 0. -1.
         22    1    3    3    0    0  0.11570785846E+03 -0.81161674742E+02  0.43473768297E+03  0.45713496798E+03  0.00000000000E+00 0.  1.
         22    1    3    3    0    0 -0.29627116899E+02 -0.95251816589E+00  0.62002802609E+02  0.68724237922E+02  0.00000000000E+00 0.  1.
</event>
<event>
 7    1  0.6262315E-006  0.6651975E+02  0.7818608E-02  0.1391717E+00
          2   -1    0    0  502    0  0.00000000000E+00  0.00000000000E+00  0.20589806676E+04  0.20589806676E+04  0.00000000000E+00 0. -1.
          1   -1    0    0  501    0 -0.00000000000E+00 -0.00000000000E+00 -0.71801584072E+03  0.71801584072E+03  0.00000000000E+00 0. -1.
         25    2    1    2    0    0  0.43498922149E+01  0.83658177818E+02  0.15159600619E+03  0.21359672239E+03  0.12499839376E+03 0.  0.
          2    1    1    2  501    0 -0.47473863646E+02 -0.46652775788E+02 -0.68497173958E+03  0.68819803345E+03  0.00000000000E+00 0. -1.
          1    1    1    2  502    0  0.43123971431E+02 -0.37005402030E+02  0.18743405603E+04  0.18752017525E+04  0.00000000000E+00 0. -1.
         22    1    3    3    0    0 -0.31190706989E+02  0.10268036369E+03  0.12743047030E+03  0.16659724503E+03  0.00000000000E+00 0.  1.
         22    1    3    3    0    0  0.35540599204E+02 -0.19022185874E+02  0.24165535896E+02  0.46999477363E+02  0.00000000000E+00 0.  1.
</event>
<event>
 7    1  0.6262315E-006  0.1749383E+03  0.7818608E-02  0.1266534E+00
          2   -1    0    0  502    0  0.00000000000E+00  0.00000000000E+00  0.31273897853E+04  0.31273897853E+04  0.00000000000E+00 0. -1.
          1   -1    0    0  501    0 -0.00000000000E+00 -0.00000000000E+00 -0.95885707991E+03  0.95885707991E+03  0.00000000000E+00 0. -1.
         25    2    1    2    0    0  0.20715063964E+01 -0.11817006169E+03  0.17338038667E+03  0.24424639904E+03  0.12500836110E+03 0.  0.
          2    1    1    2  501    0  0.28593058648E+02 -0.58653172347E+02 -0.91950804170E+03  0.92182037100E+03  0.00000000000E+00 0. -1.
          1    1    1    2  502    0 -0.30664565044E+02  0.17682323403E+03  0.29146603605E+04  0.29201800952E+04  0.00000000000E+00 0. -1.
         22    1    3    3    0    0 -0.41041307570E+02 -0.79645894195E+01  0.10837520944E+02  0.43188835037E+02  0.00000000000E+00 0.  1.
         22    1    3    3    0    0  0.43112813966E+02 -0.11020547227E+03  0.16254286572E+03  0.20105756400E+03  0.00000000000E+00 0.  1.
</event>
<event>
 7    1  0.6262315E-006  0.7819402E+02  0.7818608E-02  0.1375892E+00
          2   -1    0    0  502    0  0.00000000000E+00  0.00000000000E+00  0.12875831062E+04  0.12875831062E+04  0.00000000000E+00 0. -1.
          1   -1    0    0  501    0 -0.00000000000E+00 -0.00000000000E+00 -0.76340314394E+02  0.76340314394E+02  0.00000000000E+00 0. -1.
         25    2    1    2    0    0  0.37712558781E+02 -0.34557072943E+02  0.15321028111E+03  0.20424156819E+03  0.12499919824E+03 0.  0.
          2    1    1    2  501    0 -0.14647134188E+02  0.84443423684E+02 -0.13482419624E+02  0.86758319384E+02  0.00000000000E+00 0. -1.
          1    1    1    2  502    0 -0.23065424593E+02 -0.49886350741E+02  0.10715149303E+04  0.10729235330E+04  0.00000000000E+00 0. -1.
         22    1    3    3    0    0 -0.25113378247E+02  0.34935562252E+01 -0.84102902531E+01  0.26713661003E+02  0.00000000000E+00 0.  1.
         22    1    3    3    0    0  0.62825937028E+02 -0.38050629168E+02  0.16162057136E+03  0.17752790719E+03  0.00000000000E+00 0.  1.
</event>
<event>
 7    1  0.6262315E-006  0.6238767E+02  0.7818608E-02  0.1414356E+00
          2   -1    0    0  502    0  0.00000000000E+00  0.00000000000E+00  0.39255053718E+02  0.39255053718E+02  0.00000000000E+00 0. -1.
          1   -1    0    0  501    0 -0.00000000000E+00 -0.00000000000E+00 -0.53407558417E+03  0.53407558417E+03  0.00000000000E+00 0. -1.
         25    2    1    2    0    0 -0.14224661432E+02  0.43115852694E+02 -0.13840414823E+03  0.19194730514E+03  0.12500696763E+03 0.  0.
          2    1    1    2  501    0  0.60959830296E+02  0.13271031275E+02 -0.15675506161E+03  0.16871387175E+03  0.00000000000E+00 0. -1.
          1    1    1    2  502    0 -0.46735168864E+02 -0.56386883969E+02 -0.19966132061E+03  0.21266946099E+03  0.00000000000E+00 0. -1.
         22    1    3    3    0    0  0.44069568768E+02  0.57897033578E+02 -0.72130937574E+02  0.10245518798E+03  0.00000000000E+00 0. -1.
         22    1    3    3    0    0 -0.58294230200E+02 -0.14781180884E+02 -0.66273210658E+02  0.89492117161E+02  0.00000000000E+00 0. -1.
</event>
<event>
 7    1  0.6262315E-006  0.3852023E+03  0.7818608E-02  0.1252809E+00
          2   -1    0    0  502    0  0.00000000000E+00  0.00000000000E+00  0.20511225811E+04  0.20511225811E+04  0.00000000000E+00 0. -1.
          1   -1    0    0  501    0 -0.00000000000E+00 -0.00000000000E+00 -0.38891388878E+03  0.38891388878E+03  0.00000000000E+00 0. -1.
         25    2    1    2    0    0  0.35931557315E+03  0.13176744310E+02  0.61295862465E+03  0.72154324124E+03  0.12500026300E+03 0.  0.
          2    1    1    2  501    0 -0.38960512018E+03  0.20813468360E+01 -0.22090938460E+03  0.44788105327E+03  0.00000000000E+00 0. -1.
          1    1    1    2  502    0  0.30289547035E+02 -0.15258091146E+02  0.12701594523E+04  0.12706121754E+04  0.00000000000E+00 0. -1.
         22    1    3    3    0    0  0.21901509526E+03  0.67373668068E+02  0.34266137671E+03  0.41221795472E+03  0.00000000000E+00 0.  1.
         22    1    3    3    0    0  0.14030047788E+03 -0.54196923758E+02  0.27029724794E+03  0.30932528653E+03  0.00000000000E+00 0.  1.
</event>
<event>
 7    1  0.6262315E-006  0.1033612E+03  0.7818608E-02  0.1375806E+00
          2   -1    0    0  502    0  0.00000000000E+00  0.00000000000E+00  0.17562045698E+03  0.17562045698E+03  0.00000000000E+00 0. -1.
          1   -1    0    0  501    0 -0.00000000000E+00 -0.00000000000E+00 -0.15600247315E+04  0.15600247315E+04  0.00000000000E+00 0. -1.
         25    2    1    2    0    0  0.71302822891E+02 -0.50799715424E+02 -0.49059729501E+03  0.51378462728E+03  0.12499693482E+03 0.  0.
          2    1    1    2  501    0 -0.59364914893E+02  0.90658032886E+02 -0.10523673248E+04  0.10579319725E+04  0.00000000000E+00 0. -1.
          1    1    1    2  502    0 -0.11937907999E+02 -0.39858317462E+02  0.15856034527E+03  0.16392858876E+03  0.00000000000E+00 0. -1.
         22    1    3    3    0    0 -0.24749836523E+02 -0.50346330248E+02 -0.16218996103E+03  0.17161844550E+03  0.00000000000E+00 0.  1.
         22    1    3    3    0    0  0.96052659414E+02 -0.45338517597E+00 -0.32840733398E+03  0.34216618178E+03  0.00000000000E+00 0.  1.
</event>
<event>
 7    1  0.6262315E-006  0.5119099E+02  0.7818608E-02  0.1541809E+00
          2   -1    0    0  502    0  0.00000000000E+00  0.00000000000E+00  0.18057862198E+04  0.18057862198E+04  0.00000000000E+00 0. -1.
          1   -1    0    0  501    0 -0.00000000000E+00 -0.00000000000E+00 -0.45787744896E+02  0.45787744896E+02  0.00000000000E+00 0. -1.
         25    2    1    2    0    0 -0.19549385567E+02 -0.21375400716E+02  0.18013727263E+03  0.22115508922E+03  0.12498420006E+03 0.  0.
          2    1    1    2  501    0 -0.37956183169E+01 -0.24714199523E+02 -0.18574647999E+02  0.31148289275E+02  0.00000000000E+00 0. -1.
          1    1    1    2  502    0  0.23345003884E+02  0.46089600240E+02  0.15984358503E+04  0.15992705862E+04  0.00000000000E+00 0. -1.
         22    1    3    3    0    0 -0.72087125189E+02 -0.17210895176E+02  0.12144593758E+03  0.14227397613E+03  0.00000000000E+00 0. -1.
         22    1    3    3    0    0  0.52537739622E+02 -0.41645055408E+01  0.58691335053E+02  0.78881113084E+02  0.00000000000E+00 0. -1.
</event>
<event>
 7    1  0.6262315E-006  0.1071605E+03  0.7818608E-02  0.1286367E+00
          2   -1    0    0  502    0  0.00000000000E+00  0.00000000000E+00  0.30878871594E+03  0.30878871594E+03  0.00000000000E+00 0. -1.
          1   -1    0    0  501    0 -0.00000000000E+00 -0.00000000000E+00 -0.45732952450E+03  0.45732952450E+03  0.00000000000E+00 0. -1.
         25    2    1    2    0    0  0.48395313414E+02 -0.14439814099E+03 -0.14581352530E+03  0.24510728799E+03  0.12499227571E+03 0.  0.
          2    1    1    2  501    0  0.26747257134E+02  0.98394054061E+02 -0.24384223378E+03  0.26430255506E+03  0.00000000000E+00 0. -1.
          1    1    1    2  502    0 -0.75142570548E+02  0.46004086926E+02  0.24111495052E+03  0.25670839738E+03  0.00000000000E+00 0. -1.
         22    1    3    3    0    0  0.65322812514E+02 -0.16055706795E+03 -0.13254162266E+03  0.21820385799E+03  0.00000000000E+00 0.  1.
         22    1    3    3    0    0 -0.16927499100E+02  0.16158926964E+02 -0.13271902641E+02  0.26903430006E+02  0.00000000000E+00 0.  1.
</event>
<event>
 7    1  0.6262315E-006  0.6202787E+02  0.7818608E-02  0.1424819E+00
          2   -1    0    0  502    0  0.00000000000E+00  0.00000000000E+00  0.72319732549E+03  0.72319732549E+03  0.00000000000E+00 0. -1.
          1   -1    0    0  501    0 -0.00000000000E+00 -0.00000000000E+00 -0.46658563588E+03  0.46658563588E+03  0.00000000000E+00 0. -1.
         25    2    1    2    0    0 -0.49488589838E+02 -0.42838463399E+02 -0.12504531987E+03  0.18853600301E+03  0.12500095176E+03 0.  0.
          2    1    1    2  501    0  0.69571455235E+01  0.62924399594E+02 -0.30574859172E+03  0.31223402005E+03  0.00000000000E+00 0. -1.
          1    1    1    2  502    0  0.42531444314E+02 -0.20085936195E+02  0.68740560120E+03  0.68901293830E+03  0.00000000000E+00 0. -1.
         22    1    3    3    0    0 -0.26525098760E+02 -0.32241300875E+02 -0.14836963017E+03  0.15413185752E+03  0.00000000000E+00 0.  1.
         22    1    3    3    0    0 -0.22963491078E+02 -0.10597162524E+02  0.23324310303E+02  0.34404145493E+02  0.00000000000E+00 0.  1.
</event>
<event>
 7    1  0.6262315E-006  0.4928072E+02  0.7818608E-02  0.1531462E+00
          2   -1    0    0  502    0  0.00000000000E+00  0.00000000000E+00  0.20988573165E+04  0.20988573165E+04  0.00000000000E+00 0. -1.
          1   -1    0    0  501    0 -0.00000000000E+00 -0.00000000000E+00 -0.44679840017E+02  0.44679840017E+02  0.00000000000E+00 0. -1.
         25    2    1    2    0    0  0.21979457076E+02 -0.59405309169E+02  0.25769428090E+03  0.29332946585E+03  0.12499498324E+03 0.  0.
          2    1    1    2  501    0 -0.25761096459E+02  0.10426728850E+02 -0.19251969885E+02  0.33808121949E+02  0.00000000000E+00 0. -1.
          1    1    1    2  502    0  0.37816393829E+01  0.48978580318E+02  0.18157351655E+04  0.18163995687E+04  0.00000000000E+00 0. -1.
         22    1    3    3    0    0 -0.38550608866E+02 -0.21874480235E+02  0.18988809167E+03  0.19499264008E+03  0.00000000000E+00 0. -1.
         22    1    3    3    0    0  0.60530065942E+02 -0.37530828934E+02  0.67806189234E+02  0.98336825767E+02  0.00000000000E+00 0. -1.
</event>
<event>
 7    1  0.6262315E-006  0.7875838E+02  0.7818608E-02  0.1393516E+00
          2   -1    0    0  502    0  0.00000000000E+00  0.00000000000E+00  0.20387135048E+03  0.20387135048E+03  0.00000000000E+00 0. -1.
          1   -1    0    0  501    0 -0.00000000000E+00 -0.00000000000E+00 -0.51753262673E+03  0.51753262673E+03  0.00000000000E+00 0. -1.
         25    2    1    2    0    0  0.47004449478E+02 -0.55999321095E+02  0.68892851576E+02  0.16035979824E+03  0.12499479053E+03 0.  0.
          2    1    1    2  501    0 -0.57285331335E+01  0.79116888142E+02 -0.46190178511E+03  0.46866358635E+03  0.00000000000E+00 0. -1.
          1    1    1    2  502    0 -0.41275916344E+02 -0.23117567048E+02  0.79347657291E+02  0.92380592625E+02  0.00000000000E+00 0. -1.
         22    1    3    3    0    0  0.30879371424E+02 -0.41732259971E+02  0.10567561906E+03  0.11773892120E+03  0.00000000000E+00 0. -1.
         22    1    3    3    0    0  0.16125078054E+02 -0.14267061123E+02 -0.36782767486E+02  0.42620877036E+02  0.00000000000E+00 0. -1.
</event>
<event>
 7    1  0.6262315E-006  0.7843714E+02  0.7818608E-02  0.1430436E+00
          2   -1    0    0  502    0  0.00000000000E+00  0.00000000000E+00  0.75087486704E+02  0.75087486704E+02  0.00000000000E+00 0. -1.
          1   -1    0    0  501    0 -0.00000000000E+00 -0.00000000000E+00 -0.29660938753E+03  0.29660938753E+03  0.00000000000E+00 0. -1.
         25    2    1    2    0    0 -0.74842027688E+02 -0.65712853714E+02 -0.13422032644E+03  0.20871029421E+03  0.12500153051E+03 0.  0.
          2    1    1    2  501    0  0.65535068692E+02  0.31309316294E+02 -0.10134167853E+03  0.12468060924E+03  0.00000000000E+00 0. -1.
          1    1    1    2  502    0  0.93069589957E+01  0.34403537419E+02  0.14040104138E+02  0.38305970774E+02  0.00000000000E+00 0. -1.
         22    1    3    3    0    0 -0.28074773570E+02 -0.64056911310E+02 -0.36804029018E+01  0.70035891964E+02  0.00000000000E+00 0. -1.
         22    1    3    3    0    0 -0.46767254118E+02 -0.16559424032E+01 -0.13053992353E+03  0.13867440225E+03  0.00000000000E+00 0. -1.
</event>
<event>
 7    1  0.6262315E-006  0.1228168E+03  0.7818608E-02  0.1367323E+00
          2   -1    0    0  502    0  0.00000000000E+00  0.00000000000E+00  0.20244968466E+04  0.20244968466E+04  0.00000000000E+00 0. -1.
          1   -1    0    0  501    0 -0.00000000000E+00 -0.00000000000E+00 -0.38545652796E+03  0.38545652796E+03  0.00000000000E+00 0. -1.
         25    2    1    2    0    0 -0.46019425061E+02  0.14871106201E+03 -0.13636441480E+03  0.24176579032E+03  0.12499070484E+03 0.  0.
          2    1    1    2  501    0 -0.47974059307E+01 -0.37250210124E+02 -0.19267388842E+03  0.19630033249E+03  0.00000000000E+00 0. -1.
          1    1    1    2  502    0  0.50816830992E+02 -0.11146085188E+03  0.19680786219E+04  0.19718872517E+04  0.00000000000E+00 0. -1.
         22    1    3    3    0    0 -0.35416523477E+02  0.16224004049E+03 -0.14681050961E+03  0.22165172366E+03  0.00000000000E+00 0.  1.
         22    1    3    3    0    0 -0.10602901584E+02 -0.13528978479E+02  0.10446094803E+02  0.20114066653E+02  0.00000000000E+00 0.  1.
</event>
<event>
 7    1  0.6262315E-006  0.5394934E+02  0.7818608E-02  0.1480310E+00
          2   -1    0    0  502    0  0.00000000000E+00  0.00000000000E+00  0.60193220663E+03  0.60193220663E+03  0.00000000000E+00 0. -1.
          1   -1    0    0  501    0 -0.00000000000E+00 -0.00000000000E+00 -0.65006143380E+02  0.65006143380E+02  0.00000000000E+00 0. -1.
         25    2    1    2    0    0  0.74116655741E+02 -0.32954323341E+02  0.28712946848E+03  0.32349396190E+03  0.12500298249E+03 0.  0.
          2    1    1    2  501    0 -0.23445036600E+02  0.27292647959E+02 -0.37317751473E+02  0.51837948925E+02  0.00000000000E+00 0. -1.
          1    1    1    2  502    0 -0.50671619140E+02  0.56616753813E+01  0.28711434624E+03  0.29160643918E+03  0.00000000000E+00 0. -1.
         22    1    3    3    0    0 -0.31079411517E+01 -0.52080321920E+02  0.19456221108E+03  0.20143602758E+03  0.00000000000E+00 0. -1.
         22    1    3    3    0    0  0.77224596892E+02  0.19125998579E+02  0.92567257402E+02  0.12205793432E+03  0.00000000000E+00 0. -1.
</event>
<event>
 7    1  0.6262315E-006  0.8467968E+02  0.7818608E-02  0.1425378E+00
          2   -1    0    0  502    0  0.00000000000E+00  0.00000000000E+00  0.83571865300E+02  0.83571865300E+02  0.00000000000E+00 0. -1.
          1   -1    0    0  501    0 -0.00000000000E+00 -0.00000000000E+00 -0.12937631673E+04  0.12937631673E+04  0.00000000000E+00 0. -1.
         25    2    1    2    0    0 -0.83835011413E+02  0.55971603083E+02 -0.31542746214E+03  0.35394960157E+03  0.12499882835E+03 0.  0.
          2    1    1    2  501    0  0.32704076485E+02  0.10364621275E+02 -0.93135483110E+03  0.93198648242E+03  0.00000000000E+00 0. -1.
          1    1    1    2  502    0  0.51130934929E+02 -0.66336224358E+02  0.36590991238E+02  0.91398948618E+02  0.00000000000E+00 0. -1.
         22    1    3    3    0    0 -0.22125036997E+02  0.88136573672E+02 -0.17184971244E+03  0.19439623593E+03  0.00000000000E+00 0.  1.
         22    1    3    3    0    0 -0.61709974417E+02 -0.32164970590E+02 -0.14357774971E+03  0.15955336564E+03  0.00000000000E+00 0.  1.
</event>
<event>
 7    1  0.6262315E-006  0.3592508E+02  0.7818608E-02  0.1546329E+00
          2   -1    0    0  502    0  0.00000000000E+00  0.00000000000E+00  0.11326923328E+03  0.11326923328E+03  0.00000000000E+00 0. -1.
          1   -1    0    0  501    0 -0.00000000000E+00 -0.00000000000E+00 -0.44435740853E+03  0.44435740853E+03  0.00000000000E+00 0. -1.
         25    2    1    2    0    0  0.21820538198E+01  0.47045372089E+02 -0.59748175798E+02  0.14628649313E+03  0.12494744962E+03 0.  0.
          2    1    1    2  501    0  0.25119898185E+02 -0.25787983039E+02 -0.33604312266E+03  0.33796598888E+03  0.00000000000E+00 0. -1.
          1    1    1    2  502    0 -0.27301952005E+02 -0.21257389050E+02  0.64703123212E+02  0.73374159797E+02  0.00000000000E+00 0. -1.
         22    1    3    3    0    0 -0.73850571815E+01 -0.29154421378E+02 -0.62584753533E+02  0.69436090978E+02  0.00000000000E+00 0.  1.
         22    1    3    3    0    0  0.95671110013E+01  0.76199793467E+02  0.28365777350E+01  0.76850402150E+02  0.00000000000E+00 0.  1.
</event>
<event>
 7    1  0.6262315E-006  0.1397077E+03  0.7818608E-02  0.1268943E+00
          2   -1    0    0  502    0  0.00000000000E+00  0.00000000000E+00  0.26149341390E+04  0.26149341390E+04  0.00000000000E+00 0. -1.
          1   -1    0    0  501    0 -0.00000000000E+00 -0.00000000000E+00 -0.59414334704E+03  0.59414334704E+03  0.00000000000E+00 0. -1.
         25    2    1    2    0    0  0.65961947004E+02 -0.18262659060E+02  0.63845093521E+02  0.15615464811E+03  0.12499429984E+03 0.  0.
          2    1    1    2  501    0 -0.13133110149E+03  0.64065479783E+02 -0.53759768622E+03  0.55710278778E+03  0.00000000000E+00 0. -1.
          1    1    1    2  502    0  0.65369154486E+02 -0.45802820723E+02  0.24945433846E+04  0.24958200501E+04  0.00000000000E+00 0. -1.
         22    1    3    3    0    0 -0.31439112249E+02 -0.30012353806E+02  0.11516740738E+02  0.44964368974E+02  0.00000000000E+00 0.  1.
         22    1    3    3    0    0  0.97401059253E+02  0.11749694746E+02  0.52328352783E+02  0.11119027914E+03  0.00000000000E+00 0.  1.
</event>
<event>
 7    1  0.6262315E-006  0.1397502E+03  0.7818608E-02  0.1267823E+00
          2   -1    0    0  502    0  0.00000000000E+00  0.00000000000E+00  0.22531274803E+03  0.22531274803E+03  0.00000000000E+00 0. -1.
          1   -1    0    0  501    0 -0.00000000000E+00 -0.00000000000E+00 -0.49684808018E+03  0.49684808018E+03  0.00000000000E+00 0. -1.
         25    2    1    2    0    0  0.77312122298E+02 -0.31655339985E+01 -0.81845450438E+02  0.16825703484E+03  0.12499826861E+03 0.  0.
          2    1    1    2  501    0  0.79628284981E+02  0.12892346093E+02 -0.33210152898E+03  0.34175766547E+03  0.00000000000E+00 0. -1.
          1    1    1    2  502    0 -0.15694040728E+03 -0.97268120941E+01  0.14241164726E+03  0.21214612790E+03  0.00000000000E+00 0. -1.
         22    1    3    3    0    0  0.73432897259E+02  0.30150189680E+02 -0.10190571319E+03  0.12917507004E+03  0.00000000000E+00 0. -1.
         22    1    3    3    0    0  0.38792250394E+01 -0.33315723679E+02  0.20060262754E+02  0.39081964803E+02  0.00000000000E+00 0. -1.
</event>
<event>
 7    1  0.6262315E-006  0.2547916E+03  0.7818608E-02  0.1208686E+00
          2   -1    0    0  502    0  0.00000000000E+00  0.00000000000E+00  0.15231860202E+03  0.15231860202E+03  0.00000000000E+00 0. -1.
          1   -1    0    0  501    0 -0.00000000000E+00 -0.00000000000E+00 -0.10991180802E+04  0.10991180802E+04  0.00000000000E+00 0. -1.
         25    2    1    2    0    0  0.14957293238E+03  0.14304329245E+03 -0.27826945997E+03  0.36863475145E+03  0.12499696799E+03 0.  0.
          2    1    1    2  501    0  0.74720972115E+02  0.30821798343E+02 -0.57988249663E+03  0.58548861374E+03  0.00000000000E+00 0. -1.
          1    1    1    2  502    0 -0.22429390450E+03 -0.17386509079E+03 -0.88647521570E+02  0.29731331701E+03  0.00000000000E+00 0. -1.
         22    1    3    3    0    0  0.70162739138E+02  0.15607013540E+02 -0.28737654347E+02  0.77409570547E+02  0.00000000000E+00 0. -1.
         22    1    3    3    0    0  0.79410193244E+02  0.12743627891E+03 -0.24953180563E+03  0.29122518090E+03  0.00000000000E+00 0. -1.
</event>
<event>
 7    1  0.6262315E-006  0.6686538E+02  0.7818608E-02  0.1450409E+00
          2   -1    0    0  502    0  0.00000000000E+00  0.00000000000E+00  0.20751064465E+03  0.20751064465E+03  0.00000000000E+00 0. -1.
          1   -1    0    0  501    0 -0.00000000000E+00 -0.00000000000E+00 -0.25285814495E+03  0.25285814495E+03  0.00000000000E+00 0. -1.
         25    2    1    2    0    0  0.16859426438E+02  0.54839483280E+02 -0.12121707463E+03  0.18332984018E+03  0.12499856773E+03 0.  0.
          2    1    1    2  501    0 -0.52678711666E+02 -0.51094929437E+02 -0.84936377829E+02  0.11224939535E+03  0.00000000000E+00 0. -1.
          1    1    1    2  502    0  0.35819285228E+02 -0.37445538431E+01  0.16080595216E+03  0.16478955406E+03  0.00000000000E+00 0. -1.
         22    1    3    3    0    0 -0.95589949817E+01  0.86406326622E+02 -0.11086571060E+03  0.14088517826E+03  0.00000000000E+00 0. -1.
         22    1    3    3    0    0  0.26418421419E+02 -0.31566843342E+02 -0.10351364031E+02  0.42444661927E+02  0.00000000000E+00 0. -1.
</event>
<event>
 7    1  0.6262315E-006  0.7423457E+02  0.7818608E-02  0.1367617E+00
          2   -1    0    0  502    0  0.00000000000E+00  0.00000000000E+00  0.19661716871E+03  0.19661716871E+03  0.00000000000E+00 0. -1.
          1   -1    0    0  501    0 -0.00000000000E+00 -0.00000000000E+00 -0.11757168015E+04  0.11757168015E+04  0.00000000000E+00 0. -1.
         25    2    1    2    0    0  0.12241411500E+03  0.42780293361E+02 -0.57931304168E+01  0.18019585862E+03  0.12498647147E+03 0.  0.
          2    1    1    2  501    0 -0.59675075925E+02 -0.16765257167E+02 -0.10711993370E+04  0.10729912433E+04  0.00000000000E+00 0. -1.
          1    1    1    2  502    0 -0.62739039078E+02 -0.26015036194E+02  0.97892834689E+02  0.11914686826E+03  0.00000000000E+00 0. -1.
         22    1    3    3    0    0  0.14392853407E+03  0.55929123417E+02 -0.95249782209E+01  0.15470686790E+03  0.00000000000E+00 0. -1.
         22    1    3    3    0    0 -0.21514419068E+02 -0.13148830056E+02  0.37318478041E+01  0.25488990716E+02  0.00000000000E+00 0. -1.
</event>
<event>
 7    1  0.6262315E-006  0.7783133E+02  0.7818608E-02  0.1368568E+00
          2   -1    0    0  502    0  0.00000000000E+00  0.00000000000E+00  0.10814906699E+04  0.10814906699E+04  0.00000000000E+00 0. -1.
          1   -1    0    0  501    0 -0.00000000000E+00 -0.00000000000E+00 -0.57373004900E+02  0.57373004900E+02  0.00000000000E+00 0. -1.
         25    2    1    2    0    0 -0.10522578584E+03 -0.81529142809E+02  0.17394160083E+03  0.25218949087E+03  0.12499756667E+03 0.  0.
          2    1    1    2  501    0  0.50768824091E+02  0.29377823585E+02  0.35596319525E+02  0.68612156225E+02  0.00000000000E+00 0. -1.
          1    1    1    2  502    0  0.54456961750E+02  0.52151319223E+02  0.81457974462E+03  0.81806202768E+03  0.00000000000E+00 0. -1.
         22    1    3    3    0    0 -0.94314268666E+02  0.35612451892E+01  0.11150788068E+03  0.14608857312E+03  0.00000000000E+00 0. -1.
         22    1    3    3    0    0 -0.10911517174E+02 -0.85090387998E+02  0.62433720141E+02  0.10610091775E+03  0.00000000000E+00 0. -1.
</event>
<event>
 7    1  0.6262315E-006  0.1751017E+03  0.7818608E-02  0.1341548E+00
          2   -1    0    0  502    0  0.00000000000E+00  0.00000000000E+00  0.55832593579E+03  0.55832593579E+03  0.00000000000E+00 0. -1.
          1   -1    0    0  501    0 -0.00000000000E+00 -0.00000000000E+00 -0.72734549800E+03  0.72734549800E+03  0.00000000000E+00 0. -1.
         25    2    1    2    0    0 -0.14263077735E+03 -0.38925030827E+02 -0.25398272173E+03  0.31936046948E+03  0.12500075942E+03 0.  0.
          2    1    1    2  501    0 -0.31418732366E+02  0.93284989382E+01 -0.42520099117E+03  0.42646223810E+03  0.00000000000E+00 0. -1.
          1    1    1    2  502    0  0.17404950971E+03  0.29596531888E+02  0.51016415069E+03  0.53984872620E+03  0.00000000000E+00 0. -1.
         22    1    3    3    0    0 -0.54661069289E+02 -0.23168327900E+02 -0.21285891569E+03  0.22098308058E+03  0.00000000000E+00 0. -1.
         22    1    3    3    0    0 -0.87969708059E+02 -0.15756702927E+02 -0.41123806040E+02  0.98377388898E+02  0.00000000000E+00 0. -1.
</event>
<event>
 7    1  0.6262315E-006  0.5782865E+02  0.7818608E-02  0.1421583E+00
          2   -1    0    0  502    0  0.00000000000E+00  0.00000000000E+00  0.24940836928E+04  0.24940836928E+04  0.00000000000E+00 0. -1.
          1   -1    0    0  501    0 -0.00000000000E+00 -0.00000000000E+00 -0.14932705969E+02  0.14932705969E+02  0.00000000000E+00 0. -1.
         25    2    1    2    0    0  0.11399443884E+02 -0.14194247798E+02  0.14005459256E+04  0.14062309591E+04  0.12500078642E+03 0.  0.
          2    1    1    2  501    0  0.15156757573E+02  0.58572053165E+02  0.68643026074E+02  0.91500151588E+02  0.00000000000E+00 0. -1.
          1    1    1    2  502    0 -0.26556201457E+02 -0.44377805367E+02  0.10099620352E+04  0.10112852881E+04  0.00000000000E+00 0. -1.
         22    1    3    3    0    0  0.22297847351E+02  0.36196318338E+02  0.11310061227E+04  0.11318048494E+04  0.00000000000E+00 0.  1.
         22    1    3    3    0    0 -0.10898403468E+02 -0.50390566136E+02  0.26953980286E+03  0.27442610969E+03  0.00000000000E+00 0.  1.
</event>
<event>
 7    1  0.6262315E-006  0.1201882E+03  0.7818608E-02  0.1360306E+00
          2   -1    0    0  502    0  0.00000000000E+00  0.00000000000E+00  0.86652332588E+03  0.86652332588E+03  0.00000000000E+00 0. -1.
          1   -1    0    0  501    0 -0.00000000000E+00 -0.00000000000E+00 -0.35553878217E+03  0.35553878217E+03  0.00000000000E+00 0. -1.
         25    2    1    2    0    0  0.81325490057E+02 -0.61461658426E+02 -0.22720781628E+02  0.16288631025E+03  0.12499738141E+03 0.  0.
          2    1    1    2  501    0 -0.73026312950E+02  0.10130313914E+03 -0.24733623853E+03  0.27707468898E+03  0.00000000000E+00 0. -1.
          1    1    1    2  502    0 -0.82991771068E+01 -0.39841480713E+02  0.78104156387E+03  0.78210110882E+03  0.00000000000E+00 0. -1.
         22    1    3    3    0    0  0.83549130056E+02 -0.91800216978E+02  0.12859860238E+01  0.12413456702E+03  0.00000000000E+00 0.  1.
         22    1    3    3    0    0 -0.22236399989E+01  0.30338558551E+02 -0.24006767652E+02  0.38751743224E+02  0.00000000000E+00 0.  1.
</event>
<event>
 7    1  0.6262315E-006  0.9294904E+02  0.7818608E-02  0.1300854E+00
          2   -1    0    0  502    0  0.00000000000E+00  0.00000000000E+00  0.25768341552E+04  0.25768341552E+04  0.00000000000E+00 0. -1.
          1   -1    0    0  501    0 -0.00000000000E+00 -0.00000000000E+00 -0.25488125616E+04  0.25488125616E+04  0.00000000000E+00 0. -1.
         25    2    1    2    0    0  0.19546867018E+02  0.11653953558E+03  0.16338235548E+03  0.23723991360E+03  0.12500175664E+03 0.  0.
          2    1    1    2  501    0 -0.77422213404E+02 -0.43405727540E+02 -0.25101840925E+04  0.25117528609E+04  0.00000000000E+00 0. -1.
          1    1    1    2  502    0  0.57875346385E+02 -0.73133808037E+02  0.23748233306E+04  0.23766539422E+04  0.00000000000E+00 0. -1.
         22    1    3    3    0    0 -0.26377336131E+00  0.10346697138E+03  0.18044760217E+03  0.20800678083E+03  0.00000000000E+00 0. -1.
         22    1    3    3    0    0  0.19810640380E+02  0.13072564198E+02 -0.17065246692E+02  0.29233132771E+02  0.00000000000E+00 0. -1.
</event>
<event>
 7    1  0.6262315E-006  0.1974405E+03  0.7818608E-02  0.1252080E+00
          2   -1    0    0  502    0  0.00000000000E+00  0.00000000000E+00  0.45894737918E+03  0.45894737918E+03  0.00000000000E+00 0. -1.
          1   -1    0    0  501    0 -0.00000000000E+00 -0.00000000000E+00 -0.55444647921E+03  0.55444647921E+03  0.00000000000E+00 0. -1.
         25    2    1    2    0    0  0.19206192888E+03 -0.14453599287E+03 -0.50542400326E+02  0.27560356341E+03  0.12499740866E+03 0.  0.
          2    1    1    2  501    0 -0.66649798279E+02  0.27470270043E+00 -0.36172549344E+03  0.36781463222E+03  0.00000000000E+00 0. -1.
          1    1    1    2  502    0 -0.12541213060E+03  0.14426129017E+03  0.31676879373E+03  0.36997566275E+03  0.00000000000E+00 0. -1.
         22    1    3    3    0    0 -0.14369075879E+01 -0.50699202399E+02 -0.31512123405E+02  0.59711705291E+02  0.00000000000E+00 0.  1.
         22    1    3    3    0    0  0.19349883647E+03 -0.93836790476E+02 -0.19030276921E+02  0.21589185812E+03  0.00000000000E+00 0.  1.
</event>
<event>
 7    1  0.6262315E-006  0.8872197E+02  0.7818608E-02  0.1464607E+00
          2   -1    0    0  502    0  0.00000000000E+00  0.00000000000E+00  0.22475000687E+04  0.22475000687E+04  0.00000000000E+00 0. -1.
          1   -1    0    0  501    0 -0.00000000000E+00 -0.00000000000E+00 -0.28383623337E+02  0.28383623337E+02  0.00000000000E+00 0. -1.
         25    2    1    2    0    0 -0.21232482608E+02 -0.89435724583E+02  0.11033847181E+04  0.11142419174E+04  0.12501058797E+03 0.  0.
          2    1    1    2  501    0 -0.21396808776E+02  0.11880086689E+02 -0.14169779390E+02  0.28279719473E+02  0.00000000000E+00 0. -1.
          1    1    1    2  502    0  0.42629291384E+02  0.77555637894E+02  0.11299015067E+04  0.11333620552E+04  0.00000000000E+00 0. -1.
         22    1    3    3    0    0 -0.56262784569E+02  0.28541694599E+01  0.38016784938E+03  0.38431919144E+03  0.00000000000E+00 0.  1.
         22    1    3    3    0    0  0.35030301961E+02 -0.92289894043E+02  0.72321686877E+03  0.72992272595E+03  0.00000000000E+00 0.  1.
</event>
<event>
 7    1  0.6262315E-006  0.6640257E+02  0.7818608E-02  0.1514986E+00
          2   -1    0    0  502    0  0.00000000000E+00  0.00000000000E+00  0.16732958427E+04  0.16732958427E+04  0.00000000000E+00 0. -1.
          1   -1    0    0  501    0 -0.00000000000E+00 -0.00000000000E+00 -0.23084871266E+02  0.23084871266E+02  0.00000000000E+00 0. -1.
         25    2    1    2    0    0  0.72279328819E+02  0.43720988903E+02  0.56592813261E+03  0.58569242382E+03  0.12500055118E+03 0.  0.
          2    1    1    2  501    0 -0.58991860884E+02 -0.24927412872E+02  0.65361605512E+02  0.91507131078E+02  0.00000000000E+00 0. -1.
          1    1    1    2  502    0 -0.13287467935E+02 -0.18793576031E+02  0.10189212333E+04  0.10191811590E+04  0.00000000000E+00 0. -1.
         22    1    3    3    0    0  0.26544257828E+02  0.56605565207E+02  0.50284381522E+03  0.50671559098E+03  0.00000000000E+00 0.  1.
         22    1    3    3    0    0  0.45735070990E+02 -0.12884576304E+02  0.63084317390E+02  0.78976832841E+02  0.00000000000E+00 0.  1.
</event>
<event>
 7    1  0.6262315E-006  0.3651217E+03  0.7818608E-02  0.1155432E+00
          2   -1    0    0  502    0  0.00000000000E+00  0.00000000000E+00  0.29157972244E+04  0.29157972244E+04  0.00000000000E+00 0. -1.
          1   -1    0    0  501    0 -0.00000000000E+00 -0.00000000000E+00 -0.37245592529E+03  0.37245592529E+03  0.00000000000E+00 0. -1.
         25    2    1    2    0    0 -0.16500295110E+03 -0.24584572263E+03  0.27412723618E+03  0.42241749680E+03  0.12499882712E+03 0.  0.
          2    1    1    2  501    0  0.18030672168E+03  0.34713547323E+03 -0.16853767761E+03  0.42593250573E+03  0.00000000000E+00 0. -1.
          1    1    1    2  502    0 -0.15303770584E+02 -0.10128975060E+03  0.24377517406E+04  0.24399031472E+04  0.00000000000E+00 0. -1.
         22    1    3    3    0    0  0.11358895745E+02 -0.42057326931E+02  0.77154571095E+02  0.88604012901E+02  0.00000000000E+00 0.  1.
         22    1    3    3    0    0 -0.17636184684E+03 -0.20378839570E+03  0.19697266508E+03  0.33381348390E+03  0.00000000000E+00 0.  1.
</event>
<event>
 7    1  0.6262315E-006  0.5266079E+02  0.7818608E-02  0.1531500E+00
          2   -1    0    0  502    0  0.00000000000E+00  0.00000000000E+00  0.18058099218E+04  0.18058099218E+04  0.00000000000E+00 0. -1.
          1   -1    0    0  501    0 -0.00000000000E+00 -0.00000000000E+00 -0.10466773721E+03  0.10466773721E+03  0.00000000000E+00 0. -1.
         25    2    1    2    0    0  0.44336775060E+02  0.17571795611E+01  0.12889881583E+04  0.12957948674E+04  0.12500011525E+03 0.  0.
          2    1    1    2  501    0 -0.46897689939E+02  0.24117155065E+02 -0.94042256641E+02  0.10781918440E+03  0.00000000000E+00 0. -1.
          1    1    1    2  502    0  0.25609148785E+01 -0.25874334626E+02  0.50619628292E+03  0.50686360722E+03  0.00000000000E+00 0. -1.
         22    1    3    3    0    0  0.36621349715E+02  0.14083692783E+02  0.11123796919E+03  0.11795490429E+03  0.00000000000E+00 0. -1.
         22    1    3    3    0    0  0.77154253452E+01 -0.12326513221E+02  0.11777501891E+04  0.11778399631E+04  0.00000000000E+00 0. -1.
</event>
<event>
 7    1  0.6262315E-006  0.3216926E+03  0.7818608E-02  0.1188023E+00
          2   -1    0    0  502    0  0.00000000000E+00  0.00000000000E+00  0.78791612517E+03  0.78791612517E+03  0.00000000000E+00 0. -1.
          1   -1    0    0  501    0 -0.00000000000E+00 -0.00000000000E+00 -0.11067850390E+04  0.11067850390E+04  0.00000000000E+00 0. -1.
         25    2    1    2    0    0 -0.13855594532E+03 -0.34077800879E+03  0.70420995297E+02  0.39485356324E+03  0.12499127399E+03 0.  0.
          2    1    1    2  501    0  0.64354867865E+02  0.31040901670E+03 -0.91484450047E+03  0.96821266605E+03  0.00000000000E+00 0. -1.
          1    1    1    2  502    0  0.74201077454E+02  0.30368992081E+02  0.52555459130E+03  0.53163493491E+03  0.00000000000E+00 0. -1.
         22    1    3    3    0    0 -0.35124794399E+02 -0.19717607142E+03 -0.98594809407E+01  0.20052272611E+03  0.00000000000E+00 0. -1.
         22    1    3    3    0    0 -0.10343115092E+03 -0.14360193736E+03  0.80280476238E+02  0.19433083713E+03  0.00000000000E+00 0. -1.
</event>
<event>
 7    1  0.6262315E-006  0.7998590E+02  0.7818608E-02  0.1503324E+00
          2   -1    0    0  502    0  0.00000000000E+00  0.00000000000E+00  0.21584486013E+03  0.21584486013E+03  0.00000000000E+00 0. -1.
          1   -1    0    0  501    0 -0.00000000000E+00 -0.00000000000E+00 -0.44698088852E+03  0.44698088852E+03  0.00000000000E+00 0. -1.
         25    2    1    2    0    0  0.28934727038E+02 -0.55496684397E+02 -0.42852606391E+02  0.14621048210E+03  0.12499623512E+03 0.  0.
          2    1    1    2  501    0 -0.29296247278E+02  0.76174718182E+02 -0.34704496525E+03  0.35651236402E+03  0.00000000000E+00 0. -1.
          1    1    1    2  502    0  0.36152023990E+00 -0.20678033785E+02  0.15876154326E+03  0.16010290252E+03  0.00000000000E+00 0. -1.
         22    1    3    3    0    0  0.33848876159E+02 -0.80574690722E+00  0.36451995289E+02  0.49750815128E+02  0.00000000000E+00 0.  1.
         22    1    3    3    0    0 -0.49141491207E+01 -0.54690937490E+02 -0.79304601680E+02  0.96459666974E+02  0.00000000000E+00 0.  1.
</event>
<event>
 7    1  0.6262315E-006  0.9118025E+02  0.7818608E-02  0.1304247E+00
          2   -1    0    0  502    0  0.00000000000E+00  0.00000000000E+00  0.22879771754E+04  0.22879771754E+04  0.00000000000E+00 0. -1.
          1   -1    0    0  501    0 -0.00000000000E+00 -0.00000000000E+00 -0.51358517146E+03  0.51358517146E+03  0.00000000000E+00 0. -1.
         25    2    1    2    0    0 -0.32791567739E+02  0.69501547142E+02  0.36176733725E+03  0.39039193724E+03  0.12499802556E+03 0.  0.
          2    1    1    2  501    0 -0.62318449817E+02 -0.61715382671E+02 -0.49421867187E+03  0.50194070693E+03  0.00000000000E+00 0. -1.
          1    1    1    2  502    0  0.95110017556E+02 -0.77861644718E+01  0.19068433386E+04  0.19092297027E+04  0.00000000000E+00 0. -1.
         22    1    3    3    0    0 -0.64620265481E+01 -0.22512797624E+02  0.93654689941E+01  0.25224905420E+02  0.00000000000E+00 0. -1.
         22    1    3    3    0    0 -0.26329541191E+02  0.92014344766E+02  0.35240186825E+03  0.36516703182E+03  0.00000000000E+00 0. -1.
</event>
<event>
 7    1  0.6262315E-006  0.1615778E+03  0.7818608E-02  0.1288865E+00
          2   -1    0    0  502    0  0.00000000000E+00  0.00000000000E+00  0.10803362490E+03  0.10803362490E+03  0.00000000000E+00 0. -1.
          1   -1    0    0  501    0 -0.00000000000E+00 -0.00000000000E+00 -0.11294685673E+04  0.11294685673E+04  0.00000000000E+00 0. -1.
         25    2    1    2    0    0  0.11307682731E+03  0.17680181581E+03 -0.30369408912E+03  0.38974368775E+03  0.12499916570E+03 0.  0.
          2    1    1    2  501    0 -0.86242161045E+02 -0.12642572116E+03 -0.76093948873E+03  0.77617657709E+03  0.00000000000E+00 0. -1.
          1    1    1    2  502    0 -0.26834666265E+02 -0.50376094654E+02  0.43198635421E+02  0.71581927386E+02  0.00000000000E+00 0. -1.
         22    1    3    3    0    0  0.12983580329E+03  0.98047499567E+02 -0.18564341091E+03  0.24684838262E+03  0.00000000000E+00 0. -1.
         22    1    3    3    0    0 -0.16758975978E+02  0.78754316243E+02 -0.11805067822E+03  0.14289530514E+03  0.00000000000E+00 0. -1.
</event>
<event>
 7    1  0.6262315E-006  0.1076148E+03  0.7818608E-02  0.1305465E+00
          2   -1    0    0  502    0  0.00000000000E+00  0.00000000000E+00  0.11703655110E+04  0.11703655110E+04  0.00000000000E+00 0. -1.
          1   -1    0    0  501    0 -0.00000000000E+00 -0.00000000000E+00 -0.12318258458E+03  0.12318258458E+03  0.00000000000E+00 0. -1.
         25    2    1    2    0    0 -0.50329909153E+02 -0.82880535913E+01  0.21695539693E+03  0.25553476267E+03  0.12500631619E+03 0.  0.
          2    1    1    2  501    0 -0.54337844229E+02 -0.49477213042E+02 -0.86511879457E+02  0.11351167875E+03  0.00000000000E+00 0. -1.
          1    1    1    2  502    0  0.10466775338E+03  0.57765266633E+02  0.91673940894E+03  0.92450165415E+03  0.00000000000E+00 0. -1.
         22    1    3    3    0    0 -0.52605015264E+01 -0.34262760430E+02  0.23819892833E+01  0.34745985401E+02  0.00000000000E+00 0. -1.
         22    1    3    3    0    0 -0.45069407627E+02  0.25974706838E+02  0.21457340764E+03  0.22078877727E+03  0.00000000000E+00 0. -1.
</event>
<event>
 7    1  0.6262315E-006  0.1164442E+03  0.7818608E-02  0.1336820E+00
          2   -1    0    0  502    0  0.00000000000E+00  0.00000000000E+00  0.13968883687E+04  0.13968883687E+04  0.00000000000E+00 0. -1.
          1   -1    0    0  501    0 -0.00000000000E+00 -0.00000000000E+00 -0.64489542344E+03  0.64489542344E+03  0.00000000000E+00 0. -1.
         25    2    1    2    0    0  0.55425736630E+02  0.79567322697E+02  0.89837040194E+03  0.91219449328E+03  0.12500577329E+03 0.  0.
          2    1    1    2  501    0  0.23104631192E+02  0.45855414653E+02 -0.62577206596E+03  0.62787516400E+03  0.00000000000E+00 0. -1.
          1    1    1    2  502    0 -0.78530367822E+02 -0.12542273735E+03  0.47939460928E+03  0.50171413486E+03  0.00000000000E+00 0. -1.
         22    1    3    3    0    0 -0.22934467507E+02 -0.17587478618E+02  0.27036331290E+03  0.27190371489E+03  0.00000000000E+00 0. -1.
         22    1    3    3    0    0  0.78360204138E+02  0.97154801314E+02  0.62800708904E+03  0.64029077839E+03  0.00000000000E+00 0. -1.
</event>
<event>
 7    1  0.6262315E-006  0.9530775E+02  0.7818608E-02  0.1360555E+00
          2   -1    0    0  502    0  0.00000000000E+00  0.00000000000E+00  0.81532131877E+03  0.81532131877E+03  0.00000000000E+00 0. -1.
          1   -1    0    0  501    0 -0.00000000000E+00 -0.00000000000E+00 -0.67463135616E+03  0.67463135616E+03  0.00000000000E+00 0. -1.
         25    2    1    2    0    0  0.11632739044E+03  0.68586878980E+02  0.21811299653E+03  0.28537330249E+03  0.12501368240E+03 0.  0.
          2    1    1    2  501    0 -0.28899778667E+02 -0.42280150926E+02 -0.63626792253E+03  0.63832568303E+03  0.00000000000E+00 0. -1.
          1    1    1    2  502    0 -0.87427611775E+02 -0.26306728055E+02  0.55884488862E+03  0.56625368941E+03  0.00000000000E+00 0. -1.
         22    1    3    3    0    0  0.21980014634E+02  0.17655261991E+02  0.16185703100E+03  0.16429402851E+03  0.00000000000E+00 0. -1.
         22    1    3    3    0    0  0.94347375808E+02  0.50931616989E+02  0.56255965524E+02  0.12107927398E+03  0.00000000000E+00 0. -1.
</event>
<event>
 7    1  0.6262315E-006  0.1769855E+03  0.7818608E-02  0.1218243E+00
          2   -1    0    0  502    0  0.00000000000E+00  0.00000000000E+00  0.20108122292E+04  0.20108122292E+04  0.00000000000E+00 0. -1.
          1   -1    0    0  501    0 -0.00000000000E+00 -0.00000000000E+00 -0.90811976812E+03  0.90811976812E+03  0.00000000000E+00 0. -1.
         25    2    1    2    0    0  0.99542755580E+02  0.18670808833E+03 -0.42717414485E+03  0.49282258294E+03  0.12501071067E+03 0.  0.
          2    1    1    2  501    0  0.40102436885E+01 -0.16852698978E+03 -0.43080935362E+03  0.46261660963E+03  0.00000000000E+00 0. -1.
          1    1    1    2  502    0 -0.10355299927E+03 -0.18181098556E+02  0.19606759595E+04  0.19634928047E+04  0.00000000000E+00 0. -1.
         22    1    3    3    0    0  0.25135984936E+02  0.14426921065E+03 -0.34195707707E+03  0.37199471157E+03  0.00000000000E+00 0.  1.
         22    1    3    3    0    0  0.74406770644E+02  0.42438877686E+02 -0.85217067788E+02  0.12082787137E+03  0.00000000000E+00 0.  1.
</event>
<event>
 7    1  0.6262315E-006  0.5442752E+02  0.7818608E-02  0.1444021E+00
          2   -1    0    0  502    0  0.00000000000E+00  0.00000000000E+00  0.10188928218E+03  0.10188928218E+03  0.00000000000E+00 0. -1.
          1   -1    0    0  501    0 -0.00000000000E+00 -0.00000000000E+00 -0.10481895545E+04  0.10481895545E+04  0.00000000000E+00 0. -1.
         25    2    1    2    0    0  0.13879250231E+02 -0.17892859242E+02 -0.22232146566E+02  0.12896555986E+03  0.12500023716E+03 0.  0.
          2    1    1    2  501    0  0.46059164898E+02 -0.54882023930E+01 -0.95044697151E+03  0.95157816952E+03  0.00000000000E+00 0. -1.
          1    1    1    2  502    0 -0.59938415129E+02  0.23381061635E+02  0.26378845727E+02  0.69535107343E+02  0.00000000000E+00 0. -1.
         22    1    3    3    0    0 -0.11143999997E+02 -0.67030231579E+02 -0.28060812676E+02  0.73516323966E+02  0.00000000000E+00 0. -1.
         22    1    3    3    0    0  0.25023250228E+02  0.49137372337E+02  0.58286661097E+01  0.55449235890E+02  0.00000000000E+00 0. -1.
</event>
<event>
 7    1  0.6262315E-006  0.1136979E+03  0.7818608E-02  0.1309296E+00
          2   -1    0    0  502    0  0.00000000000E+00  0.00000000000E+00  0.39352548892E+04  0.39352548892E+04  0.00000000000E+00 0. -1.
          1   -1    0    0  501    0 -0.00000000000E+00 -0.00000000000E+00 -0.53261092010E+03  0.53261092010E+03  0.00000000000E+00 0. -1.
         25    2    1    2    0    0 -0.17329401544E+02 -0.67591248731E+02  0.24542990244E+03  0.28412859875E+03  0.12499735418E+03 0.  0.
          2    1    1    2  501    0 -0.35144094473E+02  0.10952447611E+03 -0.50650542317E+03  0.51940202343E+03  0.00000000000E+00 0. -1.
          1    1    1    2  502    0  0.52473496017E+02 -0.41933227381E+02  0.36637194898E+04  0.36643351871E+04  0.00000000000E+00 0. -1.
         22    1    3    3    0    0 -0.13977731211E+02  0.35973421744E+02  0.52844836382E+02  0.65437304147E+02  0.00000000000E+00 0.  1.
         22    1    3    3    0    0 -0.33516703331E+01 -0.10356467048E+03  0.19258506606E+03  0.21869129460E+03  0.00000000000E+00 0.  1.
</event>
<event>
 7    1  0.6262315E-006  0.1470661E+03  0.7818608E-02  0.1228671E+00
          2   -1    0    0  502    0  0.00000000000E+00  0.00000000000E+00  0.10007216095E+04  0.10007216095E+04  0.00000000000E+00 0. -1.
          1   -1    0    0  501    0 -0.00000000000E+00 -0.00000000000E+00 -0.14534292506E+04  0.14534292506E+04  0.00000000000E+00 0. -1.
         25    2    1    2    0    0 -0.19924574347E+03  0.40501157428E+02 -0.82753029303E+02  0.25261151429E+03  0.12500121300E+03 0.  0.
          2    1    1    2  501    0  0.13566297378E+03  0.53489352505E+02 -0.12780694824E+04  0.12863619845E+04  0.00000000000E+00 0. -1.
          1    1    1    2  502    0  0.63582769691E+02 -0.93990509933E+02  0.90811487058E+03  0.91517736135E+03  0.00000000000E+00 0. -1.
         22    1    3    3    0    0 -0.53789577632E+02  0.53200662140E+02  0.14696588101E+02  0.77068922504E+02  0.00000000000E+00 0.  1.
         22    1    3    3    0    0 -0.14545616584E+03 -0.12699504712E+02 -0.97449617404E+02  0.17554259179E+03  0.00000000000E+00 0.  1.
</event>
<event>
 7    1  0.6262315E-006  0.1910812E+03  0.7818608E-02  0.1221337E+00
          2   -1    0    0  502    0  0.00000000000E+00  0.00000000000E+00  0.12396571190E+04  0.12396571190E+04  0.00000000000E+00 0. -1.
          1   -1    0    0  501    0 -0.00000000000E+00 -0.00000000000E+00 -0.96009752469E+03  0.96009752469E+03  0.00000000000E+00 0. -1.
         25    2    1    2    0    0  0.10474168512E+03  0.50859872634E+02  0.16226186211E+03  0.23559863425E+03  0.12498102784E+03 0.  0.
          2    1    1    2  501    0 -0.19417214793E+03 -0.21051508067E+02 -0.91092161021E+03  0.93162447851E+03  0.00000000000E+00 0. -1.
          1    1    1    2  502    0  0.89430462803E+02 -0.29808364567E+02  0.10282193424E+04  0.10325315309E+04  0.00000000000E+00 0. -1.
         22    1    3    3    0    0  0.11986187507E+03  0.73092053602E+02  0.15174984249E+03  0.20673009479E+03  0.00000000000E+00 0. -1.
         22    1    3    3    0    0 -0.15120189943E+02 -0.22232180968E+02  0.10512019620E+02  0.28868539468E+02  0.00000000000E+00 0. -1.
</event>
<event>
 7    1  0.6262315E-006  0.5686457E+02  0.7818608E-02  0.1541779E+00
          2   -1    0    0  502    0  0.00000000000E+00  0.00000000000E+00  0.10869979088E+04  0.10869979088E+04  0.00000000000E+00 0. -1.
          1   -1    0    0  501    0 -0.00000000000E+00 -0.00000000000E+00 -0.67245184896E+02  0.67245184896E+02  0.00000000000E+00 0. -1.
         25    2    1    2    0    0 -0.33028619065E+02  0.61949163783E+02  0.33227676548E+03  0.36188659976E+03  0.12500189454E+03 0.  0.
          2    1    1    2  501    0  0.39396146412E+02 -0.40354802156E+02 -0.37051883681E+02  0.67478948521E+02  0.00000000000E+00 0. -1.
          1    1    1    2  502    0 -0.63675273470E+01 -0.21594361627E+02  0.72452784209E+03  0.72487754540E+03  0.00000000000E+00 0. -1.
         22    1    3    3    0    0  0.17477927045E+02  0.20393418517E+01  0.24077881700E+03  0.24142095097E+03  0.00000000000E+00 0.  1.
         22    1    3    3    0    0 -0.50506546110E+02  0.59909821931E+02  0.91497948478E+02  0.12046564879E+03  0.00000000000E+00 0.  1.
</event>
<event>
 7    1  0.6262315E-006  0.6252565E+02  0.7818608E-02  0.1398865E+00
          2   -1    0    0  502    0  0.00000000000E+00  0.00000000000E+00  0.16973252016E+03  0.16973252016E+03  0.00000000000E+00 0. -1.
          1   -1    0    0  501    0 -0.00000000000E+00 -0.00000000000E+00 -0.11133542876E+04  0.11133542876E+04  0.00000000000E+00 0. -1.
         25    2    1    2    0    0  0.82495148558E+02  0.41503133395E+02 -0.19058626597E+03  0.24591858227E+03  0.12499945885E+03 0.  0.
          2    1    1    2  501    0 -0.55267245800E+02  0.14375550741E+02 -0.88734054509E+03  0.88917622994E+03  0.00000000000E+00 0. -1.
          1    1    1    2  502    0 -0.27227902758E+02 -0.55878684136E+02  0.13430504358E+03  0.14799199559E+03  0.00000000000E+00 0. -1.
         22    1    3    3    0    0  0.11223249906E+03  0.25710395888E+02 -0.11293154459E+03  0.16127830625E+03  0.00000000000E+00 0.  1.
         22    1    3    3    0    0 -0.29737350503E+02  0.15792737507E+02 -0.77654721379E+02  0.84640276024E+02  0.00000000000E+00 0.  1.
</event>
<event>
 7    1  0.6262315E-006  0.3783778E+02  0.7818608E-02  0.1568251E+00
          2   -1    0    0  502    0  0.00000000000E+00  0.00000000000E+00  0.91678592724E+03  0.91678592724E+03  0.00000000000E+00 0. -1.
          1   -1    0    0  501    0 -0.00000000000E+00 -0.00000000000E+00 -0.24535825977E+04  0.24535825977E+04  0.00000000000E+00 0. -1.
         25    2    1    2    0    0 -0.27333930228E+02  0.17754929717E+02 -0.19905864316E+03  0.23729710018E+03  0.12499275606E+03 0.  0.
          2    1    1    2  501    0  0.36838987018E+02  0.91940722562E+01 -0.22350160190E+04  0.22353385084E+04  0.00000000000E+00 0. -1.
          1    1    1    2  502    0 -0.95050567900E+01 -0.26949001973E+02  0.89727799167E+03  0.89773291638E+03  0.00000000000E+00 0. -1.
         22    1    3    3    0    0  0.36555949036E+02 -0.27256677013E+02 -0.10840965192E+03  0.11760916835E+03  0.00000000000E+00 0. -1.
         22    1    3    3    0    0 -0.63889879264E+02  0.45011606730E+02 -0.90648991241E+02  0.11968793183E+03  0.00000000000E+00 0. -1.
</event>
<event>
 7    1  0.6262315E-006  0.1063708E+03  0.7818608E-02  0.1316174E+00
          2   -1    0    0  502    0  0.00000000000E+00  0.00000000000E+00  0.66836448533E+03  0.66836448533E+03  0.00000000000E+00 0. -1.
          1   -1    0    0  501    0 -0.00000000000E+00 -0.00000000000E+00 -0.41499839090E+03  0.41499839090E+03  0.00000000000E+00 0. -1.
         25    2    1    2    0    0  0.31045544782E+02  0.16554135927E+03  0.18711619810E+02  0.21057720495E+03  0.12499946820E+03 0.  0.
          2    1    1    2  501    0 -0.27643216614E+02 -0.98155907349E+02 -0.30877791293E+03  0.32518076371E+03  0.00000000000E+00 0. -1.
          1    1    1    2  502    0 -0.34023281680E+01 -0.67385451919E+02  0.54343238755E+03  0.54760490758E+03  0.00000000000E+00 0. -1.
         22    1    3    3    0    0 -0.21509668391E+02  0.15363193604E+03  0.21522343696E+02  0.15661624719E+03  0.00000000000E+00 0.  1.
         22    1    3    3    0    0  0.52555213174E+02  0.11909423225E+02 -0.28107238852E+01  0.53960957757E+02  0.00000000000E+00 0.  1.
</event>
<event>
 7    1  0.6262315E-006  0.1088633E+03  0.7818608E-02  0.1396985E+00
          2   -1    0    0  502    0  0.00000000000E+00  0.00000000000E+00  0.14112724924E+04  0.14112724924E+04  0.00000000000E+00 0. -1.
          1   -1    0    0  501    0 -0.00000000000E+00 -0.00000000000E+00 -0.85406472268E+03  0.85406472268E+03  0.00000000000E+00 0. -1.
         25    2    1    2    0    0 -0.48093266081E+02  0.85250023565E+02 -0.67290358805E+02  0.17243448563E+03  0.12500052274E+03 0.  0.
          2    1    1    2  501    0  0.23361444450E+02 -0.10753717246E+03 -0.72987306596E+03  0.73812241055E+03  0.00000000000E+00 0. -1.
          1    1    1    2  502    0  0.24731821631E+02  0.22287148894E+02  0.13543711945E+04  0.13547803189E+04  0.00000000000E+00 0. -1.
         22    1    3    3    0    0 -0.27387809803E+02 -0.29114237003E+02 -0.42013500449E+01  0.40191818375E+02  0.00000000000E+00 0.  1.
         22    1    3    3    0    0 -0.20705456278E+02  0.11436426057E+03 -0.63089008760E+02  0.13224266725E+03  0.00000000000E+00 0.  1.
</event>
<event>
 7    1  0.6262315E-006  0.1093222E+03  0.7818608E-02  0.1354238E+00
          2   -1    0    0  502    0  0.00000000000E+00  0.00000000000E+00  0.15649110423E+04  0.15649110423E+04  0.00000000000E+00 0. -1.
          1   -1    0    0  501    0 -0.00000000000E+00 -0.00000000000E+00 -0.76021916069E+03  0.76021916069E+03  0.00000000000E+00 0. -1.
         25    2    1    2    0    0  0.30959347804E+02 -0.67383367553E+02  0.91363999942E+02  0.17166491163E+03  0.12498984743E+03 0.  0.
          2    1    1    2  501    0 -0.76322944461E+02  0.80024712087E+02 -0.71543265624E+03  0.72392888602E+03  0.00000000000E+00 0. -1.
          1    1    1    2  502    0  0.45363596657E+02 -0.12641344533E+02  0.14287605379E+04  0.14295364054E+04  0.00000000000E+00 0. -1.
         22    1    3    3    0    0 -0.40286300065E+02 -0.50687983121E+00  0.53260532040E+02  0.66782686179E+02  0.00000000000E+00 0. -1.
         22    1    3    3    0    0  0.71245647869E+02 -0.66876487722E+02  0.38103467902E+02  0.10488222546E+03  0.00000000000E+00 0. -1.
</event>
<event>
 7    1  0.6262315E-006  0.7016986E+02  0.7818608E-02  0.1377660E+00
          2   -1    0    0  502    0  0.00000000000E+00  0.00000000000E+00  0.54848564644E+03  0.54848564644E+03  0.00000000000E+00 0. -1.
          1   -1    0    0  501    0 -0.00000000000E+00 -0.00000000000E+00 -0.31867838059E+03  0.31867838059E+03  0.00000000000E+00 0. -1.
         25    2    1    2    0    0 -0.11368314312E+03  0.24644432781E+02 -0.16420970197E+03  0.23689652773E+03  0.12499573407E+03 0.  0.
          2    1    1    2  501    0  0.57870925063E+02  0.17171955160E+02 -0.10784136554E+03  0.12358673121E+03  0.00000000000E+00 0. -1.
          1    1    1    2  502    0  0.55812218055E+02 -0.41816387941E+02  0.50185833335E+03  0.50668076808E+03  0.00000000000E+00 0. -1.
         22    1    3    3    0    0 -0.71632095955E+02 -0.30524256821E+02 -0.25715021382E+02  0.82000913105E+02  0.00000000000E+00 0.  1.
         22    1    3    3    0    0 -0.42051047163E+02  0.55168689603E+02 -0.13849468059E+03  0.15489561463E+03  0.00000000000E+00 0.  1.
</event>
<event>
 7    1  0.6262315E-006  0.3447189E+02  0.7818608E-02  0.1632108E+00
          2   -1    0    0  502    0  0.00000000000E+00  0.00000000000E+00  0.20726732324E+03  0.20726732324E+03  0.00000000000E+00 0. -1.
          1   -1    0    0  501    0 -0.00000000000E+00 -0.00000000000E+00 -0.15752181433E+04  0.15752181433E+04  0.00000000000E+00 0. -1.
         25    2    1    2    0    0 -0.13767034754E+02  0.45673047918E+02 -0.11616264700E+03  0.17718564686E+03  0.12500173737E+03 0.  0.
          2    1    1    2  501    0  0.22387290726E+02 -0.26130672216E+02 -0.14276906814E+04  0.14281052778E+04  0.00000000000E+00 0. -1.
          1    1    1    2  502    0 -0.86202559721E+01 -0.19542375702E+02  0.17590250828E+03  0.17719454190E+03  0.00000000000E+00 0. -1.
         22    1    3    3    0    0 -0.90864874650E+01 -0.12741179680E+02 -0.11753094432E+03  0.11856822841E+03  0.00000000000E+00 0.  1.
         22    1    3    3    0    0 -0.46805472888E+01  0.58414227598E+02  0.13682973260E+01  0.58617418455E+02  0.00000000000E+00 0.  1.
</event>
<event>
 7    1  0.6262315E-006  0.2837353E+02  0.7818608E-02  0.1642568E+00
          2   -1    0    0  502    0  0.00000000000E+00  0.00000000000E+00  0.25114582094E+04  0.25114582094E+04  0.00000000000E+00 0. -1.
          1   -1    0    0  501    0 -0.00000000000E+00 -0.00000000000E+00 -0.16734457567E+02  0.16734457567E+02  0.00000000000E+00 0. -1.
         25    2    1    2    0    0 -0.46772372187E+01 -0.63696181746E+00  0.94283149254E+03  0.95109325098E+03  0.12499946583E+03 0.  0.
          2    1    1    2  501    0 -0.24120609244E+02 -0.39282001302E+01 -0.49006186781E+00  0.24443295752E+02  0.00000000000E+00 0. -1.
          1    1    1    2  502    0  0.28797846463E+02  0.45651619476E+01  0.15523823211E+04  0.15526561202E+04  0.00000000000E+00 0. -1.
         22    1    3    3    0    0  0.26887358320E+02  0.39751107460E+02  0.17229667192E+03  0.17885531509E+03  0.00000000000E+00 0.  1.
         22    1    3    3    0    0 -0.31564595539E+02 -0.40388069278E+02  0.77053482062E+03  0.77223793589E+03  0.00000000000E+00 0.  1.
</event>
<event>
 7    1  0.6262315E-006  0.1203179E+03  0.7818608E-02  0.1329900E+00
          2   -1    0    0  502    0  0.00000000000E+00  0.00000000000E+00  0.16302193682E+04  0.16302193682E+04  0.00000000000E+00 0. -1.
          1   -1    0    0  501    0 -0.00000000000E+00 -0.00000000000E+00 -0.11324773860E+04  0.11324773860E+04  0.00000000000E+00 0. -1.
         25    2    1    2    0    0 -0.61547018921E+02  0.34943397713E+02  0.51155419277E+03  0.53133972402E+03  0.12500053437E+03 0.  0.
          2    1    1    2  501    0  0.11419662357E+03 -0.38879765011E+02 -0.11187116030E+04  0.11251969408E+04  0.00000000000E+00 0. -1.
          1    1    1    2  502    0 -0.52649604645E+02  0.39363672975E+01  0.11048993924E+04  0.11061600893E+04  0.00000000000E+00 0. -1.
         22    1    3    3    0    0 -0.51777238015E+02 -0.82836243216E+01  0.69460131589E+02  0.87029941334E+02  0.00000000000E+00 0. -1.
         22    1    3    3    0    0 -0.97697809068E+01  0.43227022035E+02  0.44209406118E+03  0.44430978268E+03  0.00000000000E+00 0. -1.
</event>
<event>
 7    1  0.6262315E-006  0.1926033E+03  0.7818608E-02  0.1254270E+00
          2   -1    0    0  502    0  0.00000000000E+00  0.00000000000E+00  0.16215171344E+04  0.16215171344E+04  0.00000000000E+00 0. -1.
          1   -1    0    0  501    0 -0.00000000000E+00 -0.00000000000E+00 -0.32165781722E+03  0.32165781722E+03  0.00000000000E+00 0. -1.
         25    2    1    2    0    0  0.87939521664E+02 -0.12177187578E+03  0.41955110683E+03  0.46282222882E+03  0.12497813827E+03 0.  0.
          2    1    1    2  501    0 -0.65641706443E+02  0.18479703231E+03 -0.26689822851E+03  0.33120000175E+03  0.00000000000E+00 0. -1.
          1    1    1    2  502    0 -0.22297815221E+02 -0.63025156523E+02  0.11472064389E+04  0.11491527210E+04  0.00000000000E+00 0. -1.
         22    1    3    3    0    0  0.11595142797E+03 -0.96400647001E+02  0.37628286499E+03  0.40537219056E+03  0.00000000000E+00 0. -1.
         22    1    3    3    0    0 -0.28011906305E+02 -0.25371228782E+02  0.43268241840E+02  0.57450038265E+02  0.00000000000E+00 0. -1.
</event>
<event>
 7    1  0.6262315E-006  0.1345320E+03  0.7818608E-02  0.1293475E+00
          2   -1    0    0  502    0  0.00000000000E+00  0.00000000000E+00  0.34350373150E+03  0.34350373150E+03  0.00000000000E+00 0. -1.
          1   -1    0    0  501    0 -0.00000000000E+00 -0.00000000000E+00 -0.48416532721E+03  0.48416532721E+03  0.00000000000E+00 0. -1.
         25    2    1    2    0    0  0.11861148675E+03 -0.11970516735E+03 -0.12946554563E+03  0.24654347671E+03  0.12499738607E+03 0.  0.
          2    1    1    2  501    0 -0.65635964180E+02 -0.18152830656E+01 -0.27669060617E+03  0.28437486982E+03  0.00000000000E+00 0. -1.
          1    1    1    2  502    0 -0.52975522571E+02  0.12152045042E+03  0.26549455608E+03  0.29675071217E+03  0.00000000000E+00 0. -1.
         22    1    3    3    0    0 -0.20684681362E+02 -0.97139118142E+01 -0.43936139287E+02  0.49523736342E+02  0.00000000000E+00 0. -1.
         22    1    3    3    0    0  0.13929616811E+03 -0.10999125554E+03 -0.85529406339E+02  0.19701974037E+03  0.00000000000E+00 0. -1.
</event>
<event>
 7    1  0.6262315E-006  0.9090768E+02  0.7818608E-02  0.1391934E+00
          2   -1    0    0  502    0  0.00000000000E+00  0.00000000000E+00  0.25611437059E+03  0.25611437059E+03  0.00000000000E+00 0. -1.
          1   -1    0    0  501    0 -0.00000000000E+00 -0.00000000000E+00 -0.10155224577E+04  0.10155224577E+04  0.00000000000E+00 0. -1.
         25    2    1    2    0    0 -0.74595875870E+02 -0.33861306267E+02  0.47371067824E+02  0.15678166499E+03  0.12500135860E+03 0.  0.
          2    1    1    2  501    0  0.91190553074E+02 -0.41853615742E+01 -0.95580615136E+03  0.96015552553E+03  0.00000000000E+00 0. -1.
          1    1    1    2  502    0 -0.16594677204E+02  0.38046667841E+02  0.14902699646E+03  0.15469963774E+03  0.00000000000E+00 0. -1.
         22    1    3    3    0    0 -0.11083063737E+02 -0.36111973199E+02  0.77675497608E+02  0.86373559836E+02  0.00000000000E+00 0. -1.
         22    1    3    3    0    0 -0.63512812134E+02  0.22506669323E+01 -0.30304429784E+02  0.70408105153E+02  0.00000000000E+00 0. -1.
</event>
<event>
 7    1  0.6262315E-006  0.1007706E+03  0.7818608E-02  0.1319100E+00
          2   -1    0    0  502    0  0.00000000000E+00  0.00000000000E+00  0.10174205367E+04  0.10174205367E+04  0.00000000000E+00 0. -1.
          1   -1    0    0  501    0 -0.00000000000E+00 -0.00000000000E+00 -0.10257139144E+04  0.10257139144E+04  0.00000000000E+00 0. -1.
         25    2    1    2    0    0 -0.92156867407E+02 -0.55578700276E+02  0.63675008890E+03  0.65776924639E+03  0.12501130211E+03 0.  0.
          2    1    1    2  501    0  0.34817393991E+02  0.94633625621E+02 -0.10094194703E+04  0.10144434144E+04  0.00000000000E+00 0. -1.
          1    1    1    2  502    0  0.57339473416E+02 -0.39054925345E+02  0.36437600370E+03  0.37092179024E+03  0.00000000000E+00 0. -1.
         22    1    3    3    0    0 -0.95955416714E+02  0.16353878061E-01  0.26442191380E+03  0.28129413567E+03  0.00000000000E+00 0.  1.
         22    1    3    3    0    0  0.37985493064E+01 -0.55595054154E+02  0.37232817509E+03  0.37647511072E+03  0.00000000000E+00 0.  1.
</event>
<event>
 7    1  0.6262315E-006  0.1141833E+03  0.7818608E-02  0.1313904E+00
          2   -1    0    0  502    0  0.00000000000E+00  0.00000000000E+00  0.21013684500E+04  0.21013684500E+04  0.00000000000E+00 0. -1.
          1   -1    0    0  501    0 -0.00000000000E+00 -0.00000000000E+00 -0.10354081841E+03  0.10354081841E+03  0.00000000000E+00 0. -1.
         25    2    1    2    0    0 -0.14063772454E+02 -0.59054727603E+02  0.12167687351E+04  0.12246776624E+04  0.12499588593E+03 0.  0.
          2    1    1    2  501    0 -0.18526088742E+02  0.11431327949E+03 -0.64288905780E+02  0.13245303031E+03  0.00000000000E+00 0. -1.
          1    1    1    2  502    0  0.32589861197E+02 -0.55258551891E+02  0.84534780222E+03  0.84777857565E+03  0.00000000000E+00 0. -1.
         22    1    3    3    0    0  0.35097667611E+00 -0.28550273645E+02  0.11451910613E+04  0.11455469472E+04  0.00000000000E+00 0.  1.
         22    1    3    3    0    0 -0.14414749130E+02 -0.30504453958E+02  0.71577673808E+02  0.79130715222E+02  0.00000000000E+00 0.  1.
</event>
<event>
 7    1  0.6262315E-006  0.9615963E+02  0.7818608E-02  0.1381407E+00
          2   -1    0    0  502    0  0.00000000000E+00  0.00000000000E+00  0.12355586716E+04  0.12355586716E+04  0.00000000000E+00 0. -1.
          1   -1    0    0  501    0 -0.00000000000E+00 -0.00000000000E+00 -0.18986152636E+04  0.18986152636E+04  0.00000000000E+00 0. -1.
         25    2    1    2    0    0 -0.37833925633E+02  0.65868530645E+02  0.48827984128E+03  0.50971916125E+03  0.12500540263E+03 0.  0.
          2    1    1    2  501    0  0.74828435870E+01 -0.95935933904E+02 -0.18860484595E+04  0.18885016515E+04  0.00000000000E+00 0. -1.
          1    1    1    2  502    0  0.30351082046E+02  0.30067403258E+02  0.73471202622E+03  0.73595312242E+03  0.00000000000E+00 0. -1.
         22    1    3    3    0    0  0.32000797804E+02 -0.30708983332E+01  0.24948477854E+03  0.25154748299E+03  0.00000000000E+00 0. -1.
         22    1    3    3    0    0 -0.69834723436E+02  0.68939428978E+02  0.23879506274E+03  0.25817167826E+03  0.00000000000E+00 0. -1.
</event>
<event>
 7    1  0.6262315E-006  0.1127400E+03  0.7818608E-02  0.1433450E+00
          2   -1    0    0  502    0  0.00000000000E+00  0.00000000000E+00  0.16266168223E+03  0.16266168223E+03  0.00000000000E+00 0. -1.
          1   -1    0    0  501    0 -0.00000000000E+00 -0.00000000000E+00 -0.18853422091E+04  0.18853422091E+04  0.00000000000E+00 0. -1.
         25    2    1    2    0    0  0.94496444579E+02 -0.10310754064E+02 -0.12411407095E+04  0.12510359393E+04  0.12499908308E+03 0.  0.
          2    1    1    2  501    0  0.18419060605E+02  0.15754133608E+02 -0.61872863620E+03  0.61920318133E+03  0.00000000000E+00 0. -1.
          1    1    1    2  502    0 -0.11291550518E+03 -0.54433795436E+01  0.13718881887E+03  0.17776477073E+03  0.00000000000E+00 0. -1.
         22    1    3    3    0    0 -0.34418052086E+01  0.31901284052E+02 -0.10233312670E+03  0.10724554427E+03  0.00000000000E+00 0. -1.
         22    1    3    3    0    0  0.97938249787E+02 -0.42212038116E+02 -0.11388075828E+04  0.11437903950E+04  0.00000000000E+00 0. -1.
</event>
<event>
 7    1  0.6262315E-006  0.1391931E+03  0.7818608E-02  0.1268897E+00
          2   -1    0    0  502    0  0.00000000000E+00  0.00000000000E+00  0.29508571935E+03  0.29508571935E+03  0.00000000000E+00 0. -1.
          1   -1    0    0  501    0 -0.00000000000E+00 -0.00000000000E+00 -0.14033554859E+04  0.14033554859E+04  0.00000000000E+00 0. -1.
         25    2    1    2    0    0 -0.17302990184E+02  0.75444138557E+02 -0.42144098541E+02  0.15294603806E+03  0.12500061602E+03 0.  0.
          2    1    1    2  501    0  0.78658644523E+01  0.79762551644E+02 -0.12792048074E+04  0.12817132580E+04  0.00000000000E+00 0. -1.
          1    1    1    2  502    0  0.94371257321E+01 -0.15520669020E+03  0.21307913933E+03  0.26378190924E+03  0.00000000000E+00 0. -1.
         22    1    3    3    0    0 -0.51741627278E+02  0.89952119082E+02 -0.49316314706E+02  0.11489420619E+03  0.00000000000E+00 0.  1.
         22    1    3    3    0    0  0.34438637094E+02 -0.14507980525E+02  0.71722161652E+01  0.38051831868E+02  0.00000000000E+00 0.  1.
</event>
<event>
 7    1  0.6262315E-006  0.8763143E+02  0.7818608E-02  0.1463658E+00
          2   -1    0    0  502    0  0.00000000000E+00  0.00000000000E+00  0.17080233892E+04  0.17080233892E+04  0.00000000000E+00 0. -1.
          1   -1    0    0  501    0 -0.00000000000E+00 -0.00000000000E+00 -0.32710039328E+02  0.32710039328E+02  0.00000000000E+00 0. -1.
         25    2    1    2    0    0 -0.45076175626E+02 -0.83516819069E+02  0.33759266784E+03  0.37229125975E+03  0.12500020813E+03 0.  0.
          2    1    1    2  501    0  0.20127558890E+02  0.83542192281E+02  0.10594532192E+03  0.13641417725E+03  0.00000000000E+00 0. -1.
          1    1    1    2  502    0  0.24948616736E+02 -0.25373211802E-01  0.12317753601E+04  0.12320279915E+04  0.00000000000E+00 0. -1.
         22    1    3    3    0    0 -0.38260909599E+02  0.95190977988E+01  0.21315081428E+03  0.21676664886E+03  0.00000000000E+00 0. -1.
         22    1    3    3    0    0 -0.68152660275E+01 -0.93035916868E+02  0.12444185355E+03  0.15552461090E+03  0.00000000000E+00 0. -1.
</event>
<event>
 7    1  0.6262315E-006  0.2918509E+03  0.7818608E-02  0.1232750E+00
          2   -1    0    0  502    0  0.00000000000E+00  0.00000000000E+00  0.11801150991E+04  0.11801150991E+04  0.00000000000E+00 0. -1.
          1   -1    0    0  501    0 -0.00000000000E+00 -0.00000000000E+00 -0.11268011761E+04  0.11268011761E+04  0.00000000000E+00 0. -1.
         25    2    1    2    0    0  0.30139021237E+03  0.15399793322E+03 -0.87528672731E+02  0.37126423297E+03  0.12499775433E+03 0.  0.
          2    1    1    2  501    0 -0.25716139537E+03 -0.12159806470E+03 -0.87410399762E+03  0.91922569114E+03  0.00000000000E+00 0. -1.
          1    1    1    2  502    0 -0.44228816999E+02 -0.32399868512E+02  0.10149465934E+04  0.10164263510E+04  0.00000000000E+00 0. -1.
         22    1    3    3    0    0  0.31133699693E+03  0.14906717357E+03 -0.72727201876E+02  0.35276195059E+03  0.00000000000E+00 0. -1.
         22    1    3    3    0    0 -0.99467845611E+01  0.49307596503E+01 -0.14801470855E+02  0.18502282381E+02  0.00000000000E+00 0. -1.
</event>
<event>
 7    1  0.6262315E-006  0.5092791E+02  0.7818608E-02  0.1450102E+00
          2   -1    0    0  502    0  0.00000000000E+00  0.00000000000E+00  0.66317125530E+03  0.66317125530E+03  0.00000000000E+00 0. -1.
          1   -1    0    0  501    0 -0.00000000000E+00 -0.00000000000E+00 -0.60506150163E+02  0.60506150163E+02  0.00000000000E+00 0. -1.
         25    2    1    2    0    0  0.33731304116E+02 -0.45834482946E+02  0.16117791476E+03  0.21176451429E+03  0.12500915407E+03 0.  0.
          2    1    1    2  501    0  0.17987199586E+02  0.43845757926E+02 -0.17123807850E+02  0.50390620479E+02  0.00000000000E+00 0. -1.
          1    1    1    2  502    0 -0.51718503701E+02  0.19887250197E+01  0.45861099823E+03  0.46152227070E+03  0.00000000000E+00 0. -1.
         22    1    3    3    0    0 -0.69241226111E+01 -0.73279085900E+02  0.46569778147E+02  0.87100586341E+02  0.00000000000E+00 0.  1.
         22    1    3    3    0    0  0.40655426727E+02  0.27444602954E+02  0.11460813661E+03  0.12466392795E+03  0.00000000000E+00 0.  1.
</event>
<event>
 7    1  0.6262315E-006  0.1469017E+03  0.7818608E-02  0.1339296E+00
          2   -1    0    0  502    0  0.00000000000E+00  0.00000000000E+00  0.19449816352E+03  0.19449816352E+03  0.00000000000E+00 0. -1.
          1   -1    0    0  501    0 -0.00000000000E+00 -0.00000000000E+00 -0.25795052831E+03  0.25795052831E+03  0.00000000000E+00 0. -1.
         25    2    1    2    0    0  0.40218133233E+02 -0.13324813291E+03 -0.63980352040E+02  0.19771454201E+03  0.12499996604E+03 0.  0.
          2    1    1    2  501    0 -0.80037321055E+02  0.13212783281E+03 -0.73191280455E+02  0.17094063443E+03  0.00000000000E+00 0. -1.
          1    1    1    2  502    0  0.39819187823E+02  0.11203001054E+01  0.73719267702E+02  0.83793515392E+02  0.00000000000E+00 0. -1.
         22    1    3    3    0    0  0.65126197032E+02 -0.12742619910E+03 -0.16853698962E+02  0.14409338960E+03  0.00000000000E+00 0.  1.
         22    1    3    3    0    0 -0.24908063800E+02 -0.58219338112E+01 -0.47126653079E+02  0.53621152411E+02  0.00000000000E+00 0.  1.
</event>
<event>
 7    1  0.6262315E-006  0.9570201E+02  0.7818608E-02  0.1433241E+00
          2   -1    0    0  502    0  0.00000000000E+00  0.00000000000E+00  0.24927968971E+04  0.24927968971E+04  0.00000000000E+00 0. -1.
          1   -1    0    0  501    0 -0.00000000000E+00 -0.00000000000E+00 -0.91560015472E+03  0.91560015472E+03  0.00000000000E+00 0. -1.
         25    2    1    2    0    0 -0.78037935722E+02  0.15253016864E+02 -0.68151918237E+01  0.14830512299E+03  0.12500155491E+03 0.  0.
          2    1    1    2  501    0 -0.17621094981E+02 -0.22523788790E+02 -0.83684568455E+03  0.83733417690E+03  0.00000000000E+00 0. -1.
          1    1    1    2  502    0  0.95659030703E+02  0.72707719260E+01  0.24208576187E+04  0.24227577519E+04  0.00000000000E+00 0. -1.
         22    1    3    3    0    0 -0.87059321155E+02 -0.19414616560E+02  0.32669321181E+02  0.94992301175E+02  0.00000000000E+00 0. -1.
         22    1    3    3    0    0  0.90213854326E+01  0.34667633423E+02 -0.39484513004E+02  0.53312821811E+02  0.00000000000E+00 0. -1.
</event>
<event>
 7    1  0.6262315E-006  0.6124156E+02  0.7818608E-02  0.1477463E+00
          2   -1    0    0  502    0  0.00000000000E+00  0.00000000000E+00  0.63579672976E+03  0.63579672976E+03  0.00000000000E+00 0. -1.
          1   -1    0    0  501    0 -0.00000000000E+00 -0.00000000000E+00 -0.18073153022E+03  0.18073153022E+03  0.00000000000E+00 0. -1.
         25    2    1    2    0    0 -0.62790113017E+02  0.32156314822E+02 -0.69108977178E+02  0.15930533517E+03  0.12500204883E+03 0.  0.
          2    1    1    2  501    0  0.60180588778E+02  0.78888565727E-01 -0.52367386015E+02  0.79775012424E+02  0.00000000000E+00 0. -1.
          1    1    1    2  502    0  0.26095242387E+01 -0.32235203387E+02  0.57654156274E+03  0.57744791239E+03  0.00000000000E+00 0. -1.
         22    1    3    3    0    0 -0.15032256838E+02  0.72812300927E+02 -0.13665438355E+02  0.75593280901E+02  0.00000000000E+00 0. -1.
         22    1    3    3    0    0 -0.47757856179E+02 -0.40655986105E+02 -0.55443538823E+02  0.83712054270E+02  0.00000000000E+00 0. -1.
</event>
<event>
 7    1  0.6262315E-006  0.8405740E+02  0.7818608E-02  0.1460165E+00
          2   -1    0    0  502    0  0.00000000000E+00  0.00000000000E+00  0.16511101152E+04  0.16511101152E+04  0.00000000000E+00 0. -1.
          1   -1    0    0  501    0 -0.00000000000E+00 -0.00000000000E+00 -0.57749140162E+03  0.57749140162E+03  0.00000000000E+00 0. -1.
         25    2    1    2    0    0 -0.69043772757E+02  0.86159287358E+02  0.53969057825E+03  0.56487341744E+03  0.12500236845E+03 0.  0.
          2    1    1    2  501    0  0.50373447855E+02 -0.67106131365E+02 -0.56162081192E+03  0.56785442985E+03  0.00000000000E+00 0. -1.
          1    1    1    2  502    0  0.18670324902E+02 -0.19053155993E+02  0.10955489472E+04  0.10958736695E+04  0.00000000000E+00 0. -1.
         22    1    3    3    0    0 -0.29508702106E+02 -0.18696948994E+02  0.41551087665E+02  0.54284733469E+02  0.00000000000E+00 0.  1.
         22    1    3    3    0    0 -0.39535070651E+02  0.10485623635E+03  0.49813949059E+03  0.51058868397E+03  0.00000000000E+00 0.  1.
</event>
<event>
 7    1  0.6262315E-006  0.4167315E+02  0.7818608E-02  0.1580289E+00
          2   -1    0    0  502    0  0.00000000000E+00  0.00000000000E+00  0.69920222728E+03  0.69920222728E+03  0.00000000000E+00 0. -1.
          1   -1    0    0  501    0 -0.00000000000E+00 -0.00000000000E+00 -0.14974148999E+04  0.14974148999E+04  0.00000000000E+00 0. -1.
         25    2    1    2    0    0  0.40618154818E+02  0.36377825663E+02  0.18147128021E+03  0.22699660332E+03  0.12498980630E+03 0.  0.
          2    1    1    2  501    0 -0.39799238080E+02 -0.12317647863E+02 -0.14740650220E+04  0.14746536519E+04  0.00000000000E+00 0. -1.
          1    1    1    2  502    0 -0.81891673815E+00 -0.24060177800E+02  0.49438106921E+03  0.49496687199E+03  0.00000000000E+00 0. -1.
         22    1    3    3    0    0  0.22555801033E+02 -0.44619302004E+02  0.44952210130E+02  0.67233529337E+02  0.00000000000E+00 0.  1.
         22    1    3    3    0    0  0.18062353785E+02  0.80997127666E+02  0.13651907008E+03  0.15976307399E+03  0.00000000000E+00 0.  1.
</event>
<event>
 7    1  0.6262315E-006  0.4237912E+02  0.7818608E-02  0.1564942E+00
          2   -1    0    0  502    0  0.00000000000E+00  0.00000000000E+00  0.11188107376E+04  0.11188107376E+04  0.00000000000E+00 0. -1.
          1   -1    0    0  501    0 -0.00000000000E+00 -0.00000000000E+00 -0.83478190006E+03  0.83478190006E+03  0.00000000000E+00 0. -1.
         25    2    1    2    0    0 -0.54187968690E+02 -0.23042123636E+02  0.58559095481E+03  0.60167279689E+03  0.12500445093E+03 0.  0.
          2    1    1    2  501    0  0.29268802799E+02  0.30633620291E+02 -0.82587458293E+03  0.82696064492E+03  0.00000000000E+00 0. -1.
          1    1    1    2  502    0  0.24919165890E+02 -0.75914966549E+01  0.52431246571E+03  0.52495919589E+03  0.00000000000E+00 0. -1.
         22    1    3    3    0    0 -0.46050002948E+02 -0.52042544355E+02  0.15308342919E+03  0.16811771318E+03  0.00000000000E+00 0. -1.
         22    1    3    3    0    0 -0.81379657421E+01  0.29000420719E+02  0.43250752562E+03  0.43355508370E+03  0.00000000000E+00 0. -1.
</event>
<event>
 7    1  0.6262315E-006  0.8911077E+02  0.7818608E-02  0.1343164E+00
          2   -1    0    0  502    0  0.00000000000E+00  0.00000000000E+00  0.65098770685E+03  0.65098770685E+03  0.00000000000E+00 0. -1.
          1   -1    0    0  501    0 -0.00000000000E+00 -0.00000000000E+00 -0.67441921200E+02  0.67441921200E+02  0.00000000000E+00 0. -1.
         25    2    1    2    0    0  0.11499858453E+02 -0.25548992320E+02  0.37722417621E+03  0.39837984192E+03  0.12499368613E+03 0.  0.
          2    1    1    2  501    0  0.35432820486E+02 -0.81763346918E+02  0.76708914592E+01  0.89440327832E+02  0.00000000000E+00 0. -1.
          1    1    1    2  502    0 -0.46932678939E+02  0.10731233924E+03  0.19865071798E+03  0.23060945830E+03  0.00000000000E+00 0. -1.
         22    1    3    3    0    0 -0.47537557576E+01 -0.74482465485E+02  0.25569351690E+03  0.26636330536E+03  0.00000000000E+00 0. -1.
         22    1    3    3    0    0  0.16253614210E+02  0.48933473165E+02  0.12153065931E+03  0.13201653655E+03  0.00000000000E+00 0. -1.
</event>
<event>
 7    1  0.6262315E-006  0.1090888E+03  0.7818608E-02  0.1427251E+00
          2   -1    0    0  502    0  0.00000000000E+00  0.00000000000E+00  0.11535161093E+04  0.11535161093E+04  0.00000000000E+00 0. -1.
          1   -1    0    0  501    0 -0.00000000000E+00 -0.00000000000E+00 -0.22203190902E+03  0.22203190902E+03  0.00000000000E+00 0. -1.
         25    2    1    2    0    0  0.40470161216E+02 -0.77504482175E+02  0.39137547234E+03  0.42005260954E+03  0.12499862291E+03 0.  0.
          2    1    1    2  501    0 -0.63853182038E+02  0.89440741149E+02 -0.19290497175E+03  0.22201171852E+03  0.00000000000E+00 0. -1.
          1    1    1    2  502    0  0.23383020822E+02 -0.11936258974E+02  0.73301369969E+03  0.73348369026E+03  0.00000000000E+00 0. -1.
         22    1    3    3    0    0 -0.26322402224E+02 -0.35244808210E+02  0.28027360220E+03  0.28370470115E+03  0.00000000000E+00 0. -1.
         22    1    3    3    0    0  0.66792563440E+02 -0.42259673965E+02  0.11110187014E+03  0.13634790839E+03  0.00000000000E+00 0. -1.
</event>
<event>
 7    1  0.6262315E-006  0.1742150E+03  0.7818608E-02  0.1356854E+00
          2   -1    0    0  502    0  0.00000000000E+00  0.00000000000E+00  0.33186196834E+03  0.33186196834E+03  0.00000000000E+00 0. -1.
          1   -1    0    0  501    0 -0.00000000000E+00 -0.00000000000E+00 -0.60910197591E+03  0.60910197591E+03  0.00000000000E+00 0. -1.
         25    2    1    2    0    0  0.14333188744E+03 -0.66094623267E+02 -0.18564128254E+03  0.27386111630E+03  0.12499878423E+03 0.  0.
          2    1    1    2  501    0  0.55144513999E+01 -0.28373062846E+02 -0.35170029893E+03  0.35288601578E+03  0.00000000000E+00 0. -1.
          1    1    1    2  502    0 -0.14884633884E+03  0.94467686112E+02  0.26010157390E+03  0.31421681217E+03  0.00000000000E+00 0. -1.
         22    1    3    3    0    0  0.86318141228E+02  0.23369675954E+02 -0.11795138553E+03  0.14801855495E+03  0.00000000000E+00 0. -1.
         22    1    3    3    0    0  0.57013746208E+02 -0.89464299221E+02 -0.67689897006E+02  0.12584256136E+03  0.00000000000E+00 0. -1.
</event>
<event>
 7    1  0.6262315E-006  0.9154754E+02  0.7818608E-02  0.1314152E+00
          2   -1    0    0  502    0  0.00000000000E+00  0.00000000000E+00  0.32168664280E+03  0.32168664280E+03  0.00000000000E+00 0. -1.
          1   -1    0    0  501    0 -0.00000000000E+00 -0.00000000000E+00 -0.18158443054E+03  0.18158443054E+03  0.00000000000E+00 0. -1.
         25    2    1    2    0    0 -0.88130386087E+02  0.13481930815E+03  0.42656301487E+02  0.20829873739E+03  0.12500237254E+03 0.  0.
          2    1    1    2  501    0  0.47084358369E+02 -0.66342301922E+02 -0.71375392239E+02  0.10822515625E+03  0.00000000000E+00 0. -1.
          1    1    1    2  502    0  0.41046027718E+02 -0.68477006226E+02  0.16882130301E+03  0.18674717970E+03  0.00000000000E+00 0. -1.
         22    1    3    3    0    0 -0.47279440953E+02  0.98697434912E+02  0.85559727132E+02  0.13891362821E+03  0.00000000000E+00 0.  1.
         22    1    3    3    0    0 -0.40850945134E+02  0.36121873236E+02 -0.42903425645E+02  0.69385109185E+02  0.00000000000E+00 0.  1.
</event>
<event>
 7    1  0.6262315E-006  0.1461600E+03  0.7818608E-02  0.1404310E+00
          2   -1    0    0  502    0  0.00000000000E+00  0.00000000000E+00  0.18902964112E+04  0.18902964112E+04  0.00000000000E+00 0. -1.
          1   -1    0    0  501    0 -0.00000000000E+00 -0.00000000000E+00 -0.33420540257E+03  0.33420540257E+03  0.00000000000E+00 0. -1.
         25    2    1    2    0    0  0.75167390849E+01  0.13904153450E+03  0.40663779246E+03  0.44760984851E+03  0.12494491805E+03 0.  0.
          2    1    1    2  501    0  0.22747100585E+02  0.54929269983E+01 -0.30955079687E+03  0.31043404883E+03  0.00000000000E+00 0. -1.
          1    1    1    2  502    0 -0.30263839669E+02 -0.14453446149E+03  0.14590040131E+04  0.14664579165E+04  0.00000000000E+00 0. -1.
         22    1    3    3    0    0  0.54904971370E+02  0.12439449843E+03  0.32160790884E+03  0.34917072349E+03  0.00000000000E+00 0.  1.
         22    1    3    3    0    0 -0.47388232285E+02  0.14647036067E+02  0.85029883621E+02  0.98439125013E+02  0.00000000000E+00 0.  1.
</event>
<event>
 7    1  0.6262315E-006  0.1076588E+03  0.7818608E-02  0.1311253E+00
          2   -1    0    0  502    0  0.00000000000E+00  0.00000000000E+00  0.93427665666E+03  0.93427665666E+03  0.00000000000E+00 0. -1.
          1   -1    0    0  501    0 -0.00000000000E+00 -0.00000000000E+00 -0.82270513950E+03  0.82270513950E+03  0.00000000000E+00 0. -1.
         25    2    1    2    0    0  0.10950616113E+03 -0.11839409857E+03  0.27280645452E+03  0.34067267313E+03  0.12500298672E+03 0.  0.
          2    1    1    2  501    0 -0.22207154897E+02  0.66057775073E+02 -0.78308703058E+03  0.78618196675E+03  0.00000000000E+00 0. -1.
          1    1    1    2  502    0 -0.87299006236E+02  0.52336323494E+02  0.62185209322E+03  0.63012715629E+03  0.00000000000E+00 0. -1.
         22    1    3    3    0    0  0.13170407904E+03 -0.67223444483E+02  0.18833930255E+03  0.23945072313E+03  0.00000000000E+00 0.  1.
         22    1    3    3    0    0 -0.22197917909E+02 -0.51170654085E+02  0.84467151970E+02  0.10122194999E+03  0.00000000000E+00 0.  1.
</event>
<event>
 7    1  0.6262315E-006  0.1599417E+03  0.7818608E-02  0.1296268E+00
          2   -1    0    0  502    0  0.00000000000E+00  0.00000000000E+00  0.21210531229E+03  0.21210531229E+03  0.00000000000E+00 0. -1.
          1   -1    0    0  501    0 -0.00000000000E+00 -0.00000000000E+00 -0.21943209606E+04  0.21943209606E+04  0.00000000000E+00 0. -1.
         25    2    1    2    0    0  0.19065174096E+03  0.58538388521E+02 -0.65153398242E+02  0.24422329314E+03  0.12500088939E+03 0.  0.
          2    1    1    2  501    0 -0.44838964876E+02 -0.29756824490E+02 -0.19940805423E+04  0.19948065597E+04  0.00000000000E+00 0. -1.
          1    1    1    2  502    0 -0.14581277608E+03 -0.28781564031E+02  0.77018292259E+02  0.16739642003E+03  0.00000000000E+00 0. -1.
         22    1    3    3    0    0  0.79991863699E+02  0.16800184739E+02  0.35315981299E+02  0.89040232482E+02  0.00000000000E+00 0.  1.
         22    1    3    3    0    0  0.11065987726E+03  0.41738203783E+02 -0.10046937954E+03  0.15518306066E+03  0.00000000000E+00 0.  1.
</event>
<event>
 7    1  0.6262315E-006  0.8128100E+02  0.7818608E-02  0.1484000E+00
          2   -1    0    0  502    0  0.00000000000E+00  0.00000000000E+00  0.76580541946E+02  0.76580541946E+02  0.00000000000E+00 0. -1.
          1   -1    0    0  501    0 -0.00000000000E+00 -0.00000000000E+00 -0.11932471995E+04  0.11932471995E+04  0.00000000000E+00 0. -1.
         25    2    1    2    0    0  0.92579436414E+02  0.45841400848E+02 -0.16393391312E+03  0.23058935885E+03  0.12499895387E+03 0.  0.
          2    1    1    2  501    0 -0.70737602612E+02 -0.37818391109E+02 -0.99111401172E+03  0.99435457627E+03  0.00000000000E+00 0. -1.
          1    1    1    2  502    0 -0.21841833802E+02 -0.80230097387E+01  0.38381267296E+02  0.44883806304E+02  0.00000000000E+00 0. -1.
         22    1    3    3    0    0 -0.25042088999E+02 -0.13384667235E+02 -0.16240994403E+02  0.32711243291E+02  0.00000000000E+00 0. -1.
         22    1    3    3    0    0  0.11762152541E+03  0.59226068083E+02 -0.14769291871E+03  0.19787811556E+03  0.00000000000E+00 0. -1.
</event>
<event>
 7    1  0.6262315E-006  0.8859906E+02  0.7818608E-02  0.1415205E+00
          2   -1    0    0  502    0  0.00000000000E+00  0.00000000000E+00  0.82545074302E+03  0.82545074302E+03  0.00000000000E+00 0. -1.
          1   -1    0    0  501    0 -0.00000000000E+00 -0.00000000000E+00 -0.78650939264E+03  0.78650939264E+03  0.00000000000E+00 0. -1.
         25    2    1    2    0    0  0.63428770365E+02 -0.75368392144E+02 -0.12209697615E+03  0.20058872106E+03  0.12499823994E+03 0.  0.
          2    1    1    2  501    0 -0.34469779297E+02 -0.83074616012E+01 -0.62216711511E+03  0.62317661921E+03  0.00000000000E+00 0. -1.
          1    1    1    2  502    0 -0.28958991069E+02  0.83675853745E+02  0.78320544164E+03  0.78819479539E+03  0.00000000000E+00 0. -1.
         22    1    3    3    0    0  0.48126761140E+02 -0.69673968875E+00 -0.11423503551E+03  0.12396093708E+03  0.00000000000E+00 0.  1.
         22    1    3    3    0    0  0.15302009226E+02 -0.74671652455E+02 -0.78619406376E+01  0.76627783978E+02  0.00000000000E+00 0.  1.
</event>
<event>
 7    1  0.6262315E-006  0.6656360E+02  0.7818608E-02  0.1387723E+00
          2   -1    0    0  502    0  0.00000000000E+00  0.00000000000E+00  0.33443655751E+04  0.33443655751E+04  0.00000000000E+00 0. -1.
          1   -1    0    0  501    0 -0.00000000000E+00 -0.00000000000E+00 -0.47874318959E+02  0.47874318959E+02  0.00000000000E+00 0. -1.
         25    2    1    2    0    0 -0.53287227390E+02  0.54931894749E+01  0.50006827263E+03  0.51823209779E+03  0.12500610450E+03 0.  0.
          2    1    1    2  501    0  0.32722288766E+02 -0.60409299114E+02 -0.78250766383E+01  0.69146680513E+02  0.00000000000E+00 0. -1.
          1    1    1    2  502    0  0.20564938624E+02  0.54916109639E+02  0.28042480601E+04  0.28048611157E+04  0.00000000000E+00 0. -1.
         22    1    3    3    0    0 -0.79702462024E+02  0.40770913904E+02  0.28640401609E+03  0.30007000901E+03  0.00000000000E+00 0. -1.
         22    1    3    3    0    0  0.26415234634E+02 -0.35277724429E+02  0.21366425653E+03  0.21816208878E+03  0.00000000000E+00 0. -1.
</event>
<event>
 7    1  0.6262315E-006  0.1700388E+03  0.7818608E-02  0.1281283E+00
          2   -1    0    0  502    0  0.00000000000E+00  0.00000000000E+00  0.92599701642E+03  0.92599701642E+03  0.00000000000E+00 0. -1.
          1   -1    0    0  501    0 -0.00000000000E+00 -0.00000000000E+00 -0.67621453513E+03  0.67621453513E+03  0.00000000000E+00 0. -1.
         25    2    1    2    0    0 -0.11768369099E+03 -0.14139707519E+03  0.10012216772E+03  0.24391890551E+03  0.12501759875E+03 0.  0.
          2    1    1    2  501    0 -0.26119837044E+02  0.52077753459E+02 -0.59336938517E+03  0.59622274826E+03  0.00000000000E+00 0. -1.
          1    1    1    2  502    0  0.14380352804E+03  0.89319321729E+02  0.74302969873E+03  0.76206989778E+03  0.00000000000E+00 0. -1.
         22    1    3    3    0    0 -0.14391163099E+02 -0.72671851968E+02 -0.13945516520E+02  0.75384222983E+02  0.00000000000E+00 0.  1.
         22    1    3    3    0    0 -0.10329252789E+03 -0.68725223221E+02  0.11406768425E+03  0.16853468253E+03  0.00000000000E+00 0.  1.
</event>
<event>
 7    1  0.6262315E-006  0.3747962E+03  0.7818608E-02  0.1064661E+00
          2   -1    0    0  502    0  0.00000000000E+00  0.00000000000E+00  0.20855363076E+04  0.20855363076E+04  0.00000000000E+00 0. -1.
          1   -1    0    0  501    0 -0.00000000000E+00 -0.00000000000E+00 -0.69383117454E+03  0.69383117454E+03  0.00000000000E+00 0. -1.
         25    2    1    2    0    0  0.19645129401E+03  0.17898001193E+03  0.39630378307E+03  0.49326293769E+03  0.12499872653E+03 0.  0.
          2    1    1    2  501    0  0.28896881338E+03 -0.13197859736E+03 -0.56668625674E+03  0.64965732417E+03  0.00000000000E+00 0. -1.
          1    1    1    2  502    0 -0.48542010739E+03 -0.47001414567E+02  0.15620876067E+04  0.16364472202E+04  0.00000000000E+00 0. -1.
         22    1    3    3    0    0  0.12587854274E+03  0.17757580893E+03  0.33642429088E+03  0.40069923750E+03  0.00000000000E+00 0.  1.
         22    1    3    3    0    0  0.70572751272E+02  0.14042030038E+01  0.59879492190E+02  0.92563700191E+02  0.00000000000E+00 0.  1.
</event>
<event>
 7    1  0.6262315E-006  0.7453912E+02  0.7818608E-02  0.1386832E+00
          2   -1    0    0  502    0  0.00000000000E+00  0.00000000000E+00  0.60474565212E+03  0.60474565212E+03  0.00000000000E+00 0. -1.
          1   -1    0    0  501    0 -0.00000000000E+00 -0.00000000000E+00 -0.92726074001E+03  0.92726074001E+03  0.00000000000E+00 0. -1.
         25    2    1    2    0    0  0.11856149798E+03 -0.40799976373E+02  0.28418264712E+03  0.33482516089E+03  0.12500657808E+03 0.  0.
          2    1    1    2  501    0 -0.66330619427E+02  0.33461449447E+02 -0.89803765063E+03  0.90110545533E+03  0.00000000000E+00 0. -1.
          1    1    1    2  502    0 -0.52230878551E+02  0.73385269254E+01  0.29133991561E+03  0.29607577591E+03  0.00000000000E+00 0. -1.
         22    1    3    3    0    0  0.10279085323E+03 -0.90693065626E+01  0.28088298172E+03  0.29923813468E+03  0.00000000000E+00 0. -1.
         22    1    3    3    0    0  0.15770644749E+02 -0.31730669810E+02  0.32996654048E+01  0.35587026206E+02  0.00000000000E+00 0. -1.
</event>
<event>
 7    1  0.6262315E-006  0.6458519E+03  0.7818608E-02  0.1151526E+00
          2   -1    0    0  502    0  0.00000000000E+00  0.00000000000E+00  0.16999563814E+04  0.16999563814E+04  0.00000000000E+00 0. -1.
          1   -1    0    0  501    0 -0.00000000000E+00 -0.00000000000E+00 -0.26567616684E+04  0.26567616684E+04  0.00000000000E+00 0. -1.
         25    2    1    2    0    0  0.62572132062E+03 -0.60280727057E+02 -0.15987236116E+03  0.66056518773E+03  0.12500503286E+03 0.  0.
          2    1    1    2  501    0  0.23549718670E+02  0.55877698888E+02 -0.21733943858E+04  0.21742401116E+04  0.00000000000E+00 0. -1.
          1    1    1    2  502    0 -0.64927103929E+03  0.44030281687E+01  0.13764614600E+04  0.15219127504E+04  0.00000000000E+00 0. -1.
         22    1    3    3    0    0  0.10783170418E+03 -0.59226469883E+02 -0.29242548586E+02  0.12645385644E+03  0.00000000000E+00 0. -1.
         22    1    3    3    0    0  0.51788961644E+03 -0.10542571738E+01 -0.13062981257E+03  0.53411133129E+03  0.00000000000E+00 0. -1.
</event>
<event>
 7    1  0.6262315E-006  0.8472238E+02  0.7818608E-02  0.1431916E+00
          2   -1    0    0  502    0  0.00000000000E+00  0.00000000000E+00  0.29954249584E+04  0.29954249584E+04  0.00000000000E+00 0. -1.
          1   -1    0    0  501    0 -0.00000000000E+00 -0.00000000000E+00 -0.69925873648E+01  0.69925873648E+01  0.00000000000E+00 0. -1.
         25    2    1    2    0    0  0.63160737461E+02 -0.30941154785E+01  0.21782366127E+04  0.21827365198E+04  0.12500048670E+03 0.  0.
          2    1    1    2  501    0 -0.88849100563E+02 -0.17024041259E+02  0.54046695797E+03  0.54798586963E+03  0.00000000000E+00 0. -1.
          1    1    1    2  502    0  0.25688363101E+02  0.20118156738E+02  0.26972880039E+03  0.27169515636E+03  0.00000000000E+00 0. -1.
         22    1    3    3    0    0 -0.26431049549E+01  0.15558518412E+02  0.16517964686E+04  0.16518718556E+04  0.00000000000E+00 0. -1.
         22    1    3    3    0    0  0.65803842416E+02 -0.18652633891E+02  0.52644014407E+03  0.53086466422E+03  0.00000000000E+00 0. -1.
</event>
<event>
 7    1  0.6262315E-006  0.1365951E+03  0.7818608E-02  0.1249735E+00
          2   -1    0    0  502    0  0.00000000000E+00  0.00000000000E+00  0.15490706312E+04  0.15490706312E+04  0.00000000000E+00 0. -1.
          1   -1    0    0  501    0 -0.00000000000E+00 -0.00000000000E+00 -0.32154636676E+03  0.32154636676E+03  0.00000000000E+00 0. -1.
         25    2    1    2    0    0 -0.41994542116E+02  0.54624997330E+02  0.94173261127E+02  0.17099863956E+03  0.12499799886E+03 0.  0.
          2    1    1    2  501    0  0.40805179671E+02  0.89781392025E+02 -0.27072880575E+03  0.28813164926E+03  0.00000000000E+00 0. -1.
          1    1    1    2  502    0  0.11893624450E+01 -0.14440638935E+03  0.14040798091E+04  0.14114867092E+04  0.00000000000E+00 0. -1.
         22    1    3    3    0    0 -0.64967708659E+02  0.79584409586E+02  0.47204737123E+02  0.11306090670E+03  0.00000000000E+00 0.  1.
         22    1    3    3    0    0  0.22973166543E+02 -0.24959412256E+02  0.46968524004E+02  0.57937732854E+02  0.00000000000E+00 0.  1.
</event>
<event>
 7    1  0.6262315E-006  0.5444671E+02  0.7818608E-02  0.1425868E+00
          2   -1    0    0  502    0  0.00000000000E+00  0.00000000000E+00  0.31361583679E+04  0.31361583679E+04  0.00000000000E+00 0. -1.
          1   -1    0    0  501    0 -0.00000000000E+00 -0.00000000000E+00 -0.47303166061E+03  0.47303166061E+03  0.00000000000E+00 0. -1.
         25    2    1    2    0    0 -0.33746192808E+01 -0.18613338931E+01  0.63133279908E+03  0.64359703323E+03  0.12498474051E+03 0.  0.
          2    1    1    2  501    0  0.98856571659E+01 -0.53541736165E+02 -0.46499963077E+03  0.46817635603E+03  0.00000000000E+00 0. -1.
          1    1    1    2  502    0 -0.65110378851E+01  0.55403070058E+02  0.24967935390E+04  0.24974166393E+04  0.00000000000E+00 0. -1.
         22    1    3    3    0    0 -0.30767453681E+02  0.44972455653E+02  0.15732579617E+03  0.16649493720E+03  0.00000000000E+00 0. -1.
         22    1    3    3    0    0  0.27392834400E+02 -0.46833789546E+02  0.47400700292E+03  0.47710209603E+03  0.00000000000E+00 0. -1.
</event>
<event>
 7    1  0.6262315E-006  0.7044105E+02  0.7818608E-02  0.1430649E+00
          2   -1    0    0  502    0  0.00000000000E+00  0.00000000000E+00  0.55799309916E+02  0.55799309916E+02  0.00000000000E+00 0. -1.
          1   -1    0    0  501    0 -0.00000000000E+00 -0.00000000000E+00 -0.40869585268E+03  0.40869585268E+03  0.00000000000E+00 0. -1.
         25    2    1    2    0    0  0.15614665445E+02 -0.55363379612E+02 -0.24002899862E+03  0.27667420582E+03  0.12500309760E+03 0.  0.
          2    1    1    2  501    0  0.39152881169E+02  0.60787478684E+01 -0.10677732520E+03  0.11389159958E+03  0.00000000000E+00 0. -1.
          1    1    1    2  502    0 -0.54767546615E+02  0.49284631744E+02 -0.60902189506E+01  0.73929357194E+02  0.00000000000E+00 0. -1.
         22    1    3    3    0    0 -0.30349381998E+02 -0.70812981592E+02 -0.87308834696E+02  0.11644052544E+03  0.00000000000E+00 0.  1.
         22    1    3    3    0    0  0.45964047444E+02  0.15449601980E+02 -0.15272016392E+03  0.16023368038E+03  0.00000000000E+00 0.  1.
</event>
<event>
 7    1  0.6262315E-006  0.1472534E+03  0.7818608E-02  0.1292574E+00
          2   -1    0    0  502    0  0.00000000000E+00  0.00000000000E+00  0.11947695860E+04  0.11947695860E+04  0.00000000000E+00 0. -1.
          1   -1    0    0  501    0 -0.00000000000E+00 -0.00000000000E+00 -0.75467610837E+03  0.75467610837E+03  0.00000000000E+00 0. -1.
         25    2    1    2    0    0  0.10136680028E+03 -0.23626827256E+01  0.26350645323E+03  0.30877254831E+03  0.12499610083E+03 0.  0.
          2    1    1    2  501    0  0.60448074716E+02 -0.23653445983E+01 -0.72356038565E+03  0.72608484096E+03  0.00000000000E+00 0. -1.
          1    1    1    2  502    0 -0.16181487500E+03  0.47280273239E+01  0.90014741010E+03  0.91458830515E+03  0.00000000000E+00 0. -1.
         22    1    3    3    0    0  0.11339576337E+03  0.36441972089E+02  0.21204923427E+03  0.24321080205E+03  0.00000000000E+00 0. -1.
         22    1    3    3    0    0 -0.12028963093E+02 -0.38804654815E+02  0.51457218969E+02  0.65561746258E+02  0.00000000000E+00 0. -1.
</event>
<event>
 7    1  0.6262315E-006  0.9297241E+02  0.7818608E-02  0.1338512E+00
          2   -1    0    0  502    0  0.00000000000E+00  0.00000000000E+00  0.77932699279E+03  0.77932699279E+03  0.00000000000E+00 0. -1.
          1   -1    0    0  501    0 -0.00000000000E+00 -0.00000000000E+00 -0.10615076135E+04  0.10615076135E+04  0.00000000000E+00 0. -1.
         25    2    1    2    0    0 -0.14167057522E+03  0.56450360249E+01 -0.15500354524E+03  0.24444517961E+03  0.12499971393E+03 0.  0.
          2    1    1    2  501    0  0.56169166837E+02  0.29342555158E+02 -0.85770517203E+03  0.86004309367E+03  0.00000000000E+00 0. -1.
          1    1    1    2  502    0  0.85501408384E+02 -0.34987591183E+02  0.73052809652E+03  0.73634633304E+03  0.00000000000E+00 0. -1.
         22    1    3    3    0    0  0.66091180092E+01 -0.66771786865E+01 -0.74852084586E+02  0.75439377801E+02  0.00000000000E+00 0. -1.
         22    1    3    3    0    0 -0.14827969323E+03  0.12322214711E+02 -0.80151460650E+02  0.16900580181E+03  0.00000000000E+00 0. -1.
</event>
<event>
 7    1  0.6262315E-006  0.5082043E+02  0.7818608E-02  0.1495640E+00
          2   -1    0    0  502    0  0.00000000000E+00  0.00000000000E+00  0.86438863098E+03  0.86438863098E+03  0.00000000000E+00 0. -1.
          1   -1    0    0  501    0 -0.00000000000E+00 -0.00000000000E+00 -0.68715000714E+03  0.68715000714E+03  0.00000000000E+00 0. -1.
         25    2    1    2    0    0  0.29950784473E+02  0.34303853826E+02 -0.60502176219E+02  0.14614934428E+03  0.12500125451E+03 0.  0.
          2    1    1    2  501    0  0.20538217041E+02 -0.27491479281E+02 -0.58252899829E+03  0.58353888786E+03  0.00000000000E+00 0. -1.
          1    1    1    2  502    0 -0.50489001514E+02 -0.68123745447E+01  0.82026979836E+03  0.82185040598E+03  0.00000000000E+00 0. -1.
         22    1    3    3    0    0 -0.11072712056E+02 -0.39674697941E+02 -0.43420874569E+02  0.59850304571E+02  0.00000000000E+00 0. -1.
         22    1    3    3    0    0  0.41023496529E+02  0.73978551766E+02 -0.17081301650E+02  0.86299039710E+02  0.00000000000E+00 0. -1.
</event>
<event>
 7    1  0.6262315E-006  0.7416016E+02  0.7818608E-02  0.1504959E+00
          2   -1    0    0  502    0  0.00000000000E+00  0.00000000000E+00  0.12385083354E+03  0.12385083354E+03  0.00000000000E+00 0. -1.
          1   -1    0    0  501    0 -0.00000000000E+00 -0.00000000000E+00 -0.22469360091E+03  0.22469360091E+03  0.00000000000E+00 0. -1.
         25    2    1    2    0    0  0.52198273085E+02 -0.19929297834E+02  0.45912117608E+02  0.14441052907E+03  0.12499856695E+03 0.  0.
          2    1    1    2  501    0 -0.66230110528E+02  0.36948858882E+02 -0.16093626917E+03  0.17791045064E+03  0.00000000000E+00 0. -1.
          1    1    1    2  502    0  0.14031837443E+02 -0.17019561048E+02  0.14181384192E+02  0.26223454728E+02  0.00000000000E+00 0. -1.
         22    1    3    3    0    0 -0.14795109529E+02  0.41106250734E+02  0.28396118674E+02  0.52105265292E+02  0.00000000000E+00 0. -1.
         22    1    3    3    0    0  0.66993382614E+02 -0.61035548569E+02  0.17515998934E+02  0.92305263781E+02  0.00000000000E+00 0. -1.
</event>
<event>
 7    1  0.6262315E-006  0.1021567E+03  0.7818608E-02  0.1427108E+00
          2   -1    0    0  502    0  0.00000000000E+00  0.00000000000E+00  0.49194475765E+03  0.49194475765E+03  0.00000000000E+00 0. -1.
          1   -1    0    0  501    0 -0.00000000000E+00 -0.00000000000E+00 -0.50403654143E+03  0.50403654143E+03  0.00000000000E+00 0. -1.
         25    2    1    2    0    0  0.98746873067E+02 -0.39771032130E+02  0.38698909990E+02  0.16868522061E+03  0.12499767230E+03 0.  0.
          2    1    1    2  501    0 -0.10142612037E+03  0.11833898602E+02 -0.43258383176E+03  0.44447280069E+03  0.00000000000E+00 0. -1.
          1    1    1    2  502    0  0.26792473003E+01  0.27937133528E+02  0.38179313799E+03  0.38282327778E+03  0.00000000000E+00 0. -1.
         22    1    3    3    0    0  0.89745180116E+02  0.22806416065E+01 -0.23748966016E+02  0.92862328568E+02  0.00000000000E+00 0. -1.
         22    1    3    3    0    0  0.90016929514E+01 -0.42051673737E+02  0.62447876006E+02  0.75822892043E+02  0.00000000000E+00 0. -1.
</event>
<event>
 7    1  0.6262315E-006  0.1163599E+03  0.7818608E-02  0.1333593E+00
          2   -1    0    0  502    0  0.00000000000E+00  0.00000000000E+00  0.75526858244E+03  0.75526858244E+03  0.00000000000E+00 0. -1.
          1   -1    0    0  501    0 -0.00000000000E+00 -0.00000000000E+00 -0.15319608596E+03  0.15319608596E+03  0.00000000000E+00 0. -1.
         25    2    1    2    0    0  0.10364023788E+03  0.44631383094E+02  0.15921296488E+03  0.23174828996E+03  0.12500096980E+03 0.  0.
          2    1    1    2  501    0  0.14941617736E+02 -0.50696116408E+02 -0.10424388992E+03  0.11687658767E+03  0.00000000000E+00 0. -1.
          1    1    1    2  502    0 -0.11858185562E+03  0.60647333139E+01  0.54710342153E+03  0.55983979076E+03  0.00000000000E+00 0. -1.
         22    1    3    3    0    0  0.60906383837E+02  0.38144351696E+02  0.17221792160E+03  0.18661080269E+03  0.00000000000E+00 0. -1.
         22    1    3    3    0    0  0.42733854047E+02  0.64870313974E+01 -0.13004956726E+02  0.45137487275E+02  0.00000000000E+00 0. -1.
</event>
<event>
 7    1  0.6262315E-006  0.1182499E+03  0.7818608E-02  0.1353130E+00
          2   -1    0    0  502    0  0.00000000000E+00  0.00000000000E+00  0.58370582714E+03  0.58370582714E+03  0.00000000000E+00 0. -1.
          1   -1    0    0  501    0 -0.00000000000E+00 -0.00000000000E+00 -0.70222763393E+03  0.70222763393E+03  0.00000000000E+00 0. -1.
         25    2    1    2    0    0  0.48628971028E+02 -0.10148567593E+03 -0.17376348793E+03  0.24182742867E+03  0.12499054474E+03 0.  0.
          2    1    1    2  501    0 -0.40566023580E+02 -0.16906005873E+02 -0.48702667894E+03  0.48900552277E+03  0.00000000000E+00 0. -1.
          1    1    1    2  502    0 -0.80629474475E+01  0.11839168180E+03  0.54226836009E+03  0.55510050963E+03  0.00000000000E+00 0. -1.
         22    1    3    3    0    0  0.24701763559E+02 -0.11910575604E+03 -0.17376807415E+03  0.21211247450E+03  0.00000000000E+00 0. -1.
         22    1    3    3    0    0  0.23927207469E+02  0.17620080109E+02  0.45862140458E-02  0.29714954170E+02  0.00000000000E+00 0. -1.
</event>
<event>
 7    1  0.6262315E-006  0.5816269E+02  0.7818608E-02  0.1532384E+00
          2   -1    0    0  502    0  0.00000000000E+00  0.00000000000E+00  0.16431716695E+04  0.16431716695E+04  0.00000000000E+00 0. -1.
          1   -1    0    0  501    0 -0.00000000000E+00 -0.00000000000E+00 -0.20638120109E+02  0.20638120109E+02  0.00000000000E+00 0. -1.
         25    2    1    2    0    0 -0.38264102551E+02  0.23903670120E+02  0.59601473402E+03  0.61064987366E+03  0.12499671213E+03 0.  0.
          2    1    1    2  501    0  0.36832333685E+02 -0.47264613498E+02  0.54928647697E+02  0.81287888591E+02  0.00000000000E+00 0. -1.
          1    1    1    2  502    0  0.14317688662E+01  0.23360943378E+02  0.97159016768E+03  0.97187202736E+03  0.00000000000E+00 0. -1.
         22    1    3    3    0    0  0.10239331564E+02 -0.43907977233E+02  0.14014017344E+03  0.14721420648E+03  0.00000000000E+00 0. -1.
         22    1    3    3    0    0 -0.48503434115E+02  0.67811647353E+02  0.45587456058E+03  0.46343566718E+03  0.00000000000E+00 0. -1.
</event>
<event>
 7    1  0.6262315E-006  0.6771629E+02  0.7818608E-02  0.1433489E+00
          2   -1    0    0  502    0  0.00000000000E+00  0.00000000000E+00  0.27269490810E+03  0.27269490810E+03  0.00000000000E+00 0. -1.
          1   -1    0    0  501    0 -0.00000000000E+00 -0.00000000000E+00 -0.96028499018E+03  0.96028499018E+03  0.00000000000E+00 0. -1.
         25    2    1    2    0    0 -0.90285878944E+02  0.67768877928E+01  0.80533349343E+02  0.17409155341E+03  0.12499912986E+03 0.  0.
          2    1    1    2  501    0  0.32697955768E+02  0.23626698388E+02 -0.90574193954E+03  0.90663986138E+03  0.00000000000E+00 0. -1.
          1    1    1    2  502    0  0.57587923176E+02 -0.30403586181E+02  0.13761850813E+03  0.15224848350E+03  0.00000000000E+00 0. -1.
         22    1    3    3    0    0 -0.60441474551E+02  0.43349740444E+02 -0.69308960147E+01  0.74702136262E+02  0.00000000000E+00 0.  1.
         22    1    3    3    0    0 -0.29844404393E+02 -0.36572852651E+02  0.87464245357E+02  0.99389417146E+02  0.00000000000E+00 0.  1.
</event>
<event>
 7    1  0.6262315E-006  0.7050216E+02  0.7818608E-02  0.1408298E+00
          2   -1    0    0  502    0  0.00000000000E+00  0.00000000000E+00  0.90260709177E+03  0.90260709177E+03  0.00000000000E+00 0. -1.
          1   -1    0    0  501    0 -0.00000000000E+00 -0.00000000000E+00 -0.46575123087E+03  0.46575123087E+03  0.00000000000E+00 0. -1.
         25    2    1    2    0    0 -0.10318405311E+03 -0.17906224985E+02  0.51962717457E+02  0.17114862545E+03  0.12499658506E+03 0.  0.
          2    1    1    2  501    0  0.43395263393E+02 -0.18099795681E+02 -0.40325020916E+03  0.40598212112E+03  0.00000000000E+00 0. -1.
          1    1    1    2  502    0  0.59788789718E+02  0.36006020666E+02  0.78814335260E+03  0.79122757608E+03  0.00000000000E+00 0. -1.
         22    1    3    3    0    0 -0.11760748794E+03  0.20248748576E+02  0.24090392062E+02  0.12174514376E+03  0.00000000000E+00 0.  1.
         22    1    3    3    0    0  0.14423434834E+02 -0.38154973562E+02  0.27872325395E+02  0.49403481687E+02  0.00000000000E+00 0.  1.
</event>
<event>
 7    1  0.6262315E-006  0.6165054E+02  0.7818608E-02  0.1399689E+00
          2   -1    0    0  502    0  0.00000000000E+00  0.00000000000E+00  0.19989715856E+02  0.19989715856E+02  0.00000000000E+00 0. -1.
          1   -1    0    0  501    0 -0.00000000000E+00 -0.00000000000E+00 -0.22210714840E+04  0.22210714840E+04  0.00000000000E+00 0. -1.
         25    2    1    2    0    0 -0.27967075052E+02 -0.20478376446E+02 -0.11529536552E+04  0.11602276400E+04  0.12499809763E+03 0.  0.
          2    1    1    2  501    0 -0.83897045391E+01  0.70267673333E+02 -0.10003150666E+04  0.10028151203E+04  0.00000000000E+00 0. -1.
          1    1    1    2  502    0  0.36356779591E+02 -0.49789296887E+02 -0.47813046340E+02  0.78018439532E+02  0.00000000000E+00 0. -1.
         22    1    3    3    0    0 -0.18037163732E+02 -0.27731728571E+02 -0.72354758636E+02  0.79558777909E+02  0.00000000000E+00 0. -1.
         22    1    3    3    0    0 -0.99299113198E+01  0.72533521248E+01 -0.10805988965E+04  0.10806688621E+04  0.00000000000E+00 0. -1.
</event>
<event>
 7    1  0.6262315E-006  0.1559577E+03  0.7818608E-02  0.1359541E+00
          2   -1    0    0  502    0  0.00000000000E+00  0.00000000000E+00  0.21616514911E+04  0.21616514911E+04  0.00000000000E+00 0. -1.
          1   -1    0    0  501    0 -0.00000000000E+00 -0.00000000000E+00 -0.70474254714E+02  0.70474254714E+02  0.00000000000E+00 0. -1.
         25    2    1    2    0    0  0.12915053333E+03 -0.38457460100E+02  0.10881642464E+04  0.11035784826E+04  0.12500081454E+03 0.  0.
          2    1    1    2  501    0 -0.15639814051E+03  0.22522871212E+02  0.37346568341E+02  0.16236509554E+03  0.00000000000E+00 0. -1.
          1    1    1    2  502    0  0.27247607186E+02  0.15934588888E+02  0.96566642164E+03  0.96618216766E+03  0.00000000000E+00 0. -1.
         22    1    3    3    0    0  0.48088518837E+02 -0.40510935265E+02  0.84322032033E+03  0.84556144078E+03  0.00000000000E+00 0.  1.
         22    1    3    3    0    0  0.81062014490E+02  0.20534751646E+01  0.24494392606E+03  0.25801704181E+03  0.00000000000E+00 0.  1.
</event>
<event>
 7    1  0.6262315E-006  0.8505166E+02  0.7818608E-02  0.1326816E+00
          2   -1    0    0  502    0  0.00000000000E+00  0.00000000000E+00  0.58634344536E+02  0.58634344536E+02  0.00000000000E+00 0. -1.
          1   -1    0    0  501    0 -0.00000000000E+00 -0.00000000000E+00 -0.14963173244E+04  0.14963173244E+04  0.00000000000E+00 0. -1.
         25    2    1    2    0    0  0.10971575925E+03  0.22429593760E+02 -0.14173508269E+03  0.21966820796E+03  0.12499861366E+03 0.  0.
          2    1    1    2  501    0 -0.49122400744E+02 -0.69531957610E+02 -0.12332402941E+04  0.12361752814E+04  0.00000000000E+00 0. -1.
          1    1    1    2  502    0 -0.60593358508E+02  0.47102363850E+02 -0.62707603105E+02  0.99108179596E+02  0.00000000000E+00 0. -1.
         22    1    3    3    0    0  0.60698360863E+02 -0.18784729116E+02 -0.14206415026E+03  0.15562576859E+03  0.00000000000E+00 0. -1.
         22    1    3    3    0    0  0.49017398389E+02  0.41214322876E+02  0.32906757090E+00  0.64042439370E+02  0.00000000000E+00 0. -1.
</event>
<event>
 7    1  0.6262315E-006  0.8852701E+02  0.7818608E-02  0.1437157E+00
          2   -1    0    0  502    0  0.00000000000E+00  0.00000000000E+00  0.11427693247E+03  0.11427693247E+03  0.00000000000E+00 0. -1.
          1   -1    0    0  501    0 -0.00000000000E+00 -0.00000000000E+00 -0.62218750852E+03  0.62218750852E+03  0.00000000000E+00 0. -1.
         25    2    1    2    0    0  0.36424974188E+02 -0.10877794595E+03 -0.18012718292E+03  0.24744839863E+03  0.12500195073E+03 0.  0.
          2    1    1    2  501    0 -0.28339455407E+01  0.29883791584E+02 -0.38484739583E+03  0.38601630836E+03  0.00000000000E+00 0. -1.
          1    1    1    2  502    0 -0.33591028647E+02  0.78894154365E+02  0.57064002699E+02  0.10299973399E+03  0.00000000000E+00 0. -1.
         22    1    3    3    0    0  0.15128244262E+02 -0.13496441783E+03 -0.14757165479E+03  0.20055336236E+03  0.00000000000E+00 0. -1.
         22    1    3    3    0    0  0.21296729926E+02  0.26186471881E+02 -0.32555528129E+02  0.46895036271E+02  0.00000000000E+00 0. -1.
</event>
<event>
 7    1  0.6262315E-006  0.4426989E+02  0.7818608E-02  0.1505355E+00
          2   -1    0    0  502    0  0.00000000000E+00  0.00000000000E+00  0.26602421604E+03  0.26602421604E+03  0.00000000000E+00 0. -1.
          1   -1    0    0  501    0 -0.00000000000E+00 -0.00000000000E+00 -0.15199053750E+04  0.15199053750E+04  0.00000000000E+00 0. -1.
         25    2    1    2    0    0  0.24294557975E+02  0.66062351888E+02 -0.44040292503E+03  0.46317967121E+03  0.12500484616E+03 0.  0.
          2    1    1    2  501    0 -0.31586223190E+02 -0.29939277583E+02 -0.10663345566E+04  0.10672222995E+04  0.00000000000E+00 0. -1.
          1    1    1    2  502    0  0.72916652144E+01 -0.36123074305E+02  0.25285632265E+03  0.25552762039E+03  0.00000000000E+00 0. -1.
         22    1    3    3    0    0 -0.41385389199E+02  0.14035450384E+01 -0.68649381004E+02  0.80171428140E+02  0.00000000000E+00 0. -1.
         22    1    3    3    0    0  0.65679947174E+02  0.64658806850E+02 -0.37175354402E+03  0.38300824307E+03  0.00000000000E+00 0. -1.
</event>
<event>
 7    1  0.6262315E-006  0.1553989E+03  0.7818608E-02  0.1253675E+00
          2   -1    0    0  502    0  0.00000000000E+00  0.00000000000E+00  0.26612067938E+04  0.26612067938E+04  0.00000000000E+00 0. -1.
          1   -1    0    0  501    0 -0.00000000000E+00 -0.00000000000E+00 -0.56835141514E+02  0.56835141514E+02  0.00000000000E+00 0. -1.
         25    2    1    2    0    0  0.47809329849E+02 -0.18008485467E+03  0.13458198251E+04  0.13643933472E+04  0.12498766927E+03 0.  0.
          2    1    1    2  501    0 -0.75156166719E+02  0.36037096896E+02 -0.31957098303E+01  0.83410636671E+02  0.00000000000E+00 0. -1.
          1    1    1    2  502    0  0.27346836870E+02  0.14404775777E+03  0.12617475370E+04  0.12702379514E+04  0.00000000000E+00 0. -1.
         22    1    3    3    0    0  0.75924688504E+02 -0.11242097347E+03  0.60832236217E+03  0.62326489546E+03  0.00000000000E+00 0. -1.
         22    1    3    3    0    0 -0.28115358655E+02 -0.67663881195E+02  0.73749746292E+03  0.74112845177E+03  0.00000000000E+00 0. -1.
</event>
<event>
 7    1  0.6262315E-006  0.9538385E+02  0.7818608E-02  0.1359034E+00
          2   -1    0    0  502    0  0.00000000000E+00  0.00000000000E+00  0.19639802360E+04  0.19639802360E+04  0.00000000000E+00 0. -1.
          1   -1    0    0  501    0 -0.00000000000E+00 -0.00000000000E+00 -0.15353906198E+03  0.15353906198E+03  0.00000000000E+00 0. -1.
         25    2    1    2    0    0  0.60590555969E+02 -0.83995204528E+01  0.24021135367E+02  0.14122064814E+03  0.12499795638E+03 0.  0.
          2    1    1    2  501    0 -0.10831666284E+03 -0.11815485304E+02 -0.63193913232E+02  0.12595862738E+03  0.00000000000E+00 0. -1.
          1    1    1    2  502    0  0.47726106874E+02  0.20215005757E+02  0.18496139519E+04  0.18503400224E+04  0.00000000000E+00 0. -1.
         22    1    3    3    0    0  0.37839174066E+02  0.38243768156E+02 -0.33791891699E+02  0.63531730980E+02  0.00000000000E+00 0. -1.
         22    1    3    3    0    0  0.22751381903E+02 -0.46643288609E+02  0.57813027066E+02  0.77688917159E+02  0.00000000000E+00 0. -1.
</event>
<event>
 7    1  0.6262315E-006  0.8429441E+02  0.7818608E-02  0.1450495E+00
          2   -1    0    0  502    0  0.00000000000E+00  0.00000000000E+00  0.17232303545E+02  0.17232303545E+02  0.00000000000E+00 0. -1.
          1   -1    0    0  501    0 -0.00000000000E+00 -0.00000000000E+00 -0.16818279493E+04  0.16818279493E+04  0.00000000000E+00 0. -1.
         25    2    1    2    0    0 -0.30364191204E+02 -0.58025793787E+02 -0.46267470897E+03  0.48371718268E+03  0.12500179857E+03 0.  0.
          2    1    1    2  501    0  0.57893829452E+02  0.65589687298E+02 -0.11668303186E+04  0.11701054205E+04  0.00000000000E+00 0. -1.
          1    1    1    2  502    0 -0.27529638248E+02 -0.75638935101E+01 -0.35090618187E+02  0.45237649716E+02  0.00000000000E+00 0. -1.
         22    1    3    3    0    0 -0.21694292270E+02 -0.43862939825E+02 -0.46444632372E+03  0.46701711685E+03  0.00000000000E+00 0. -1.
         22    1    3    3    0    0 -0.86698989341E+01 -0.14162853963E+02  0.17716147549E+01  0.16700065830E+02  0.00000000000E+00 0. -1.
</event>
<event>
 7    1  0.6262315E-006  0.2019479E+03  0.7818608E-02  0.1207073E+00
          2   -1    0    0  502    0  0.00000000000E+00  0.00000000000E+00  0.48459194949E+03  0.48459194949E+03  0.00000000000E+00 0. -1.
          1   -1    0    0  501    0 -0.00000000000E+00 -0.00000000000E+00 -0.20131757195E+04  0.20131757195E+04  0.00000000000E+00 0. -1.
         25    2    1    2    0    0 -0.94482113601E+02 -0.15709417590E+03 -0.18906685310E+03  0.29150820458E+03  0.12500123400E+03 0.  0.
          2    1    1    2  501    0  0.91412460331E+02 -0.49083327297E+02 -0.17467335108E+04  0.17498123810E+04  0.00000000000E+00 0. -1.
          1    1    1    2  502    0  0.30696532705E+01  0.20617750320E+03  0.40721659391E+03  0.45644708341E+03  0.00000000000E+00 0. -1.
         22    1    3    3    0    0 -0.82649374764E+02 -0.22916511878E+02 -0.57794434579E+02  0.10342283275E+03  0.00000000000E+00 0. -1.
         22    1    3    3    0    0 -0.11832738837E+02 -0.13417766402E+03 -0.13127241852E+03  0.18808537183E+03  0.00000000000E+00 0. -1.
</event>
<event>
 7    1  0.6262315E-006  0.1018852E+03  0.7818608E-02  0.1310788E+00
          2   -1    0    0  502    0  0.00000000000E+00  0.00000000000E+00  0.15529633712E+04  0.15529633712E+04  0.00000000000E+00 0. -1.
          1   -1    0    0  501    0 -0.00000000000E+00 -0.00000000000E+00 -0.63474070381E+02  0.63474070381E+02  0.00000000000E+00 0. -1.
         25    2    1    2    0    0  0.29855200665E+02 -0.66741895750E+02  0.11438259561E+03  0.18453817665E+03  0.12500058724E+03 0.  0.
          2    1    1    2  501    0 -0.67060890267E+02 -0.31169422924E+02  0.25484363855E+02  0.78218595806E+02  0.00000000000E+00 0. -1.
          1    1    1    2  502    0  0.37205689602E+02  0.97911318674E+02  0.13496223413E+04  0.13536806691E+04  0.00000000000E+00 0. -1.
         22    1    3    3    0    0  0.34897702683E+02  0.27276353411E+02  0.12960624245E+02  0.46150047549E+02  0.00000000000E+00 0. -1.
         22    1    3    3    0    0 -0.50425020186E+01 -0.94018249162E+02  0.10142197136E+03  0.13838812910E+03  0.00000000000E+00 0. -1.
</event>
<event>
 7    1  0.6262315E-006  0.9414902E+02  0.7818608E-02  0.1325125E+00
          2   -1    0    0  502    0  0.00000000000E+00  0.00000000000E+00  0.28468444478E+03  0.28468444478E+03  0.00000000000E+00 0. -1.
          1   -1    0    0  501    0 -0.00000000000E+00 -0.00000000000E+00 -0.29840039126E+03  0.29840039126E+03  0.00000000000E+00 0. -1.
         25    2    1    2    0    0  0.38767636605E+02  0.42870368442E+02  0.51231992596E+02  0.14693838263E+03  0.12500149234E+03 0.  0.
          2    1    1    2  501    0 -0.99216326539E+02 -0.68300039427E+01 -0.23333448210E+03  0.25364445380E+03  0.00000000000E+00 0. -1.
          1    1    1    2  502    0  0.60448689934E+02 -0.36040364499E+02  0.16838654302E+03  0.18250199960E+03  0.00000000000E+00 0. -1.
         22    1    3    3    0    0  0.49122336294E+02  0.71067351523E+02  0.70281562736E+02  0.11136907307E+03  0.00000000000E+00 0. -1.
         22    1    3    3    0    0 -0.10354699689E+02 -0.28196983081E+02 -0.19049570139E+02  0.35569309566E+02  0.00000000000E+00 0. -1.
</event>
<event>
 7    1  0.6262315E-006  0.1134145E+03  0.7818608E-02  0.1427387E+00
          2   -1    0    0  502    0  0.00000000000E+00  0.00000000000E+00  0.43979109974E+04  0.43979109974E+04  0.00000000000E+00 0. -1.
          1   -1    0    0  501    0 -0.00000000000E+00 -0.00000000000E+00 -0.88513279904E+01  0.88513279904E+01  0.00000000000E+00 0. -1.
         25    2    1    2    0    0 -0.12511739783E+03  0.38240206701E+02  0.20326691260E+04  0.20407071242E+04  0.12500045650E+03 0.  0.
          2    1    1    2  501    0  0.10007665565E+03 -0.41290070475E+02  0.61327393359E+03  0.62275607147E+03  0.00000000000E+00 0. -1.
          1    1    1    2  502    0  0.25040742186E+02  0.30498637748E+01  0.17431166098E+04  0.17432991297E+04  0.00000000000E+00 0. -1.
         22    1    3    3    0    0 -0.14100472252E+03  0.59387055842E+02  0.16276568020E+04  0.16348320462E+04  0.00000000000E+00 0.  1.
         22    1    3    3    0    0  0.15887324683E+02 -0.21146849141E+02  0.40501232402E+03  0.40587507798E+03  0.00000000000E+00 0.  1.
</event>
<event>
 7    1  0.6262315E-006  0.1270511E+03  0.7818608E-02  0.1330253E+00
          2   -1    0    0  502    0  0.00000000000E+00  0.00000000000E+00  0.50877222735E+03  0.50877222735E+03  0.00000000000E+00 0. -1.
          1   -1    0    0  501    0 -0.00000000000E+00 -0.00000000000E+00 -0.20893762501E+03  0.20893762501E+03  0.00000000000E+00 0. -1.
         25    2    1    2    0    0  0.79055944655E+02 -0.30754370762E+02  0.21613078477E+02  0.15260590701E+03  0.12500305591E+03 0.  0.
          2    1    1    2  501    0  0.41876485228E+02 -0.27032456049E+02 -0.12798946514E+03  0.13735245495E+03  0.00000000000E+00 0. -1.
          1    1    1    2  502    0 -0.12093242988E+03  0.57786826810E+02  0.40621098900E+03  0.42775149040E+03  0.00000000000E+00 0. -1.
         22    1    3    3    0    0  0.27726595662E+02 -0.45374449916E+02 -0.43296103579E+02  0.68572278636E+02  0.00000000000E+00 0.  1.
         22    1    3    3    0    0  0.51329348993E+02  0.14620079155E+02  0.64909182057E+02  0.84033628375E+02  0.00000000000E+00 0.  1.
</event>
<event>
 7    1  0.6262315E-006  0.6322139E+02  0.7818608E-02  0.1430288E+00
          2   -1    0    0  502    0  0.00000000000E+00  0.00000000000E+00  0.80283090401E+03  0.80283090401E+03  0.00000000000E+00 0. -1.
          1   -1    0    0  501    0 -0.00000000000E+00 -0.00000000000E+00 -0.43139389870E+03  0.43139389870E+03  0.00000000000E+00 0. -1.
         25    2    1    2    0    0  0.51878735440E+02  0.59095449261E+02  0.12607488623E+03  0.19417438564E+03  0.12500055915E+03 0.  0.
          2    1    1    2  501    0 -0.77590768315E+01 -0.62711192310E+02 -0.39406181086E+03  0.39909598807E+03  0.00000000000E+00 0. -1.
          1    1    1    2  502    0 -0.44119658609E+02  0.36157430500E+01  0.63942392995E+03  0.64095442901E+03  0.00000000000E+00 0. -1.
         22    1    3    3    0    0  0.50543150413E+01  0.11303544024E+02 -0.25578295994E+02  0.28417695790E+02  0.00000000000E+00 0. -1.
         22    1    3    3    0    0  0.46824420399E+02  0.47791905237E+02  0.15165318222E+03  0.16575668985E+03  0.00000000000E+00 0. -1.
</event>
<event>
 7    1  0.6262315E-006  0.6843370E+02  0.7818608E-02  0.1445548E+00
          2   -1    0    0  502    0  0.00000000000E+00  0.00000000000E+00  0.84902547730E+03  0.84902547730E+03  0.00000000000E+00 0. -1.
          1   -1    0    0  501    0 -0.00000000000E+00 -0.00000000000E+00 -0.17399871175E+03  0.17399871175E+03  0.00000000000E+00 0. -1.
         25    2    1    2    0    0 -0.64999726943E+02  0.13060303909E+02 -0.10903510818E+02  0.14190423801E+03  0.12498956027E+03 0.  0.
          2    1    1    2  501    0  0.66399958191E+02  0.23388541121E+02 -0.84411624291E+02  0.10991496995E+03  0.00000000000E+00 0. -1.
          1    1    1    2  502    0 -0.14002312477E+01 -0.36448845030E+02  0.77034190065E+03  0.77120498109E+03  0.00000000000E+00 0. -1.
         22    1    3    3    0    0 -0.67013475088E+02 -0.35924839575E+02 -0.38940618044E+02  0.85426996175E+02  0.00000000000E+00 0. -1.
         22    1    3    3    0    0  0.20137481452E+01  0.48985143484E+02  0.28037107226E+02  0.56477241836E+02  0.00000000000E+00 0. -1.
</event>
<event>
 7    1  0.6262315E-006  0.7125503E+02  0.7818608E-02  0.1380884E+00
          2   -1    0    0  502    0  0.00000000000E+00  0.00000000000E+00  0.15172543572E+03  0.15172543572E+03  0.00000000000E+00 0. -1.
          1   -1    0    0  501    0 -0.00000000000E+00 -0.00000000000E+00 -0.27159145924E+04  0.27159145924E+04  0.00000000000E+00 0. -1.
         25    2    1    2    0    0  0.26122230096E+02 -0.12381449055E+03 -0.48476654805E+03  0.51636734205E+03  0.12499690735E+03 0.  0.
          2    1    1    2  501    0 -0.18358329394E+01  0.57872152773E+02 -0.22058596781E+04  0.22066194678E+04  0.00000000000E+00 0. -1.
          1    1    1    2  502    0 -0.24286397156E+02  0.65942337778E+02  0.12643706949E+03  0.14465321822E+03  0.00000000000E+00 0. -1.
         22    1    3    3    0    0  0.27293121312E+02  0.89713718021E+01 -0.20129011735E+03  0.20333005515E+03  0.00000000000E+00 0.  1.
         22    1    3    3    0    0 -0.11708912163E+01 -0.13278586235E+03 -0.28347643070E+03  0.31303728690E+03  0.00000000000E+00 0.  1.
</event>
<event>
 7    1  0.7336062E-006  0.7553874E+02  0.7818608E-02  0.1412553E+00
          2   -1    0    0  502    0  0.00000000000E+00  0.00000000000E+00  0.16041133813E+04  0.16041133813E+04  0.00000000000E+00 0. -1.
          1   -1    0    0  501    0 -0.00000000000E+00 -0.00000000000E+00 -0.63596615567E+03  0.63596615567E+03  0.00000000000E+00 0. -1.
         25    2    1    2    0    0 -0.59266786800E+02  0.39171146316E+02 -0.16482081562E+03  0.21871837604E+03  0.12499958412E+03 0.  0.
          2    1    1    2  501    0  0.31049439463E+02 -0.70887228886E+02 -0.44053738419E+03  0.44728319193E+03  0.00000000000E+00 0. -1.
          1    1    1    2  502    0  0.28217347338E+02  0.31716082569E+02  0.15735054254E+04  0.15740779690E+04  0.00000000000E+00 0. -1.
         22    1    3    3    0    0 -0.73508659876E+02  0.42400034548E+02 -0.41371082482E+02  0.94407904712E+02  0.00000000000E+00 0.  1.
         22    1    3    3    0    0  0.14241873075E+02 -0.32288882315E+01 -0.12344973314E+03  0.12431047132E+03  0.00000000000E+00 0.  1.
</event>
<event>
 7    1  0.6262315E-006  0.6909271E+02  0.7818608E-02  0.1469938E+00
          2   -1    0    0  502    0  0.00000000000E+00  0.00000000000E+00  0.11527072336E+04  0.11527072336E+04  0.00000000000E+00 0. -1.
          1   -1    0    0  501    0 -0.00000000000E+00 -0.00000000000E+00 -0.34389444959E+02  0.34389444959E+02  0.00000000000E+00 0. -1.
         25    2    1    2    0    0  0.35870522577E+02 -0.24376021207E+02  0.79179717643E+03  0.80278270914E+03  0.12504569036E+03 0.  0.
          2    1    1    2  501    0 -0.66113366958E+02  0.24726289189E+02  0.16068056921E+02  0.72391637091E+02  0.00000000000E+00 0. -1.
          1    1    1    2  502    0  0.30242844381E+02 -0.35026798144E+00  0.31045255529E+03  0.31192233234E+03  0.00000000000E+00 0. -1.
         22    1    3    3    0    0 -0.24472666868E+01 -0.30535823099E+00  0.70405355857E+03  0.70405787808E+03  0.00000000000E+00 0. -1.
         22    1    3    3    0    0  0.38317789263E+02 -0.24070662976E+02  0.87743617866E+02  0.98724831053E+02  0.00000000000E+00 0. -1.
</event>
<event>
 7    1  0.6262315E-006  0.8084492E+02  0.7818608E-02  0.1352509E+00
          2   -1    0    0  502    0  0.00000000000E+00  0.00000000000E+00  0.28928694148E+04  0.28928694148E+04  0.00000000000E+00 0. -1.
          1   -1    0    0  501    0 -0.00000000000E+00 -0.00000000000E+00 -0.29240479906E+02  0.29240479906E+02  0.00000000000E+00 0. -1.
         25    2    1    2    0    0  0.34004911850E+01  0.35927467763E+02  0.33403172070E+03  0.35847625900E+03  0.12500276619E+03 0.  0.
          2    1    1    2  501    0 -0.30167264563E+01 -0.10054785128E+03  0.13597617000E+03  0.16914044414E+03  0.00000000000E+00 0. -1.
          1    1    1    2  502    0 -0.38376472879E+00  0.64620383519E+02  0.23936210442E+04  0.23944931916E+04  0.00000000000E+00 0. -1.
         22    1    3    3    0    0 -0.42278961212E+02  0.56734787934E+02  0.25677415670E+03  0.26634435281E+03  0.00000000000E+00 0.  1.
         22    1    3    3    0    0  0.45679452397E+02 -0.20807320172E+02  0.77257563995E+02  0.92131906192E+02  0.00000000000E+00 0.  1.
</event>
<event>
 7    1  0.6262315E-006  0.8345507E+02  0.7818608E-02  0.1340553E+00
          2   -1    0    0  502    0  0.00000000000E+00  0.00000000000E+00  0.97420945487E+03  0.97420945487E+03  0.00000000000E+00 0. -1.
          1   -1    0    0  501    0 -0.00000000000E+00 -0.00000000000E+00 -0.89075134822E+03  0.89075134822E+03  0.00000000000E+00 0. -1.
         25    2    1    2    0    0  0.82993960839E+01 -0.13888692192E+02  0.17117435354E+03  0.21257396126E+03  0.12500101578E+03 0.  0.
          2    1    1    2  501    0 -0.66505018458E+02  0.51611047599E+02 -0.86647030489E+03  0.87055006000E+03  0.00000000000E+00 0. -1.
          1    1    1    2  502    0  0.58205622374E+02 -0.37722355407E+02  0.77875405800E+03  0.78183678183E+03  0.00000000000E+00 0. -1.
         22    1    3    3    0    0  0.56813549814E+02  0.21112834399E+02  0.11745826996E+03  0.13217403830E+03  0.00000000000E+00 0. -1.
         22    1    3    3    0    0 -0.48514153730E+02 -0.35001526591E+02  0.53716083584E+02  0.80399922957E+02  0.00000000000E+00 0. -1.
</event>
<event>
 7    1  0.6262315E-006  0.8273734E+02  0.7818608E-02  0.1400391E+00
          2   -1    0    0  502    0  0.00000000000E+00  0.00000000000E+00  0.30561892553E+03  0.30561892553E+03  0.00000000000E+00 0. -1.
          1   -1    0    0  501    0 -0.00000000000E+00 -0.00000000000E+00 -0.12441801422E+04  0.12441801422E+04  0.00000000000E+00 0. -1.
         25    2    1    2    0    0 -0.10244034259E+03  0.63494338174E+02 -0.22208860388E+03  0.28191147764E+03  0.12500071392E+03 0.  0.
          2    1    1    2  501    0  0.61206326597E+02 -0.52646330750E+02 -0.98887673531E+03  0.99216684494E+03  0.00000000000E+00 0. -1.
          1    1    1    2  502    0  0.41234015995E+02 -0.10848007424E+02  0.27240412252E+03  0.27572074515E+03  0.00000000000E+00 0. -1.
         22    1    3    3    0    0 -0.44586725332E+02 -0.11811386308E+02 -0.16451523076E+03  0.17085884840E+03  0.00000000000E+00 0. -1.
         22    1    3    3    0    0 -0.57853617260E+02  0.75305724483E+02 -0.57573373117E+02  0.11105262924E+03  0.00000000000E+00 0. -1.
</event>
<event>
 7    1  0.6262315E-006  0.7727890E+02  0.7818608E-02  0.1457527E+00
          2   -1    0    0  502    0  0.00000000000E+00  0.00000000000E+00  0.23432338590E+04  0.23432338590E+04  0.00000000000E+00 0. -1.
          1   -1    0    0  501    0 -0.00000000000E+00 -0.00000000000E+00 -0.16525226076E+02  0.16525226076E+02  0.00000000000E+00 0. -1.
         25    2    1    2    0    0  0.49852778343E+02  0.24042267615E+02  0.59814140929E+03  0.61355823629E+03  0.12496893081E+03 0.  0.
          2    1    1    2  501    0 -0.74811278227E+02 -0.39914775906E+02  0.19855519546E+03  0.21590294655E+03  0.00000000000E+00 0. -1.
          1    1    1    2  502    0  0.24958499884E+02  0.15872508291E+02  0.15300120282E+04  0.15302979022E+04  0.00000000000E+00 0. -1.
         22    1    3    3    0    0  0.35464586532E+02 -0.25310116276E+01  0.57340528337E+03  0.57450653775E+03  0.00000000000E+00 0. -1.
         22    1    3    3    0    0  0.14388191811E+02  0.26573279243E+02  0.24736125921E+02  0.39051698540E+02  0.00000000000E+00 0. -1.
</event>
<event>
 7    1  0.6262315E-006  0.1514240E+03  0.7818608E-02  0.1348043E+00
          2   -1    0    0  502    0  0.00000000000E+00  0.00000000000E+00  0.16331903137E+04  0.16331903137E+04  0.00000000000E+00 0. -1.
          1   -1    0    0  501    0 -0.00000000000E+00 -0.00000000000E+00 -0.10292882288E+04  0.10292882288E+04  0.00000000000E+00 0. -1.
         25    2    1    2    0    0  0.89977229700E+02  0.11839101288E+03  0.89888082773E+03  0.91963272061E+03  0.12500105824E+03 0.  0.
          2    1    1    2  501    0 -0.11756107180E+03 -0.95506993252E+02 -0.10128336449E+04  0.10240967648E+04  0.00000000000E+00 0. -1.
          1    1    1    2  502    0  0.27583842101E+02 -0.22884019625E+02  0.71785490209E+03  0.71874905715E+03  0.00000000000E+00 0. -1.
         22    1    3    3    0    0  0.11816530210E+03  0.72860907472E+02  0.70228931561E+03  0.71587850455E+03  0.00000000000E+00 0.  1.
         22    1    3    3    0    0 -0.28188072405E+02  0.45530105404E+02  0.19659151212E+03  0.20375421606E+03  0.00000000000E+00 0.  1.
</event>
<event>
 7    1  0.6597544E-006  0.1406440E+03  0.7818608E-02  0.1286521E+00
          2   -1    0    0  502    0  0.00000000000E+00  0.00000000000E+00  0.17100096661E+04  0.17100096661E+04  0.00000000000E+00 0. -1.
          1   -1    0    0  501    0 -0.00000000000E+00 -0.00000000000E+00 -0.51849707108E+03  0.51849707108E+03  0.00000000000E+00 0. -1.
         25    2    1    2    0    0  0.92527731587E+02  0.37562342649E+02  0.64578364842E+01  0.16012196980E+03  0.12500012345E+03 0.  0.
          2    1    1    2  501    0  0.49971966610E+02 -0.44680674920E+02 -0.43596985168E+03  0.44109326874E+03  0.00000000000E+00 0. -1.
          1    1    1    2  502    0 -0.14249969820E+03  0.71183322708E+01  0.16210246102E+04  0.16272914986E+04  0.00000000000E+00 0. -1.
         22    1    3    3    0    0  0.66493929418E+02  0.83668031711E+02  0.83273673386E+00  0.10687598248E+03  0.00000000000E+00 0.  1.
         22    1    3    3    0    0  0.26033802169E+02 -0.46105689062E+02  0.56250997503E+01  0.53245987327E+02  0.00000000000E+00 0.  1.
</event>
<event>
 7    1  0.6262315E-006  0.1998638E+03  0.7818608E-02  0.1208811E+00
          2   -1    0    0  502    0  0.00000000000E+00  0.00000000000E+00  0.22703693542E+03  0.22703693542E+03  0.00000000000E+00 0. -1.
          1   -1    0    0  501    0 -0.00000000000E+00 -0.00000000000E+00 -0.10033803509E+04  0.10033803509E+04  0.00000000000E+00 0. -1.
         25    2    1    2    0    0  0.14676292788E+03  0.23055570158E+02 -0.35921842317E+03  0.40833202898E+03  0.12500501599E+03 0.  0.
          2    1    1    2  501    0  0.52111461725E+02 -0.88733215415E+02 -0.55946865787E+03  0.56885355506E+03  0.00000000000E+00 0. -1.
          1    1    1    2  502    0 -0.19887438961E+03  0.65677645257E+02  0.14234366555E+03  0.25323170230E+03  0.00000000000E+00 0. -1.
         22    1    3    3    0    0  0.38059925081E+02  0.49301681468E+02 -0.51148610265E+02  0.80594007375E+02  0.00000000000E+00 0.  1.
         22    1    3    3    0    0  0.10870300280E+03 -0.26246111310E+02 -0.30806981291E+03  0.32773802160E+03  0.00000000000E+00 0.  1.
</event>
<event>
 7    1  0.6262315E-006  0.1062838E+03  0.7818608E-02  0.1372742E+00
          2   -1    0    0  502    0  0.00000000000E+00  0.00000000000E+00  0.17983615298E+03  0.17983615298E+03  0.00000000000E+00 0. -1.
          1   -1    0    0  501    0 -0.00000000000E+00 -0.00000000000E+00 -0.42589825939E+03  0.42589825939E+03  0.00000000000E+00 0. -1.
         25    2    1    2    0    0  0.13088335297E+03  0.68395670937E+01 -0.36956128571E+02  0.18484589853E+03  0.12500007601E+03 0.  0.
          2    1    1    2  501    0 -0.34081871522E+02  0.23672438537E+02 -0.28884813702E+03  0.29181364700E+03  0.00000000000E+00 0. -1.
          1    1    1    2  502    0 -0.96801481446E+02 -0.30512005630E+02  0.79742159190E+02  0.12907486684E+03  0.00000000000E+00 0. -1.
         22    1    3    3    0    0  0.15417417164E+03  0.16191337496E+02 -0.38396713212E+02  0.15970642503E+03  0.00000000000E+00 0. -1.
         22    1    3    3    0    0 -0.23290818669E+02 -0.93517704020E+01  0.14405846414E+01  0.25139473503E+02  0.00000000000E+00 0. -1.
</event>
<event>
 7    1  0.6262315E-006  0.1479963E+03  0.7818608E-02  0.1392664E+00
          2   -1    0    0  502    0  0.00000000000E+00  0.00000000000E+00  0.58838520201E+03  0.58838520201E+03  0.00000000000E+00 0. -1.
          1   -1    0    0  501    0 -0.00000000000E+00 -0.00000000000E+00 -0.63406668179E+03  0.63406668179E+03  0.00000000000E+00 0. -1.
         25    2    1    2    0    0  0.10809444936E+03 -0.13048935111E+03  0.10964506796E+03  0.23740173739E+03  0.12500265297E+03 0.  0.
          2    1    1    2  501    0 -0.85201638916E+02  0.11960577927E+03 -0.56033038974E+03  0.57925383674E+03  0.00000000000E+00 0. -1.
          1    1    1    2  502    0 -0.22892810448E+02  0.10883571835E+02  0.40500384200E+03  0.40579630967E+03  0.00000000000E+00 0. -1.
         22    1    3    3    0    0  0.32811802678E+02 -0.11919644352E+03  0.10313177622E+03  0.16099866400E+03  0.00000000000E+00 0.  1.
         22    1    3    3    0    0  0.75282646687E+02 -0.11292907588E+02  0.65132917392E+01  0.76403073389E+02  0.00000000000E+00 0.  1.
</event>
<event>
 7    1  0.6262315E-006  0.1241511E+03  0.7818608E-02  0.1237627E+00
          2   -1    0    0  502    0  0.00000000000E+00  0.00000000000E+00  0.17138588345E+04  0.17138588345E+04  0.00000000000E+00 0. -1.
          1   -1    0    0  501    0 -0.00000000000E+00 -0.00000000000E+00 -0.21610908739E+03  0.21610908739E+03  0.00000000000E+00 0. -1.
         25    2    1    2    0    0 -0.68908741669E+02  0.13070600235E+02  0.67086410149E+03  0.68600644595E+03  0.12500778357E+03 0.  0.
          2    1    1    2  501    0 -0.86046520733E+02  0.89495710595E+02 -0.18077969538E+03  0.21930523069E+03  0.00000000000E+00 0. -1.
          1    1    1    2  502    0  0.15495526240E+03 -0.10256631083E+03  0.10076653410E+04  0.10246562452E+04  0.00000000000E+00 0. -1.
         22    1    3    3    0    0 -0.48321982453E+02  0.56892049886E+02  0.56103896672E+03  0.56598272192E+03  0.00000000000E+00 0. -1.
         22    1    3    3    0    0 -0.20586759216E+02 -0.43821449651E+02  0.10982513477E+03  0.12002372404E+03  0.00000000000E+00 0. -1.
</event>
<event>
 7    1  0.6262315E-006  0.6632985E+02  0.7818608E-02  0.1422469E+00
          2   -1    0    0  502    0  0.00000000000E+00  0.00000000000E+00  0.10644901444E+04  0.10644901444E+04  0.00000000000E+00 0. -1.
          1   -1    0    0  501    0 -0.00000000000E+00 -0.00000000000E+00 -0.24612789731E+04  0.24612789731E+04  0.00000000000E+00 0. -1.
         25    2    1    2    0    0 -0.26378647741E+02  0.31203451342E+01  0.43739691660E+01  0.12787537487E+03  0.12500964076E+03 0.  0.
          2    1    1    2  501    0  0.55071039548E+02 -0.37504781992E+02 -0.23985632026E+04  0.23994884590E+04  0.00000000000E+00 0. -1.
          1    1    1    2  502    0 -0.28692391806E+02  0.34384436858E+02  0.99740040475E+03  0.99840528356E+03  0.00000000000E+00 0. -1.
         22    1    3    3    0    0  0.19639287874E+02  0.54804770564E+02  0.69150754850E+01  0.58626638773E+02  0.00000000000E+00 0. -1.
         22    1    3    3    0    0 -0.46017935615E+02 -0.51684425430E+02 -0.25411063190E+01  0.69248736102E+02  0.00000000000E+00 0. -1.
</event>
<event>
 7    1  0.6262315E-006  0.1062063E+03  0.7818608E-02  0.1428501E+00
          2   -1    0    0  502    0  0.00000000000E+00  0.00000000000E+00  0.49825494376E+03  0.49825494376E+03  0.00000000000E+00 0. -1.
          1   -1    0    0  501    0 -0.00000000000E+00 -0.00000000000E+00 -0.84232056814E+03  0.84232056814E+03  0.00000000000E+00 0. -1.
         25    2    1    2    0    0  0.83222709040E+02  0.36139473704E+02 -0.45566334333E+03  0.48112978958E+03  0.12499884442E+03 0.  0.
          2    1    1    2  501    0 -0.10725486314E+03 -0.47797856034E+02 -0.36432166184E+03  0.38277736871E+03  0.00000000000E+00 0. -1.
          1    1    1    2  502    0  0.24032154095E+02  0.11658382330E+02  0.47591938080E+03  0.47666835361E+03  0.00000000000E+00 0. -1.
         22    1    3    3    0    0  0.90018990271E+02  0.18595713042E+02 -0.45287601018E+03  0.46211026796E+03  0.00000000000E+00 0.  1.
         22    1    3    3    0    0 -0.67962812309E+01  0.17543760662E+02 -0.27873331498E+01  0.19019521624E+02  0.00000000000E+00 0.  1.
</event>
<event>
 7    1  0.6262315E-006  0.3593631E+02  0.7818608E-02  0.1555702E+00
          2   -1    0    0  502    0  0.00000000000E+00  0.00000000000E+00  0.55375993309E+03  0.55375993309E+03  0.00000000000E+00 0. -1.
          1   -1    0    0  501    0 -0.00000000000E+00 -0.00000000000E+00 -0.26488617434E+02  0.26488617434E+02  0.00000000000E+00 0. -1.
         25    2    1    2    0    0 -0.30111082404E+01  0.24048225183E+02  0.20368266759E+03  0.24020740233E+03  0.12500233258E+03 0.  0.
          2    1    1    2  501    0 -0.29164342466E+02 -0.29118150538E+02  0.51264516787E+02  0.65775954905E+02  0.00000000000E+00 0. -1.
          1    1    1    2  502    0  0.32175450706E+02  0.50699253550E+01  0.27232413128E+03  0.27426519329E+03  0.00000000000E+00 0. -1.
         22    1    3    3    0    0 -0.52434672830E+02  0.21460533366E+02  0.40389891750E+02  0.69579398982E+02  0.00000000000E+00 0.  1.
         22    1    3    3    0    0  0.49423564590E+02  0.25876918178E+01  0.16329277584E+03  0.17062800335E+03  0.00000000000E+00 0.  1.
</event>
<event>
 7    1  0.6262315E-006  0.4001993E+02  0.7818608E-02  0.1546607E+00
          2   -1    0    0  502    0  0.00000000000E+00  0.00000000000E+00  0.31034348359E+03  0.31034348359E+03  0.00000000000E+00 0. -1.
          1   -1    0    0  501    0 -0.00000000000E+00 -0.00000000000E+00 -0.61525427198E+03  0.61525427198E+03  0.00000000000E+00 0. -1.
         25    2    1    2    0    0 -0.62236370093E+02  0.80827814569E+01 -0.90504644808E+02  0.16661146083E+03  0.12501836277E+03 0.  0.
          2    1    1    2  501    0  0.33872346443E+02 -0.20605542451E+02 -0.48500203068E+03  0.48661986602E+03  0.00000000000E+00 0. -1.
          1    1    1    2  502    0  0.28364023649E+02  0.12522760994E+02  0.27059588710E+03  0.27236642872E+03  0.00000000000E+00 0. -1.
         22    1    3    3    0    0 -0.35536642438E+02  0.66447099160E+02 -0.54745963717E+02  0.93140702627E+02  0.00000000000E+00 0. -1.
         22    1    3    3    0    0 -0.26699727655E+02 -0.58364317703E+02 -0.35758681090E+02  0.73470758204E+02  0.00000000000E+00 0. -1.
</event>
<event>
 7    1  0.6262315E-006  0.3824203E+02  0.7818608E-02  0.1573133E+00
          2   -1    0    0  502    0  0.00000000000E+00  0.00000000000E+00  0.21579359403E+02  0.21579359403E+02  0.00000000000E+00 0. -1.
          1   -1    0    0  501    0 -0.00000000000E+00 -0.00000000000E+00 -0.10577212008E+04  0.10577212008E+04  0.00000000000E+00 0. -1.
         25    2    1    2    0    0 -0.44214471867E+02  0.49885007065E+01 -0.35326500315E+03  0.37736070661E+03  0.12500054311E+03 0.  0.
          2    1    1    2  501    0  0.27508978667E+02 -0.26737546246E+02 -0.67093077763E+03  0.67202659818E+03  0.00000000000E+00 0. -1.
          1    1    1    2  502    0  0.16705493199E+02  0.21749045539E+02 -0.11946060598E+02  0.29913255402E+02  0.00000000000E+00 0. -1.
         22    1    3    3    0    0  0.41450452988E+02  0.19438753106E+02 -0.11836550472E+03  0.12691098409E+03  0.00000000000E+00 0.  1.
         22    1    3    3    0    0 -0.85664924855E+02 -0.14450252400E+02 -0.23489949843E+03  0.25044972252E+03  0.00000000000E+00 0.  1.
</event>
<event>
 7    1  0.6262315E-006  0.4641238E+02  0.7818608E-02  0.1530880E+00
          2   -1    0    0  502    0  0.00000000000E+00  0.00000000000E+00  0.64297757884E+02  0.64297757884E+02  0.00000000000E+00 0. -1.
          1   -1    0    0  501    0 -0.00000000000E+00 -0.00000000000E+00 -0.52412779822E+03  0.52412779822E+03  0.00000000000E+00 0. -1.
         25    2    1    2    0    0  0.12501019455E+02  0.56284042298E+02 -0.30706304277E+03  0.33650584589E+03  0.12499721267E+03 0.  0.
          2    1    1    2  501    0 -0.31158362782E+02 -0.33276047621E+02 -0.19504254622E+03  0.20029911072E+03  0.00000000000E+00 0. -1.
          1    1    1    2  502    0  0.18657343327E+02 -0.23007994677E+02  0.42275548655E+02  0.51620599504E+02  0.00000000000E+00 0. -1.
         22    1    3    3    0    0 -0.64686726080E+01 -0.18917188188E+02 -0.19999119111E+00  0.19993592242E+02  0.00000000000E+00 0. -1.
         22    1    3    3    0    0  0.18969692063E+02  0.75201230486E+02 -0.30686305158E+03  0.31651225364E+03  0.00000000000E+00 0. -1.
</event>
<event>
 7    1  0.6262315E-006  0.1551397E+03  0.7818608E-02  0.1197306E+00
          2   -1    0    0  502    0  0.00000000000E+00  0.00000000000E+00  0.19949017743E+04  0.19949017743E+04  0.00000000000E+00 0. -1.
          1   -1    0    0  501    0 -0.00000000000E+00 -0.00000000000E+00 -0.59507531943E+03  0.59507531943E+03  0.00000000000E+00 0. -1.
         25    2    1    2    0    0 -0.71717259034E+01 -0.15157903062E+03  0.40203722639E+03  0.44753427349E+03  0.12500143349E+03 0.  0.
          2    1    1    2  501    0  0.13714372669E+03  0.76466560123E+02 -0.55787552015E+03  0.57955209651E+03  0.00000000000E+00 0. -1.
          1    1    1    2  502    0 -0.12997200079E+03  0.75112470496E+02  0.15556647487E+04  0.15628907238E+04  0.00000000000E+00 0. -1.
         22    1    3    3    0    0  0.78381386776E+01  0.53582607352E+01  0.14967183577E+03  0.14997268351E+03  0.00000000000E+00 0. -1.
         22    1    3    3    0    0 -0.15009864581E+02 -0.15693729135E+03  0.25236539061E+03  0.29756158998E+03  0.00000000000E+00 0. -1.
</event>
<event>
 7    1  0.6262315E-006  0.1069331E+03  0.7818608E-02  0.1356145E+00
          2   -1    0    0  502    0  0.00000000000E+00  0.00000000000E+00  0.20112928323E+04  0.20112928323E+04  0.00000000000E+00 0. -1.
          1   -1    0    0  501    0 -0.00000000000E+00 -0.00000000000E+00 -0.96144089151E+02  0.96144089151E+02  0.00000000000E+00 0. -1.
         25    2    1    2    0    0  0.11854660943E+03  0.67242724015E+02  0.23853807760E+03  0.30182890444E+03  0.12500156218E+03 0.  0.
          2    1    1    2  501    0 -0.15208405117E+02 -0.44865684495E+02 -0.53963262408E+02  0.71807095200E+02  0.00000000000E+00 0. -1.
          1    1    1    2  502    0 -0.10333820431E+03 -0.22377039520E+02  0.17305739280E+04  0.17338009218E+04  0.00000000000E+00 0. -1.
         22    1    3    3    0    0  0.58472132747E+02 -0.31067301061E+02  0.11647741546E+03  0.13398192346E+03  0.00000000000E+00 0.  1.
         22    1    3    3    0    0  0.60074476683E+02  0.98310025075E+02  0.12206066214E+03  0.16784698097E+03  0.00000000000E+00 0.  1.
</event>
<event>
 7    1  0.6262315E-006  0.6387739E+02  0.7818608E-02  0.1419407E+00
          2   -1    0    0  502    0  0.00000000000E+00  0.00000000000E+00  0.62525980395E+03  0.62525980395E+03  0.00000000000E+00 0. -1.
          1   -1    0    0  501    0 -0.00000000000E+00 -0.00000000000E+00 -0.89623702813E+03  0.89623702813E+03  0.00000000000E+00 0. -1.
         25    2    1    2    0    0 -0.58331257138E+02  0.36946741823E+02 -0.67502701506E+01  0.14296109350E+03  0.12499884327E+03 0.  0.
          2    1    1    2  501    0  0.63247803328E+02  0.10407666050E+02 -0.81910993652E+03  0.82161407744E+03  0.00000000000E+00 0. -1.
          1    1    1    2  502    0 -0.49165461897E+01 -0.47354407872E+02  0.55488298250E+03  0.55692166113E+03  0.00000000000E+00 0. -1.
         22    1    3    3    0    0 -0.97292930643E+02  0.36212261691E+02 -0.59612097880E+01  0.10398450977E+03  0.00000000000E+00 0. -1.
         22    1    3    3    0    0  0.38961673505E+02  0.73448013126E+00 -0.78906036257E+00  0.38976583735E+02  0.00000000000E+00 0. -1.
</event>
<event>
 7    1  0.6262315E-006  0.7109537E+02  0.7818608E-02  0.1359371E+00
          2   -1    0    0  502    0  0.00000000000E+00  0.00000000000E+00  0.15282063230E+03  0.15282063230E+03  0.00000000000E+00 0. -1.
          1   -1    0    0  501    0 -0.00000000000E+00 -0.00000000000E+00 -0.83168517062E+03  0.83168517062E+03  0.00000000000E+00 0. -1.
         25    2    1    2    0    0  0.19379622277E+02  0.52828283070E+02 -0.26871712797E+03  0.30166627388E+03  0.12500899439E+03 0.  0.
          2    1    1    2  501    0  0.49565866844E+02 -0.60223542275E+02 -0.53466085701E+03  0.54032016640E+03  0.00000000000E+00 0. -1.
          1    1    1    2  502    0 -0.68945489120E+02  0.73952592044E+01  0.12451344666E+03  0.14251936264E+03  0.00000000000E+00 0. -1.
         22    1    3    3    0    0  0.70434643338E+02  0.24009730780E+02 -0.11323127169E+03  0.13549474914E+03  0.00000000000E+00 0.  1.
         22    1    3    3    0    0 -0.51055021062E+02  0.28818552290E+02 -0.15548585628E+03  0.16617152474E+03  0.00000000000E+00 0.  1.
</event>
<event>
 7    1  0.6262315E-006  0.8393781E+02  0.7818608E-02  0.1467279E+00
          2   -1    0    0  502    0  0.00000000000E+00  0.00000000000E+00  0.39776742190E+03  0.39776742190E+03  0.00000000000E+00 0. -1.
          1   -1    0    0  501    0 -0.00000000000E+00 -0.00000000000E+00 -0.14304418616E+04  0.14304418616E+04  0.00000000000E+00 0. -1.
         25    2    1    2    0    0  0.94434185315E+02 -0.42995392143E+02 -0.95032646636E+02  0.18820662897E+03  0.12499644859E+03 0.  0.
          2    1    1    2  501    0 -0.25165463061E+02 -0.32572116873E+01 -0.12837564049E+04  0.12840071718E+04  0.00000000000E+00 0. -1.
          1    1    1    2  502    0 -0.69268722253E+02  0.46252603830E+02  0.34611461183E+03  0.35599548279E+03  0.00000000000E+00 0. -1.
         22    1    3    3    0    0  0.72092879943E+02  0.22863171118E+02 -0.69082457668E+01  0.75946242775E+02  0.00000000000E+00 0. -1.
         22    1    3    3    0    0  0.22341305371E+02 -0.65858563261E+02 -0.88124400869E+02  0.11226038620E+03  0.00000000000E+00 0. -1.
</event>
<event>
 7    1  0.6262315E-006  0.4667289E+02  0.7818608E-02  0.1582923E+00
          2   -1    0    0  502    0  0.00000000000E+00  0.00000000000E+00  0.52621026647E+03  0.52621026647E+03  0.00000000000E+00 0. -1.
          1   -1    0    0  501    0 -0.00000000000E+00 -0.00000000000E+00 -0.43470087860E+02  0.43470087860E+02  0.00000000000E+00 0. -1.
         25    2    1    2    0    0 -0.53095852154E+02 -0.34455565872E+02  0.27325090607E+03  0.30707799236E+03  0.12499792072E+03 0.  0.
          2    1    1    2  501    0  0.32039402633E+02  0.32477178501E+02 -0.60565691537E+01  0.46021434945E+02  0.00000000000E+00 0. -1.
          1    1    1    2  502    0  0.21056449521E+02  0.19783873713E+01  0.21554584169E+03  0.21658092703E+03  0.00000000000E+00 0. -1.
         22    1    3    3    0    0 -0.36796244895E+02  0.21229267520E+02  0.23207425543E+03  0.23593029791E+03  0.00000000000E+00 0. -1.
         22    1    3    3    0    0 -0.16299607259E+02 -0.55684833392E+02  0.41176650640E+02  0.71147694444E+02  0.00000000000E+00 0. -1.
</event>
<event>
 7    1  0.6262315E-006  0.3550796E+02  0.7818608E-02  0.1566144E+00
          2   -1    0    0  502    0  0.00000000000E+00  0.00000000000E+00  0.19163863283E+04  0.19163863283E+04  0.00000000000E+00 0. -1.
          1   -1    0    0  501    0 -0.00000000000E+00 -0.00000000000E+00 -0.45297786598E+03  0.45297786598E+03  0.00000000000E+00 0. -1.
         25    2    1    2    0    0  0.44995000792E+02  0.29265831242E+02  0.14521809703E+04  0.14585393443E+04  0.12500563724E+03 0.  0.
          2    1    1    2  501    0 -0.35503293476E+02  0.94733687019E-01 -0.44858018570E+03  0.44998297282E+03  0.00000000000E+00 0. -1.
          1    1    1    2  502    0 -0.94917073161E+01 -0.29360564929E+02  0.45980767774E+03  0.46084187721E+03  0.00000000000E+00 0. -1.
         22    1    3    3    0    0  0.48527945801E+02  0.75328216017E+02  0.99823618286E+03  0.10022498583E+04  0.00000000000E+00 0. -1.
         22    1    3    3    0    0 -0.35329450092E+01 -0.46062384776E+02  0.45394478743E+03  0.45628948599E+03  0.00000000000E+00 0. -1.
</event>
<event>
 7    1  0.6262315E-006  0.6767486E+02  0.7818608E-02  0.1409811E+00
          2   -1    0    0  502    0  0.00000000000E+00  0.00000000000E+00  0.31259248685E+03  0.31259248685E+03  0.00000000000E+00 0. -1.
          1   -1    0    0  501    0 -0.00000000000E+00 -0.00000000000E+00 -0.13912440621E+04  0.13912440621E+04  0.00000000000E+00 0. -1.
         25    2    1    2    0    0 -0.44478937307E+02 -0.29423160165E+02  0.12868310791E+03  0.18715848859E+03  0.12499943750E+03 0.  0.
          2    1    1    2  501    0  0.22656780472E+02 -0.42777897860E+02 -0.13523519013E+04  0.13532179954E+04  0.00000000000E+00 0. -1.
          1    1    1    2  502    0  0.21822156835E+02  0.72201058025E+02  0.14501721807E+03  0.16346006499E+03  0.00000000000E+00 0. -1.
         22    1    3    3    0    0 -0.66139333601E+02  0.30018144952E+02  0.68151111033E+02  0.99599570333E+02  0.00000000000E+00 0. -1.
         22    1    3    3    0    0  0.21660396295E+02 -0.59441305117E+02  0.60531996873E+02  0.87558918261E+02  0.00000000000E+00 0. -1.
</event>
<event>
 7    1  0.6262315E-006  0.1322819E+03  0.7818608E-02  0.1259954E+00
          2   -1    0    0  502    0  0.00000000000E+00  0.00000000000E+00  0.28666731339E+04  0.28666731339E+04  0.00000000000E+00 0. -1.
          1   -1    0    0  501    0 -0.00000000000E+00 -0.00000000000E+00 -0.28729518300E+03  0.28729518300E+03  0.00000000000E+00 0. -1.
         25    2    1    2    0    0  0.12841644915E+03  0.96018978180E+02  0.14001943923E+02  0.20379309620E+03  0.12500057217E+03 0.  0.
          2    1    1    2  501    0 -0.87116711894E+02  0.29658353579E+02 -0.17971050535E+03  0.20190295977E+03  0.00000000000E+00 0. -1.
          1    1    1    2  502    0 -0.41299737257E+02 -0.12567733176E+03  0.27450865124E+04  0.27482722610E+04  0.00000000000E+00 0. -1.
         22    1    3    3    0    0  0.13058342912E+03  0.11219405619E+03  0.36511142001E+02  0.17599034546E+03  0.00000000000E+00 0.  1.
         22    1    3    3    0    0 -0.21669799684E+01 -0.16175078007E+02 -0.22509198078E+02  0.27802750742E+02  0.00000000000E+00 0.  1.
</event>
<event>
 7    1  0.6262315E-006  0.6010086E+02  0.7818608E-02  0.1404971E+00
          2   -1    0    0  502    0  0.00000000000E+00  0.00000000000E+00  0.68451007889E+03  0.68451007889E+03  0.00000000000E+00 0. -1.
          1   -1    0    0  501    0 -0.00000000000E+00 -0.00000000000E+00 -0.87964549833E+03  0.87964549833E+03  0.00000000000E+00 0. -1.
         25    2    1    2    0    0 -0.68774708199E+02  0.88478541435E+02 -0.24888204423E+03  0.30020858495E+03  0.12499803900E+03 0.  0.
          2    1    1    2  501    0  0.26292698750E+02 -0.51056321134E+02 -0.60251610704E+03  0.60524682005E+03  0.00000000000E+00 0. -1.
          1    1    1    2  502    0  0.42482009450E+02 -0.37422220301E+02  0.65626273183E+03  0.65870017223E+03  0.00000000000E+00 0. -1.
         22    1    3    3    0    0  0.22742312677E+02 -0.16814177127E+02 -0.38385252619E+02  0.47679733189E+02  0.00000000000E+00 0. -1.
         22    1    3    3    0    0 -0.91517020877E+02  0.10529271856E+03 -0.21049679161E+03  0.25252885176E+03  0.00000000000E+00 0. -1.
</event>
<event>
 7    1  0.6262315E-006  0.6345462E+02  0.7818608E-02  0.1459722E+00
          2   -1    0    0  502    0  0.00000000000E+00  0.00000000000E+00  0.15847536272E+04  0.15847536272E+04  0.00000000000E+00 0. -1.
          1   -1    0    0  501    0 -0.00000000000E+00 -0.00000000000E+00 -0.48128475861E+03  0.48128475861E+03  0.00000000000E+00 0. -1.
         25    2    1    2    0    0 -0.68560946464E+02  0.14795646808E+02 -0.51076016829E+02  0.15216552839E+03  0.12500429589E+03 0.  0.
          2    1    1    2  501    0  0.60445830822E+02  0.19714010106E+02 -0.37679561105E+03  0.38212206579E+03  0.00000000000E+00 0. -1.
          1    1    1    2  502    0  0.81151156424E+01 -0.34509656914E+02  0.15313404965E+04  0.15317507916E+04  0.00000000000E+00 0. -1.
         22    1    3    3    0    0  0.13002552463E+02 -0.32321528100E+02  0.14138711403E+02  0.37598546640E+02  0.00000000000E+00 0. -1.
         22    1    3    3    0    0 -0.81563498928E+02  0.47117174908E+02 -0.65214728233E+02  0.11456698175E+03  0.00000000000E+00 0. -1.
</event>
<event>
 7    1  0.6262315E-006  0.1265636E+03  0.7818608E-02  0.1251227E+00
          2   -1    0    0  502    0  0.00000000000E+00  0.00000000000E+00  0.11797484300E+04  0.11797484300E+04  0.00000000000E+00 0. -1.
          1   -1    0    0  501    0 -0.00000000000E+00 -0.00000000000E+00 -0.12533750213E+04  0.12533750213E+04  0.00000000000E+00 0. -1.
         25    2    1    2    0    0 -0.58928478329E+02 -0.20251343970E+03 -0.11796380160E+03  0.27207449113E+03  0.12499924567E+03 0.  0.
          2    1    1    2  501    0  0.73744338454E+02  0.98703278434E+02 -0.10522603430E+04  0.10594490993E+04  0.00000000000E+00 0. -1.
          1    1    1    2  502    0 -0.14815860125E+02  0.10381016126E+03  0.10965975534E+04  0.11015998608E+04  0.00000000000E+00 0. -1.
         22    1    3    3    0    0 -0.82561005315E+02 -0.78641055329E+02 -0.28714679289E+02  0.11758089976E+03  0.00000000000E+00 0.  1.
         22    1    3    3    0    0  0.23632526986E+02 -0.12387238437E+03 -0.89249122308E+02  0.15449359137E+03  0.00000000000E+00 0.  1.
</event>
<event>
 7    1  0.6262315E-006  0.1333701E+03  0.7818608E-02  0.1377304E+00
          2   -1    0    0  502    0  0.00000000000E+00  0.00000000000E+00  0.25521392954E+03  0.25521392954E+03  0.00000000000E+00 0. -1.
          1   -1    0    0  501    0 -0.00000000000E+00 -0.00000000000E+00 -0.79492134184E+03  0.79492134184E+03  0.00000000000E+00 0. -1.
         25    2    1    2    0    0 -0.79329103782E+02  0.70385934959E+02 -0.35455545719E+03  0.39062003968E+03  0.12500862620E+03 0.  0.
          2    1    1    2  501    0 -0.31079603162E+02  0.69729832882E+01 -0.40249673877E+03  0.40375511012E+03  0.00000000000E+00 0. -1.
          1    1    1    2  502    0  0.11040870694E+03 -0.77358918247E+02  0.21734478367E+03  0.25576012158E+03  0.00000000000E+00 0. -1.
         22    1    3    3    0    0 -0.35029939034E+02  0.17690832105E+01 -0.27284280675E+03  0.27508802860E+03  0.00000000000E+00 0.  1.
         22    1    3    3    0    0 -0.44299164748E+02  0.68616851748E+02 -0.81712650448E+02  0.11553201108E+03  0.00000000000E+00 0.  1.
</event>
<event>
 7    1  0.6262315E-006  0.5300584E+02  0.7818608E-02  0.1538724E+00
          2   -1    0    0  502    0  0.00000000000E+00  0.00000000000E+00  0.17367412641E+04  0.17367412641E+04  0.00000000000E+00 0. -1.
          1   -1    0    0  501    0 -0.00000000000E+00 -0.00000000000E+00 -0.28299462044E+03  0.28299462044E+03  0.00000000000E+00 0. -1.
         25    2    1    2    0    0  0.38643239521E+02  0.66195045613E+02 -0.27523415707E+02  0.14919034150E+03  0.12500054224E+03 0.  0.
          2    1    1    2  501    0 -0.16802943258E+02 -0.18018410757E+02 -0.19343883101E+03  0.19500149581E+03  0.00000000000E+00 0. -1.
          1    1    1    2  502    0 -0.21840296262E+02 -0.48176634857E+02  0.16747088904E+04  0.16755440472E+04  0.00000000000E+00 0. -1.
         22    1    3    3    0    0  0.48511716258E+02  0.94551244803E+02  0.30845926694E+01  0.10631481186E+03  0.00000000000E+00 0.  1.
         22    1    3    3    0    0 -0.98684767370E+01 -0.28356199189E+02 -0.30608008376E+02  0.42875529645E+02  0.00000000000E+00 0.  1.
</event>
<event>
 7    1  0.6262315E-006  0.3931961E+02  0.7818608E-02  0.1609299E+00
          2   -1    0    0  502    0  0.00000000000E+00  0.00000000000E+00  0.20065405204E+02  0.20065405204E+02  0.00000000000E+00 0. -1.
          1   -1    0    0  501    0 -0.00000000000E+00 -0.00000000000E+00 -0.58369024255E+03  0.58369024255E+03  0.00000000000E+00 0. -1.
         25    2    1    2    0    0 -0.24404900624E+02 -0.30297402349E+02 -0.29216287598E+03  0.32015180556E+03  0.12499800293E+03 0.  0.
          2    1    1    2  501    0  0.18985582949E+02 -0.98817480748E+01 -0.20234173768E+03  0.20347058783E+03  0.00000000000E+00 0. -1.
          1    1    1    2  502    0  0.54193176745E+01  0.40179150423E+02 -0.69120223687E+02  0.80133254366E+02  0.00000000000E+00 0. -1.
         22    1    3    3    0    0 -0.60517478836E+01 -0.73402826568E+02 -0.23484262336E+03  0.24612122287E+03  0.00000000000E+00 0. -1.
         22    1    3    3    0    0 -0.18353152740E+02  0.43105424220E+02 -0.57320252622E+02  0.74030582689E+02  0.00000000000E+00 0. -1.
</event>
<event>
 7    1  0.6262315E-006  0.1557929E+03  0.7818608E-02  0.1326273E+00
          2   -1    0    0  502    0  0.00000000000E+00  0.00000000000E+00  0.55962260650E+03  0.55962260650E+03  0.00000000000E+00 0. -1.
          1   -1    0    0  501    0 -0.00000000000E+00 -0.00000000000E+00 -0.21489208141E+03  0.21489208141E+03  0.00000000000E+00 0. -1.
         25    2    1    2    0    0 -0.11530020387E+03 -0.11449517036E+03  0.10159994978E+02  0.20526142985E+03  0.12500299211E+03 0.  0.
          2    1    1    2  501    0  0.13393604832E+03  0.76743965241E+02 -0.64984892668E+02  0.16748593229E+03  0.00000000000E+00 0. -1.
          1    1    1    2  502    0 -0.18635844443E+02  0.37751205121E+02  0.39955542278E+03  0.40176732577E+03  0.00000000000E+00 0. -1.
         22    1    3    3    0    0 -0.94598713353E+02 -0.11515932906E+02  0.26608107578E+02  0.98942026802E+02  0.00000000000E+00 0. -1.
         22    1    3    3    0    0 -0.20701490521E+02 -0.10297923746E+03 -0.16448112600E+02  0.10631940305E+03  0.00000000000E+00 0. -1.
</event>
<event>
 7    1  0.6262315E-006  0.1446103E+03  0.7818608E-02  0.1272456E+00
          2   -1    0    0  502    0  0.00000000000E+00  0.00000000000E+00  0.36387595649E+03  0.36387595649E+03  0.00000000000E+00 0. -1.
          1   -1    0    0  501    0 -0.00000000000E+00 -0.00000000000E+00 -0.51309311603E+03  0.51309311603E+03  0.00000000000E+00 0. -1.
         25    2    1    2    0    0 -0.23638477323E+02 -0.10957575605E+03  0.15339059163E+03  0.22743028896E+03  0.12502095348E+03 0.  0.
          2    1    1    2  501    0  0.98176887080E+02  0.11001290687E+03 -0.45586366514E+03  0.47911712768E+03  0.00000000000E+00 0. -1.
          1    1    1    2  502    0 -0.74538409757E+02 -0.43715082115E+00  0.15325591397E+03  0.17042165589E+03  0.00000000000E+00 0. -1.
         22    1    3    3    0    0  0.30631784692E+02  0.10526689856E+02  0.13088099857E+02  0.34934449912E+02  0.00000000000E+00 0. -1.
         22    1    3    3    0    0 -0.54270262015E+02 -0.12010244591E+03  0.14030249177E+03  0.19249583905E+03  0.00000000000E+00 0. -1.
</event>
<event>
 7    1  0.6262315E-006  0.1205700E+03  0.7818608E-02  0.1419771E+00
          2   -1    0    0  502    0  0.00000000000E+00  0.00000000000E+00  0.88048652339E+03  0.88048652339E+03  0.00000000000E+00 0. -1.
          1   -1    0    0  501    0 -0.00000000000E+00 -0.00000000000E+00 -0.14702571064E+04  0.14702571064E+04  0.00000000000E+00 0. -1.
         25    2    1    2    0    0 -0.10729177910E+03  0.10198238138E+02 -0.45692066657E+01  0.16511207737E+03  0.12500236205E+03 0.  0.
          2    1    1    2  501    0  0.11626797093E+03 -0.33694466163E+02 -0.13825735307E+04  0.13878627907E+04  0.00000000000E+00 0. -1.
          1    1    1    2  502    0 -0.89761918224E+01  0.23496228025E+02  0.79737215430E+03  0.79776876174E+03  0.00000000000E+00 0. -1.
         22    1    3    3    0    0  0.24786753399E+02  0.15658115428E+02 -0.14188828833E+02  0.32571192586E+02  0.00000000000E+00 0. -1.
         22    1    3    3    0    0 -0.13207853250E+03 -0.54598772903E+01  0.96196221671E+01  0.13254088478E+03  0.00000000000E+00 0. -1.
</event>
<event>
 7    1  0.6262315E-006  0.2167143E+03  0.7818608E-02  0.1213229E+00
          2   -1    0    0  502    0  0.00000000000E+00  0.00000000000E+00  0.25958009311E+04  0.25958009311E+04  0.00000000000E+00 0. -1.
          1   -1    0    0  501    0 -0.00000000000E+00 -0.00000000000E+00 -0.99263462011E+03  0.99263462011E+03  0.00000000000E+00 0. -1.
         25    2    1    2    0    0  0.21540401215E+03  0.18372550325E+03 -0.36755078764E+02  0.31165796132E+03  0.12500320014E+03 0.  0.
          2    1    1    2  501    0 -0.12609038618E+03 -0.16888953525E+03 -0.80400652084E+03  0.83117323475E+03  0.00000000000E+00 0. -1.
          1    1    1    2  502    0 -0.89313625975E+02 -0.14835967998E+02  0.24439279106E+04  0.24456043552E+04  0.00000000000E+00 0. -1.
         22    1    3    3    0    0  0.74117283832E+02  0.10545349510E+03  0.36994171737E+02  0.13409839721E+03  0.00000000000E+00 0.  1.
         22    1    3    3    0    0  0.14128672832E+03  0.78272008145E+02 -0.73749250501E+02  0.17755956411E+03  0.00000000000E+00 0.  1.
</event>
<event>
 7    1  0.6262315E-006  0.1607588E+03  0.7818608E-02  0.1326344E+00
          2   -1    0    0  502    0  0.00000000000E+00  0.00000000000E+00  0.16625572712E+04  0.16625572712E+04  0.00000000000E+00 0. -1.
          1   -1    0    0  501    0 -0.00000000000E+00 -0.00000000000E+00 -0.16948579152E+04  0.16948579152E+04  0.00000000000E+00 0. -1.
         25    2    1    2    0    0 -0.16610386638E+02 -0.14682417376E+03  0.92188510377E+01  0.19376123611E+03  0.12500074584E+03 0.  0.
          2    1    1    2  501    0  0.57170670149E+02  0.15099565748E+03 -0.15982525217E+04  0.16063870322E+04  0.00000000000E+00 0. -1.
          1    1    1    2  502    0 -0.40560283511E+02 -0.41714837223E+01  0.15567330267E+04  0.15572669181E+04  0.00000000000E+00 0. -1.
         22    1    3    3    0    0 -0.17048656114E+02 -0.16888644286E+03  0.16450039293E+02  0.17053999838E+03  0.00000000000E+00 0.  1.
         22    1    3    3    0    0  0.43826947604E+00  0.22062269099E+02 -0.72311882552E+01  0.23221237726E+02  0.00000000000E+00 0.  1.
</event>
<event>
 7    1  0.6262315E-006  0.7086014E+02  0.7818608E-02  0.1460289E+00
          2   -1    0    0  502    0  0.00000000000E+00  0.00000000000E+00  0.27736706512E+04  0.27736706512E+04  0.00000000000E+00 0. -1.
          1   -1    0    0  501    0 -0.00000000000E+00 -0.00000000000E+00 -0.56752338465E+02  0.56752338465E+02  0.00000000000E+00 0. -1.
         25    2    1    2    0    0 -0.45399105222E+02  0.35825807596E+02  0.13882533972E+04  0.13950693966E+04  0.12500623659E+03 0.  0.
          2    1    1    2  501    0  0.31104046950E+02 -0.64025225753E+02 -0.29332953330E+02  0.76987748509E+02  0.00000000000E+00 0. -1.
          1    1    1    2  502    0  0.14295058272E+02  0.28199418157E+02  0.13579978689E+04  0.13583658446E+04  0.00000000000E+00 0. -1.
         22    1    3    3    0    0 -0.82497812514E+02  0.51447638710E+02  0.94193909346E+03  0.94694350644E+03  0.00000000000E+00 0. -1.
         22    1    3    3    0    0  0.37098707292E+02 -0.15621831114E+02  0.44631430372E+03  0.44812589012E+03  0.00000000000E+00 0. -1.
</event>
<event>
 7    1  0.6262315E-006  0.1202189E+03  0.7818608E-02  0.1433972E+00
          2   -1    0    0  502    0  0.00000000000E+00  0.00000000000E+00  0.30704832948E+03  0.30704832948E+03  0.00000000000E+00 0. -1.
          1   -1    0    0  501    0 -0.00000000000E+00 -0.00000000000E+00 -0.24225895081E+03  0.24225895081E+03  0.00000000000E+00 0. -1.
         25    2    1    2    0    0 -0.24544807385E+02  0.10039337695E+03  0.39761846451E+02  0.16700027060E+03  0.12500723276E+03 0.  0.
          2    1    1    2  501    0 -0.10777650136E+02  0.19910476118E+02 -0.15846156873E+03  0.16007077674E+03  0.00000000000E+00 0. -1.
          1    1    1    2  502    0  0.35322457522E+02 -0.12030385307E+03  0.18348910095E+03  0.22223623295E+03  0.00000000000E+00 0. -1.
         22    1    3    3    0    0 -0.49755256557E+02 -0.11679082636E+01 -0.10573956076E+02  0.50879839935E+02  0.00000000000E+00 0.  1.
         22    1    3    3    0    0  0.25210449171E+02  0.10156128522E+03  0.50335802526E+02  0.11612043067E+03  0.00000000000E+00 0.  1.
</event>
<event>
 7    1  0.6262315E-006  0.3948429E+02  0.7818608E-02  0.1561140E+00
          2   -1    0    0  502    0  0.00000000000E+00  0.00000000000E+00  0.16703070343E+03  0.16703070343E+03  0.00000000000E+00 0. -1.
          1   -1    0    0  501    0 -0.00000000000E+00 -0.00000000000E+00 -0.44267842023E+03  0.44267842023E+03  0.00000000000E+00 0. -1.
         25    2    1    2    0    0 -0.52970132507E+01  0.45146412595E+02 -0.13690102133E+03  0.19087936860E+03  0.12500714699E+03 0.  0.
          2    1    1    2  501    0 -0.20947471319E+02 -0.33682437813E+02 -0.27589067675E+03  0.27872740928E+03  0.00000000000E+00 0. -1.
          1    1    1    2  502    0  0.26244484570E+02 -0.11463974783E+02  0.13714398128E+03  0.14010234577E+03  0.00000000000E+00 0. -1.
         22    1    3    3    0    0 -0.29527602110E+02 -0.37018134067E+02 -0.48889725433E+02  0.68061933481E+02  0.00000000000E+00 0.  1.
         22    1    3    3    0    0  0.24230588860E+02  0.82164546663E+02 -0.88011295897E+02  0.12281743512E+03  0.00000000000E+00 0.  1.
</event>
<event>
 7    1  0.6262315E-006  0.1393934E+03  0.7818608E-02  0.1217664E+00
          2   -1    0    0  502    0  0.00000000000E+00  0.00000000000E+00  0.13119585760E+04  0.13119585760E+04  0.00000000000E+00 0. -1.
          1   -1    0    0  501    0 -0.00000000000E+00 -0.00000000000E+00 -0.23307797534E+03  0.23307797534E+03  0.00000000000E+00 0. -1.
         25    2    1    2    0    0  0.10644663868E+03 -0.13165029285E+03  0.23867742218E+03  0.31820558124E+03  0.12500077430E+03 0.  0.
          2    1    1    2  501    0  0.35969679903E+02  0.12940103408E+03 -0.16433975215E+03  0.21224042883E+03  0.00000000000E+00 0. -1.
          1    1    1    2  502    0 -0.14241631858E+03  0.22492587769E+01  0.10045429307E+04  0.10145905413E+04  0.00000000000E+00 0. -1.
         22    1    3    3    0    0  0.10678222434E+02  0.75041602933E+01  0.96595199256E+02  0.97472916112E+02  0.00000000000E+00 0. -1.
         22    1    3    3    0    0  0.95768416243E+02 -0.13915445315E+03  0.14208222293E+03  0.22073266512E+03  0.00000000000E+00 0. -1.
</event>
<event>
 7    1  0.6262315E-006  0.4022451E+02  0.7818608E-02  0.1563282E+00
          2   -1    0    0  502    0  0.00000000000E+00  0.00000000000E+00  0.22712705532E+04  0.22712705532E+04  0.00000000000E+00 0. -1.
          1   -1    0    0  501    0 -0.00000000000E+00 -0.00000000000E+00 -0.17501792602E+03  0.17501792602E+03  0.00000000000E+00 0. -1.
         25    2    1    2    0    0  0.30201272463E+02 -0.61253799053E+01  0.19984269270E+04  0.20025694202E+04  0.12499785253E+03 0.  0.
          2    1    1    2  501    0 -0.34128663482E+02 -0.21329182657E+02 -0.16987922252E+03  0.17458135624E+03  0.00000000000E+00 0. -1.
          1    1    1    2  502    0  0.39273910183E+01  0.27454562562E+02  0.26770492275E+03  0.26913770280E+03  0.00000000000E+00 0. -1.
         22    1    3    3    0    0  0.49163965884E+02  0.30518068457E+02  0.46488048812E+03  0.46846805257E+03  0.00000000000E+00 0.  1.
         22    1    3    3    0    0 -0.18962693420E+02 -0.36643448362E+02  0.15335464389E+04  0.15341013676E+04  0.00000000000E+00 0.  1.
</event>
<event>
 7    1  0.6262315E-006  0.6771791E+02  0.7818608E-02  0.1529961E+00
          2   -1    0    0  502    0  0.00000000000E+00  0.00000000000E+00  0.62243282610E+03  0.62243282610E+03  0.00000000000E+00 0. -1.
          1   -1    0    0  501    0 -0.00000000000E+00 -0.00000000000E+00 -0.87975257353E+03  0.87975257353E+03  0.00000000000E+00 0. -1.
         25    2    1    2    0    0 -0.71479863882E+02  0.15968500722E+02  0.41328244814E+03  0.43794117609E+03  0.12500291126E+03 0.  0.
          2    1    1    2  501    0  0.59423570340E+02 -0.32456542848E+02 -0.86556755315E+03  0.86821182723E+03  0.00000000000E+00 0. -1.
          1    1    1    2  502    0  0.12056293542E+02  0.16488042126E+02  0.19496535757E+03  0.19603239631E+03  0.00000000000E+00 0. -1.
         22    1    3    3    0    0 -0.89371324081E+02 -0.24264427371E+02  0.34056799861E+03  0.35293421155E+03  0.00000000000E+00 0. -1.
         22    1    3    3    0    0  0.17891460199E+02  0.40232928093E+02  0.72714449524E+02  0.85006964542E+02  0.00000000000E+00 0. -1.
</event>
<event>
 7    1  0.6262315E-006  0.5662743E+02  0.7818608E-02  0.1459145E+00
          2   -1    0    0  502    0  0.00000000000E+00  0.00000000000E+00  0.44465021286E+03  0.44465021286E+03  0.00000000000E+00 0. -1.
          1   -1    0    0  501    0 -0.00000000000E+00 -0.00000000000E+00 -0.83564870236E+03  0.83564870236E+03  0.00000000000E+00 0. -1.
         25    2    1    2    0    0  0.68236198711E+02  0.30869272496E+02 -0.19749727969E+03  0.24541947001E+03  0.12496579522E+03 0.  0.
          2    1    1    2  501    0 -0.55762008950E+02  0.70225510790E+01 -0.61195400295E+03  0.61452942940E+03  0.00000000000E+00 0. -1.
          1    1    1    2  502    0 -0.12474189761E+02 -0.37891823575E+02  0.41845279315E+03  0.42035001582E+03  0.00000000000E+00 0. -1.
         22    1    3    3    0    0  0.14150104899E+02 -0.47205000931E+02 -0.84370958385E+02  0.97708731444E+02  0.00000000000E+00 0. -1.
         22    1    3    3    0    0  0.54086093812E+02  0.78074273428E+02 -0.11312632130E+03  0.14771073856E+03  0.00000000000E+00 0. -1.
</event>
<event>
 7    1  0.6262315E-006  0.9669725E+02  0.7818608E-02  0.1369133E+00
          2   -1    0    0  502    0  0.00000000000E+00  0.00000000000E+00  0.19174690020E+03  0.19174690020E+03  0.00000000000E+00 0. -1.
          1   -1    0    0  501    0 -0.00000000000E+00 -0.00000000000E+00 -0.19930269684E+04  0.19930269684E+04  0.00000000000E+00 0. -1.
         25    2    1    2    0    0 -0.13145396621E+03 -0.68345113252E+01 -0.96436239388E+03  0.98129941508E+03  0.12500743788E+03 0.  0.
          2    1    1    2  501    0  0.86580130466E+02  0.20782734693E+02 -0.10152030030E+04  0.10191001807E+04  0.00000000000E+00 0. -1.
          1    1    1    2  502    0  0.44873835749E+02 -0.13948223367E+02  0.17828532865E+03  0.18437427283E+03  0.00000000000E+00 0. -1.
         22    1    3    3    0    0 -0.97812374162E+02 -0.16476317908E+02 -0.91732141546E+03  0.92266858019E+03  0.00000000000E+00 0.  1.
         22    1    3    3    0    0 -0.33641592053E+02  0.96418065829E+01 -0.47040978416E+02  0.58630834894E+02  0.00000000000E+00 0.  1.
</event>
<event>
 7    1  0.6262315E-006  0.8686826E+02  0.7818608E-02  0.1455162E+00
          2   -1    0    0  502    0  0.00000000000E+00  0.00000000000E+00  0.67812676154E+03  0.67812676154E+03  0.00000000000E+00 0. -1.
          1   -1    0    0  501    0 -0.00000000000E+00 -0.00000000000E+00 -0.24375688463E+04  0.24375688463E+04  0.00000000000E+00 0. -1.
         25    2    1    2    0    0 -0.38329971322E+02 -0.86342849695E+02  0.10690793057E+03  0.18967924733E+03  0.12499854740E+03 0.  0.
          2    1    1    2  501    0  0.11560011612E+02  0.86075142055E+02 -0.23950574647E+04  0.23966315577E+04  0.00000000000E+00 0. -1.
          1    1    1    2  502    0  0.26769959710E+02  0.26770764009E+00  0.52870744940E+03  0.52938480282E+03  0.00000000000E+00 0. -1.
         22    1    3    3    0    0 -0.73579120507E+02 -0.84757083931E+02  0.10600190407E+03  0.15438281613E+03  0.00000000000E+00 0.  1.
         22    1    3    3    0    0  0.35249149185E+02 -0.15857657645E+01  0.90602650665E+00  0.35296431198E+02  0.00000000000E+00 0.  1.
</event>
<event>
 7    1  0.6262315E-006  0.7595018E+02  0.7818608E-02  0.1376619E+00
          2   -1    0    0  502    0  0.00000000000E+00  0.00000000000E+00  0.13128273361E+03  0.13128273361E+03  0.00000000000E+00 0. -1.
          1   -1    0    0  501    0 -0.00000000000E+00 -0.00000000000E+00 -0.22297131778E+04  0.22297131778E+04  0.00000000000E+00 0. -1.
         25    2    1    2    0    0 -0.18499987627E+02  0.42394896997E+02 -0.19071634099E+03  0.23267286586E+03  0.12499745178E+03 0.  0.
          2    1    1    2  501    0 -0.29541573611E+02 -0.71649509698E+02 -0.20100522744E+04  0.20115457993E+04  0.00000000000E+00 0. -1.
          1    1    1    2  502    0  0.48041561238E+02  0.29254612701E+02  0.10233817118E+03  0.11677724629E+03  0.00000000000E+00 0. -1.
         22    1    3    3    0    0 -0.28439253118E+02 -0.39421340065E+02 -0.50967189266E+02  0.70430728749E+02  0.00000000000E+00 0.  1.
         22    1    3    3    0    0  0.99392654909E+01  0.81816237062E+02 -0.13974915173E+03  0.16224213711E+03  0.00000000000E+00 0.  1.
</event>
<event>
 7    1  0.6262315E-006  0.8941617E+02  0.7818608E-02  0.1397738E+00
          2   -1    0    0  502    0  0.00000000000E+00  0.00000000000E+00  0.16564014736E+04  0.16564014736E+04  0.00000000000E+00 0. -1.
          1   -1    0    0  501    0 -0.00000000000E+00 -0.00000000000E+00 -0.17448597162E+03  0.17448597162E+03  0.00000000000E+00 0. -1.
         25    2    1    2    0    0  0.12649019750E+03  0.36512040844E+01  0.66551341734E+03  0.68887301945E+03  0.12499930767E+03 0.  0.
          2    1    1    2  501    0 -0.87618733282E+02 -0.14252738559E+02 -0.15025467650E+03  0.17451833941E+03  0.00000000000E+00 0. -1.
          1    1    1    2  502    0 -0.38871464216E+02  0.10601534475E+02  0.96665676110E+03  0.96749608632E+03  0.00000000000E+00 0. -1.
         22    1    3    3    0    0  0.58800253904E+02  0.57497798931E+02  0.43413875638E+03  0.44185962311E+03  0.00000000000E+00 0.  1.
         22    1    3    3    0    0  0.67689943594E+02 -0.53846594847E+02  0.23137466095E+03  0.24701339634E+03  0.00000000000E+00 0.  1.
</event>
<event>
 7    1  0.6262315E-006  0.1027211E+03  0.7818608E-02  0.1424714E+00
          2   -1    0    0  502    0  0.00000000000E+00  0.00000000000E+00  0.26624114935E+03  0.26624114935E+03  0.00000000000E+00 0. -1.
          1   -1    0    0  501    0 -0.00000000000E+00 -0.00000000000E+00 -0.99123816083E+03  0.99123816083E+03  0.00000000000E+00 0. -1.
         25    2    1    2    0    0 -0.10244910142E+03  0.14040086049E+02 -0.18533466799E+02  0.16327940680E+03  0.12499493148E+03 0.  0.
          2    1    1    2  501    0  0.94213518016E+02 -0.41246111089E+02 -0.89633319367E+03  0.90221428870E+03  0.00000000000E+00 0. -1.
          1    1    1    2  502    0  0.82355834078E+01  0.27206025039E+02  0.18986964900E+03  0.19198561467E+03  0.00000000000E+00 0. -1.
         22    1    3    3    0    0 -0.68105148732E+02 -0.80220672086E-01  0.50572502170E+02  0.84828625445E+02  0.00000000000E+00 0. -1.
         22    1    3    3    0    0 -0.34343952691E+02  0.14120306722E+02 -0.69105968970E+02  0.78450781358E+02  0.00000000000E+00 0. -1.
</event>
<event>
 7    1  0.6262315E-006  0.5999963E+02  0.7818608E-02  0.1423120E+00
          2   -1    0    0  502    0  0.00000000000E+00  0.00000000000E+00  0.51161982053E+03  0.51161982053E+03  0.00000000000E+00 0. -1.
          1   -1    0    0  501    0 -0.00000000000E+00 -0.00000000000E+00 -0.17380271172E+03  0.17380271172E+03  0.00000000000E+00 0. -1.
         25    2    1    2    0    0 -0.10727504802E+03  0.72656525084E+01 -0.61407492879E+02  0.17594624334E+03  0.12500189890E+03 0.  0.
          2    1    1    2  501    0  0.49110222154E+02  0.38628395994E+01 -0.41731114887E+02  0.64561764222E+02  0.00000000000E+00 0. -1.
          1    1    1    2  502    0  0.58164825871E+02 -0.11128492108E+02  0.44095571658E+03  0.44491452470E+03  0.00000000000E+00 0. -1.
         22    1    3    3    0    0 -0.77081437913E+02  0.62891335835E+02 -0.51035513293E+02  0.11181007026E+03  0.00000000000E+00 0. -1.
         22    1    3    3    0    0 -0.30193610111E+02 -0.55625683327E+02 -0.10371979586E+02  0.64136173082E+02  0.00000000000E+00 0. -1.
</event>
<event>
 7    1  0.6262315E-006  0.8251360E+02  0.7818608E-02  0.1325229E+00
          2   -1    0    0  502    0  0.00000000000E+00  0.00000000000E+00  0.37350240741E+03  0.37350240741E+03  0.00000000000E+00 0. -1.
          1   -1    0    0  501    0 -0.00000000000E+00 -0.00000000000E+00 -0.47255236548E+03  0.47255236548E+03  0.00000000000E+00 0. -1.
         25    2    1    2    0    0 -0.11058722973E+03 -0.55356897642E+02 -0.24575857634E+03  0.30218422401E+03  0.12499642355E+03 0.  0.
          2    1    1    2  501    0  0.77681450175E+02 -0.20048819204E+02 -0.18524607041E+03  0.20187240885E+03  0.00000000000E+00 0. -1.
          1    1    1    2  502    0  0.32905779551E+02  0.75405716846E+02  0.33195468867E+03  0.34199814004E+03  0.00000000000E+00 0. -1.
         22    1    3    3    0    0 -0.93957726623E+02 -0.70302884823E+02 -0.25282837676E+03  0.27873417104E+03  0.00000000000E+00 0. -1.
         22    1    3    3    0    0 -0.16629503103E+02  0.14945987182E+02  0.70698004249E+01  0.23450052971E+02  0.00000000000E+00 0. -1.
</event>
<event>
 7    1  0.6262315E-006  0.4757053E+02  0.7818608E-02  0.1459878E+00
          2   -1    0    0  502    0  0.00000000000E+00  0.00000000000E+00  0.12557843952E+02  0.12557843952E+02  0.00000000000E+00 0. -1.
          1   -1    0    0  501    0 -0.00000000000E+00 -0.00000000000E+00 -0.16806948716E+04  0.16806948716E+04  0.00000000000E+00 0. -1.
         25    2    1    2    0    0 -0.33380292032E+01  0.97178728733E+00 -0.50244625613E+03  0.51778322663E+03  0.12504056409E+03 0.  0.
          2    1    1    2  501    0  0.50624239357E+02  0.42214311113E+01 -0.10373997603E+04  0.10386428148E+04  0.00000000000E+00 0. -1.
          1    1    1    2  502    0 -0.47286210154E+02 -0.51932183986E+01 -0.12829101115E+03  0.13682667404E+03  0.00000000000E+00 0. -1.
         22    1    3    3    0    0 -0.46194296685E+02  0.13399033602E+02 -0.82685307689E+02  0.95657238384E+02  0.00000000000E+00 0.  1.
         22    1    3    3    0    0  0.42856267482E+02 -0.12427246315E+02 -0.41976094844E+03  0.42212598824E+03  0.00000000000E+00 0.  1.
</event>
<event>
 7    1  0.6262315E-006  0.3625728E+02  0.7818608E-02  0.1574670E+00
          2   -1    0    0  502    0  0.00000000000E+00  0.00000000000E+00  0.12564208288E+04  0.12564208288E+04  0.00000000000E+00 0. -1.
          1   -1    0    0  501    0 -0.00000000000E+00 -0.00000000000E+00 -0.59043447848E+02  0.59043447848E+02  0.00000000000E+00 0. -1.
         25    2    1    2    0    0 -0.37569095333E+01 -0.37112050716E+02  0.32090416978E+03  0.34640414240E+03  0.12499970007E+03 0.  0.
          2    1    1    2  501    0  0.27178116335E+02  0.90656693979E+01 -0.41462107782E+02  0.50397844705E+02  0.00000000000E+00 0. -1.
          1    1    1    2  502    0 -0.23421206802E+02  0.28046381318E+02  0.91793531897E+03  0.91866228955E+03  0.00000000000E+00 0. -1.
         22    1    3    3    0    0 -0.51062027446E+02  0.20778912862E+02  0.12058342127E+03  0.13258753844E+03  0.00000000000E+00 0. -1.
         22    1    3    3    0    0  0.47305117913E+02 -0.57890963578E+02  0.20032074851E+03  0.21381660396E+03  0.00000000000E+00 0. -1.
</event>
<event>
 7    1  0.6262315E-006  0.7749471E+02  0.7818608E-02  0.1362187E+00
          2   -1    0    0  502    0  0.00000000000E+00  0.00000000000E+00  0.15872025064E+04  0.15872025064E+04  0.00000000000E+00 0. -1.
          1   -1    0    0  501    0 -0.00000000000E+00 -0.00000000000E+00 -0.25692720034E+03  0.25692720034E+03  0.00000000000E+00 0. -1.
         25    2    1    2    0    0 -0.26007911636E+02  0.97550316132E+02  0.78169462072E+02  0.17868351452E+03  0.12499943167E+03 0.  0.
          2    1    1    2  501    0 -0.35743371551E+02 -0.50818008093E+02 -0.20094633107E+03  0.21033184858E+03  0.00000000000E+00 0. -1.
          1    1    1    2  502    0  0.61751283187E+02 -0.46732308039E+02  0.14530521751E+04  0.14551143437E+04  0.00000000000E+00 0. -1.
         22    1    3    3    0    0 -0.26881146582E+02  0.10311973863E+03  0.64692444061E+01  0.10676201413E+03  0.00000000000E+00 0.  1.
         22    1    3    3    0    0  0.87323494615E+00 -0.55694224994E+01  0.71700217666E+02  0.71921500399E+02  0.00000000000E+00 0.  1.
</event>
<event>
 7    1  0.6262315E-006  0.1838976E+03  0.7818608E-02  0.1194217E+00
          2   -1    0    0  502    0  0.00000000000E+00  0.00000000000E+00  0.84950883360E+03  0.84950883360E+03  0.00000000000E+00 0. -1.
          1   -1    0    0  501    0 -0.00000000000E+00 -0.00000000000E+00 -0.23216474188E+04  0.23216474188E+04  0.00000000000E+00 0. -1.
         25    2    1    2    0    0  0.11973334408E+03 -0.57566316739E+02 -0.51244014481E+03  0.54394116708E+03  0.12500854663E+03 0.  0.
          2    1    1    2  501    0 -0.20921628420E+03 -0.38098832469E+02 -0.17819502099E+04  0.17945945295E+04  0.00000000000E+00 0. -1.
          1    1    1    2  502    0  0.89482940128E+02  0.95665149207E+02  0.82225176958E+03  0.83262055579E+03  0.00000000000E+00 0. -1.
         22    1    3    3    0    0  0.95255790306E+02 -0.96812643520E+02 -0.39642221901E+03  0.41904287282E+03  0.00000000000E+00 0.  1.
         22    1    3    3    0    0  0.24477553770E+02  0.39246326782E+02 -0.11601792580E+03  0.12489829427E+03  0.00000000000E+00 0.  1.
</event>
<event>
 7    1  0.6262315E-006  0.4299381E+02  0.7818608E-02  0.1590239E+00
          2   -1    0    0  502    0  0.00000000000E+00  0.00000000000E+00  0.15715763816E+04  0.15715763816E+04  0.00000000000E+00 0. -1.
          1   -1    0    0  501    0 -0.00000000000E+00 -0.00000000000E+00 -0.37957258939E+03  0.37957258939E+03  0.00000000000E+00 0. -1.
         25    2    1    2    0    0  0.29154679909E+02  0.32408271064E+02  0.42675951360E+03  0.44682027756E+03  0.12499754636E+03 0.  0.
          2    1    1    2  501    0 -0.19679982162E+02  0.97289788525E+01 -0.36880473735E+03  0.36945756051E+03  0.00000000000E+00 0. -1.
          1    1    1    2  502    0 -0.94746977475E+01 -0.42137249917E+02  0.11340490159E+04  0.11348711329E+04  0.00000000000E+00 0. -1.
         22    1    3    3    0    0  0.74546566195E+02  0.93806854487E+01  0.18337657720E+03  0.19817203854E+03  0.00000000000E+00 0. -1.
         22    1    3    3    0    0 -0.45391886286E+02  0.23027585616E+02  0.24338293640E+03  0.24864823902E+03  0.00000000000E+00 0. -1.
</event>
<event>
 7    1  0.6262315E-006  0.6140751E+02  0.7818608E-02  0.1480208E+00
          2   -1    0    0  502    0  0.00000000000E+00  0.00000000000E+00  0.72274402125E+02  0.72274402125E+02  0.00000000000E+00 0. -1.
          1   -1    0    0  501    0 -0.00000000000E+00 -0.00000000000E+00 -0.44702018695E+03  0.44702018695E+03  0.00000000000E+00 0. -1.
         25    2    1    2    0    0 -0.39629514089E+02 -0.58221436862E+01 -0.16650506992E+03  0.21202212699E+03  0.12500019312E+03 0.  0.
          2    1    1    2  501    0  0.64401545223E+02 -0.13849812386E+02 -0.24792276951E+03  0.25652500068E+03  0.00000000000E+00 0. -1.
          1    1    1    2  502    0 -0.24772031135E+02  0.19671956072E+02  0.39682054603E+02  0.50747461412E+02  0.00000000000E+00 0. -1.
         22    1    3    3    0    0 -0.73951989445E-01 -0.15835552800E+02  0.17468547606E+02  0.23577963373E+02  0.00000000000E+00 0. -1.
         22    1    3    3    0    0 -0.39555562099E+02  0.10013409114E+02 -0.18397361752E+03  0.18844416361E+03  0.00000000000E+00 0. -1.
</event>
<event>
 7    1  0.6262315E-006  0.8630530E+02  0.7818608E-02  0.1462831E+00
          2   -1    0    0  502    0  0.00000000000E+00  0.00000000000E+00  0.30412246730E+02  0.30412246730E+02  0.00000000000E+00 0. -1.
          1   -1    0    0  501    0 -0.00000000000E+00 -0.00000000000E+00 -0.15805108999E+04  0.15805108999E+04  0.00000000000E+00 0. -1.
         25    2    1    2    0    0 -0.93161455780E+02 -0.18091715836E+02 -0.50263937025E+03  0.52657074042E+03  0.12499616439E+03 0.  0.
          2    1    1    2  501    0  0.85251790207E+02 -0.61335485219E+01 -0.10544647894E+04  0.10579231920E+04  0.00000000000E+00 0. -1.
          1    1    1    2  502    0  0.79096655732E+01  0.24225264358E+02  0.70055064582E+01  0.26429214204E+02  0.00000000000E+00 0. -1.
         22    1    3    3    0    0 -0.93565389648E+02 -0.60817391140E+02 -0.40280147530E+03  0.41797400124E+03  0.00000000000E+00 0. -1.
         22    1    3    3    0    0  0.40393386798E+00  0.42725675304E+02 -0.99837894949E+02  0.10859673918E+03  0.00000000000E+00 0. -1.
</event>
<event>
 7    1  0.6262315E-006  0.6716062E+02  0.7818608E-02  0.1423830E+00
          2   -1    0    0  502    0  0.00000000000E+00  0.00000000000E+00  0.32384411269E+04  0.32384411269E+04  0.00000000000E+00 0. -1.
          1   -1    0    0  501    0 -0.00000000000E+00 -0.00000000000E+00 -0.32289112949E+02  0.32289112949E+02  0.00000000000E+00 0. -1.
         25    2    1    2    0    0  0.95901707437E+02  0.29235056962E+02  0.34599322200E+03  0.38129838712E+03  0.12500129721E+03 0.  0.
          2    1    1    2  501    0 -0.61631200503E+02 -0.20061192147E+01  0.51247088845E+02  0.80179133849E+02  0.00000000000E+00 0. -1.
          1    1    1    2  502    0 -0.34270506934E+02 -0.27228937747E+02  0.28089117031E+04  0.28092527189E+04  0.00000000000E+00 0. -1.
         22    1    3    3    0    0  0.10356587657E+03  0.64080250924E+02  0.29414532488E+03  0.31836086678E+03  0.00000000000E+00 0. -1.
         22    1    3    3    0    0 -0.76641691291E+01 -0.34845193962E+02  0.51847897123E+02  0.62937520342E+02  0.00000000000E+00 0. -1.
</event>
<event>
 7    1  0.6262315E-006  0.7706372E+02  0.7818608E-02  0.1369394E+00
          2   -1    0    0  502    0  0.00000000000E+00  0.00000000000E+00  0.43960555076E+03  0.43960555076E+03  0.00000000000E+00 0. -1.
          1   -1    0    0  501    0 -0.00000000000E+00 -0.00000000000E+00 -0.32243416968E+03  0.32243416968E+03  0.00000000000E+00 0. -1.
         25    2    1    2    0    0  0.44559820409E+02 -0.20104828354E+02 -0.13569093439E+03  0.19085879324E+03  0.12500107025E+03 0.  0.
          2    1    1    2  501    0 -0.53094567032E+02  0.78318391906E+02 -0.14272606066E+03  0.17124115146E+03  0.00000000000E+00 0. -1.
          1    1    1    2  502    0  0.85347466238E+01 -0.58213563553E+02  0.39558837614E+03  0.39993977574E+03  0.00000000000E+00 0. -1.
         22    1    3    3    0    0 -0.25580515067E+02 -0.19389326891E+02 -0.11248604351E+03  0.11697614600E+03  0.00000000000E+00 0.  1.
         22    1    3    3    0    0  0.70140335476E+02 -0.71550146238E+00 -0.23204890883E+02  0.73882647244E+02  0.00000000000E+00 0.  1.
</event>
<event>
 7    1  0.6262315E-006  0.1386537E+03  0.7818608E-02  0.1344729E+00
          2   -1    0    0  502    0  0.00000000000E+00  0.00000000000E+00  0.12764378199E+03  0.12764378199E+03  0.00000000000E+00 0. -1.
          1   -1    0    0  501    0 -0.00000000000E+00 -0.00000000000E+00 -0.88944203438E+03  0.88944203438E+03  0.00000000000E+00 0. -1.
         25    2    1    2    0    0 -0.13207151487E+03 -0.35177749105E+02 -0.14189464260E+03  0.23332417769E+03  0.12500289285E+03 0.  0.
          2    1    1    2  501    0  0.13965953076E+03 -0.43713153074E+01 -0.68941253875E+03  0.70342984121E+03  0.00000000000E+00 0. -1.
          1    1    1    2  502    0 -0.75880158831E+01  0.39549064413E+02  0.69508928959E+02  0.80331797478E+02  0.00000000000E+00 0. -1.
         22    1    3    3    0    0 -0.23410426433E+02 -0.64428549837E+02 -0.78303768576E+02  0.10407000660E+03  0.00000000000E+00 0.  1.
         22    1    3    3    0    0 -0.10866108844E+03  0.29250800732E+02 -0.63590874025E+02  0.12925417109E+03  0.00000000000E+00 0.  1.
</event>
<event>
 7    1  0.6262315E-006  0.2361639E+03  0.7818608E-02  0.1179386E+00
          2   -1    0    0  502    0  0.00000000000E+00  0.00000000000E+00  0.17437458425E+04  0.17437458425E+04  0.00000000000E+00 0. -1.
          1   -1    0    0  501    0 -0.00000000000E+00 -0.00000000000E+00 -0.17553695974E+04  0.17553695974E+04  0.00000000000E+00 0. -1.
         25    2    1    2    0    0 -0.62575840039E+02 -0.10171587547E+03  0.29599469753E+03  0.34278075448E+03  0.12499571832E+03 0.  0.
          2    1    1    2  501    0  0.13827351809E+03  0.19517657474E+03 -0.17211522704E+04  0.17376934710E+04  0.00000000000E+00 0. -1.
          1    1    1    2  502    0 -0.75697678053E+02 -0.93460699264E+02  0.14135338180E+04  0.14186412145E+04  0.00000000000E+00 0. -1.
         22    1    3    3    0    0  0.32062701278E+02  0.91002190380E+00  0.40810333116E+02  0.51906919020E+02  0.00000000000E+00 0. -1.
         22    1    3    3    0    0 -0.94638541316E+02 -0.10262589738E+03  0.25518436441E+03  0.29087383546E+03  0.00000000000E+00 0. -1.
</event>
<event>
 7    1  0.6262315E-006  0.3627839E+03  0.7818608E-02  0.1222936E+00
          2   -1    0    0  502    0  0.00000000000E+00  0.00000000000E+00  0.31080553789E+04  0.31080553789E+04  0.00000000000E+00 0. -1.
          1   -1    0    0  501    0 -0.00000000000E+00 -0.00000000000E+00 -0.58901148827E+03  0.58901148827E+03  0.00000000000E+00 0. -1.
         25    2    1    2    0    0  0.34262366997E+03  0.53690274433E+02  0.20338007020E+04  0.20669408138E+04  0.12500163017E+03 0.  0.
          2    1    1    2  501    0 -0.36319151378E+03 -0.94055043328E+01 -0.51413898064E+03  0.62955176960E+03  0.00000000000E+00 0. -1.
          1    1    1    2  502    0  0.20567843807E+02 -0.44284770100E+02  0.99938216931E+03  0.10005742838E+04  0.00000000000E+00 0. -1.
         22    1    3    3    0    0  0.17556916051E+03  0.89721320992E+02  0.10313086573E+04  0.10499866628E+04  0.00000000000E+00 0.  1.
         22    1    3    3    0    0  0.16705450946E+03 -0.36031046559E+02  0.10024920447E+04  0.10169541510E+04  0.00000000000E+00 0.  1.
</event>
<event>
 7    1  0.6262315E-006  0.1284273E+03  0.7818608E-02  0.1291863E+00
          2   -1    0    0  502    0  0.00000000000E+00  0.00000000000E+00  0.71958020826E+03  0.71958020826E+03  0.00000000000E+00 0. -1.
          1   -1    0    0  501    0 -0.00000000000E+00 -0.00000000000E+00 -0.19078113857E+03  0.19078113857E+03  0.00000000000E+00 0. -1.
         25    2    1    2    0    0 -0.16678160827E+02  0.71751163058E+02  0.12217127949E+03  0.18967725432E+03  0.12500099530E+03 0.  0.
          2    1    1    2  501    0 -0.13165627584E+02  0.68571191928E+02 -0.13951570859E+03  0.15601274004E+03  0.00000000000E+00 0. -1.
          1    1    1    2  502    0  0.29843788411E+02 -0.14032235499E+03  0.54614349879E+03  0.56467135246E+03  0.00000000000E+00 0. -1.
         22    1    3    3    0    0 -0.13235671450E+02  0.76200736576E+02  0.14598555279E+03  0.16520749643E+03  0.00000000000E+00 0. -1.
         22    1    3    3    0    0 -0.34424893763E+01 -0.44495735178E+01 -0.23814273310E+02  0.24469757883E+02  0.00000000000E+00 0. -1.
</event>
<event>
 7    1  0.6262315E-006  0.8787360E+02  0.7818608E-02  0.1463036E+00
          2   -1    0    0  502    0  0.00000000000E+00  0.00000000000E+00  0.88465875298E+02  0.88465875298E+02  0.00000000000E+00 0. -1.
          1   -1    0    0  501    0 -0.00000000000E+00 -0.00000000000E+00 -0.81189404564E+03  0.81189404564E+03  0.00000000000E+00 0. -1.
         25    2    1    2    0    0  0.18946202897E+02  0.64023769931E+02 -0.10160125621E+03  0.17436592932E+03  0.12499064094E+03 0.  0.
          2    1    1    2  501    0 -0.14094588189E+02 -0.88540371491E+02 -0.66773337797E+03  0.67372540316E+03  0.00000000000E+00 0. -1.
          1    1    1    2  502    0 -0.48516147079E+01  0.24516601560E+02  0.45906463844E+02  0.52268588463E+02  0.00000000000E+00 0. -1.
         22    1    3    3    0    0  0.59640552235E+02  0.47124881946E+02 -0.15400505568E+02  0.77555951036E+02  0.00000000000E+00 0. -1.
         22    1    3    3    0    0 -0.40694349338E+02  0.16898887986E+02 -0.86200750646E+02  0.96809978283E+02  0.00000000000E+00 0. -1.
</event>
<event>
 7    1  0.6262315E-006  0.1229281E+03  0.7818608E-02  0.1312171E+00
          2   -1    0    0  502    0  0.00000000000E+00  0.00000000000E+00  0.26277388792E+04  0.26277388792E+04  0.00000000000E+00 0. -1.
          1   -1    0    0  501    0 -0.00000000000E+00 -0.00000000000E+00 -0.48103306885E+03  0.48103306885E+03  0.00000000000E+00 0. -1.
         25    2    1    2    0    0 -0.66468374998E+02 -0.53161978731E+01  0.18696982848E+03  0.23460468337E+03  0.12504132862E+03 0.  0.
          2    1    1    2  501    0  0.12477937727E+03 -0.10919389512E+02 -0.44824955799E+03  0.46542109137E+03  0.00000000000E+00 0. -1.
          1    1    1    2  502    0 -0.58311002271E+02  0.16235587385E+02  0.24079855398E+04  0.24087461733E+04  0.00000000000E+00 0. -1.
         22    1    3    3    0    0  0.10785261949E+02  0.20490553295E+02  0.13722590805E+03  0.13916585245E+03  0.00000000000E+00 0.  1.
         22    1    3    3    0    0 -0.77253636947E+02 -0.25806751168E+02  0.49743920436E+02  0.95438830922E+02  0.00000000000E+00 0.  1.
</event>
<event>
 7    1  0.6335835E-006  0.1291523E+03  0.7818608E-02  0.1349195E+00
          2   -1    0    0  502    0  0.00000000000E+00  0.00000000000E+00  0.20774736426E+04  0.20774736426E+04  0.00000000000E+00 0. -1.
          1   -1    0    0  501    0 -0.00000000000E+00 -0.00000000000E+00 -0.44908485042E+03  0.44908485042E+03  0.00000000000E+00 0. -1.
         25    2    1    2    0    0 -0.75865723374E+02 -0.66884160104E+02 -0.15342030627E+03  0.22224357509E+03  0.12500126974E+03 0.  0.
          2    1    1    2  501    0  0.47482662284E+01 -0.41337315502E+02 -0.25752934199E+03  0.26086908915E+03  0.00000000000E+00 0. -1.
          1    1    1    2  502    0  0.71117457146E+02  0.10822147561E+03  0.20393384405E+04  0.20434458288E+04  0.00000000000E+00 0. -1.
         22    1    3    3    0    0 -0.23368507790E+02 -0.69136345218E+02 -0.15436728571E+02  0.74593659083E+02  0.00000000000E+00 0. -1.
         22    1    3    3    0    0 -0.52497215584E+02  0.22521851147E+01 -0.13798357770E+03  0.14764991601E+03  0.00000000000E+00 0. -1.
</event>
<event>
 7    1  0.6262315E-006  0.6543353E+02  0.7818608E-02  0.1496540E+00
          2   -1    0    0  502    0  0.00000000000E+00  0.00000000000E+00  0.10849400490E+04  0.10849400490E+04  0.00000000000E+00 0. -1.
          1   -1    0    0  501    0 -0.00000000000E+00 -0.00000000000E+00 -0.13127512200E+04  0.13127512200E+04  0.00000000000E+00 0. -1.
         25    2    1    2    0    0 -0.80522169484E+02 -0.18763225180E+02 -0.16080445340E+03  0.21981567061E+03  0.12499991365E+03 0.  0.
          2    1    1    2  501    0  0.15228847960E+02  0.21671442193E+02 -0.11212727786E+04  0.11215855800E+04  0.00000000000E+00 0. -1.
          1    1    1    2  502    0  0.65293321524E+02 -0.29082170133E+01  0.10542660610E+04  0.10562900184E+04  0.00000000000E+00 0. -1.
         22    1    3    3    0    0 -0.93525119100E+02  0.30367355401E+02 -0.11594295249E+03  0.15202595966E+03  0.00000000000E+00 0. -1.
         22    1    3    3    0    0  0.13002949616E+02 -0.49130580581E+02 -0.44861500911E+02  0.67789710953E+02  0.00000000000E+00 0. -1.
</event>
<event>
 7    1  0.6262315E-006  0.8132997E+02  0.7818608E-02  0.1422092E+00
          2   -1    0    0  502    0  0.00000000000E+00  0.00000000000E+00  0.90287205239E+03  0.90287205239E+03  0.00000000000E+00 0. -1.
          1   -1    0    0  501    0 -0.00000000000E+00 -0.00000000000E+00 -0.49536269393E+02  0.49536269393E+02  0.00000000000E+00 0. -1.
         25    2    1    2    0    0 -0.10596786299E+02 -0.73430229334E+02  0.84896974277E+02  0.16833756562E+03  0.12500299715E+03 0.  0.
          2    1    1    2  501    0 -0.70946864520E+01  0.10550398252E+03  0.39737829093E+03  0.41120667675E+03  0.00000000000E+00 0. -1.
          1    1    1    2  502    0  0.17691472751E+02 -0.32073753188E+02  0.37106051779E+03  0.37286407941E+03  0.00000000000E+00 0. -1.
         22    1    3    3    0    0  0.49244503881E+02 -0.56418770590E+02  0.18073648225E+02  0.77037364944E+02  0.00000000000E+00 0.  1.
         22    1    3    3    0    0 -0.59841290180E+02 -0.17011458744E+02  0.66823326052E+02  0.91300200677E+02  0.00000000000E+00 0.  1.
</event>
<event>
 7    1  0.6262315E-006  0.1291275E+03  0.7818608E-02  0.1271630E+00
          2   -1    0    0  502    0  0.00000000000E+00  0.00000000000E+00  0.46667829420E+03  0.46667829420E+03  0.00000000000E+00 0. -1.
          1   -1    0    0  501    0 -0.00000000000E+00 -0.00000000000E+00 -0.14908129357E+03  0.14908129357E+03  0.00000000000E+00 0. -1.
         25    2    1    2    0    0  0.13726538424E+03 -0.55076918308E+02  0.12887907385E+03  0.23261613902E+03  0.12500079926E+03 0.  0.
          2    1    1    2  501    0 -0.71744513705E+02  0.10787222864E+03 -0.43094761282E+02  0.13653150336E+03  0.00000000000E+00 0. -1.
          1    1    1    2  502    0 -0.65520870531E+02 -0.52795310335E+02  0.23181268806E+03  0.24661194540E+03  0.00000000000E+00 0. -1.
         22    1    3    3    0    0  0.34472670613E+01  0.32412591034E+02  0.12700900782E+02  0.34982461154E+02  0.00000000000E+00 0.  1.
         22    1    3    3    0    0  0.13381811717E+03 -0.87489509342E+02  0.11617817307E+03  0.19763367786E+03  0.00000000000E+00 0.  1.
</event>
<event>
 7    1  0.6262315E-006  0.6465881E+02  0.7818608E-02  0.1460596E+00
          2   -1    0    0  502    0  0.00000000000E+00  0.00000000000E+00  0.96561473646E+03  0.96561473646E+03  0.00000000000E+00 0. -1.
          1   -1    0    0  501    0 -0.00000000000E+00 -0.00000000000E+00 -0.68596992582E+03  0.68596992582E+03  0.00000000000E+00 0. -1.
         25    2    1    2    0    0  0.96843399707E+02  0.94917874723E+01 -0.13160279311E+03  0.20591085819E+03  0.12494498097E+03 0.  0.
          2    1    1    2  501    0 -0.62914357977E+02 -0.28613705090E+01 -0.51497223030E+03  0.51880902253E+03  0.00000000000E+00 0. -1.
          1    1    1    2  502    0 -0.33929041730E+02 -0.66304169634E+01  0.92621983405E+03  0.92686478155E+03  0.00000000000E+00 0. -1.
         22    1    3    3    0    0  0.36909522638E+02  0.46096640164E+02 -0.26946483169E+01  0.59114078064E+02  0.00000000000E+00 0.  1.
         22    1    3    3    0    0  0.59933877069E+02 -0.36604852692E+02 -0.12890814480E+03  0.14679678013E+03  0.00000000000E+00 0.  1.
</event>
<event>
 7    1  0.6262315E-006  0.9606428E+02  0.7818608E-02  0.1349828E+00
          2   -1    0    0  502    0  0.00000000000E+00  0.00000000000E+00  0.17267898136E+04  0.17267898136E+04  0.00000000000E+00 0. -1.
          1   -1    0    0  501    0 -0.00000000000E+00 -0.00000000000E+00 -0.10297663372E+04  0.10297663372E+04  0.00000000000E+00 0. -1.
         25    2    1    2    0    0 -0.42340147907E+02  0.16247395924E+00  0.12570379507E+02  0.13257518142E+03  0.12500179905E+03 0.  0.
          2    1    1    2  501    0  0.97766557383E+02 -0.50264924635E+01 -0.96682359284E+03  0.97176716607E+03  0.00000000000E+00 0. -1.
          1    1    1    2  502    0 -0.55426409475E+02  0.48640185042E+01  0.16512766898E+04  0.16522138033E+04  0.00000000000E+00 0. -1.
         22    1    3    3    0    0 -0.54696090688E+02 -0.52962513019E+02 -0.18488716730E+01  0.76158443053E+02  0.00000000000E+00 0. -1.
         22    1    3    3    0    0  0.12355942781E+02  0.53124986978E+02  0.14419251180E+02  0.56416738368E+02  0.00000000000E+00 0. -1.
</event>
<event>
 7    1  0.6262315E-006  0.1086272E+03  0.7818608E-02  0.1330060E+00
          2   -1    0    0  502    0  0.00000000000E+00  0.00000000000E+00  0.34663222384E+03  0.34663222384E+03  0.00000000000E+00 0. -1.
          1   -1    0    0  501    0 -0.00000000000E+00 -0.00000000000E+00 -0.13172007248E+04  0.13172007248E+04  0.00000000000E+00 0. -1.
         25    2    1    2    0    0  0.73241740929E+02  0.96239898439E+01 -0.23005057913E+03  0.27203874132E+03  0.12499933610E+03 0.  0.
          2    1    1    2  501    0  0.29122728231E+02 -0.50616171701E+02 -0.10559915417E+04  0.10576049670E+04  0.00000000000E+00 0. -1.
          1    1    1    2  502    0 -0.10236446916E+03  0.40992181857E+02  0.31547361985E+03  0.33418924031E+03  0.00000000000E+00 0. -1.
         22    1    3    3    0    0  0.66719225286E+02  0.54142324357E+02 -0.87825868399E+02  0.12286671425E+03  0.00000000000E+00 0.  1.
         22    1    3    3    0    0  0.65225156429E+01 -0.44518334513E+02 -0.14222471073E+03  0.14917202707E+03  0.00000000000E+00 0.  1.
</event>
<event>
 7    1  0.6262315E-006  0.8888600E+02  0.7818608E-02  0.1312359E+00
          2   -1    0    0  502    0  0.00000000000E+00  0.00000000000E+00  0.34391074551E+03  0.34391074551E+03  0.00000000000E+00 0. -1.
          1   -1    0    0  501    0 -0.00000000000E+00 -0.00000000000E+00 -0.18144238367E+03  0.18144238367E+03  0.00000000000E+00 0. -1.
         25    2    1    2    0    0  0.14706648681E+03 -0.48260701175E+01  0.10245598539E+03  0.21857391640E+03  0.12500194195E+03 0.  0.
          2    1    1    2  501    0 -0.72826818277E+02  0.43196008317E+02 -0.97094205714E+02  0.12882905487E+03  0.00000000000E+00 0. -1.
          1    1    1    2  502    0 -0.74239668533E+02 -0.38369938199E+02  0.15710658217E+03  0.17795015791E+03  0.00000000000E+00 0. -1.
         22    1    3    3    0    0  0.31129147289E+02  0.35185434223E+02  0.81612263924E+02  0.94167936237E+02  0.00000000000E+00 0. -1.
         22    1    3    3    0    0  0.11593733952E+03 -0.40011504341E+02  0.20843721470E+02  0.12440598016E+03  0.00000000000E+00 0. -1.
</event>
<event>
 7    1  0.6262315E-006  0.8344364E+02  0.7818608E-02  0.1344821E+00
          2   -1    0    0  502    0  0.00000000000E+00  0.00000000000E+00  0.16647820020E+04  0.16647820020E+04  0.00000000000E+00 0. -1.
          1   -1    0    0  501    0 -0.00000000000E+00 -0.00000000000E+00 -0.35816760020E+03  0.35816760020E+03  0.00000000000E+00 0. -1.
         25    2    1    2    0    0  0.11321486690E+03  0.63839977328E+01  0.66051618809E+03  0.68173620795E+03  0.12499704394E+03 0.  0.
          2    1    1    2  501    0 -0.64786666517E+02 -0.52484563223E+02 -0.34141022238E+03  0.35144399480E+03  0.00000000000E+00 0. -1.
          1    1    1    2  502    0 -0.48428200384E+02  0.46100565490E+02  0.98750843608E+03  0.98976939944E+03  0.00000000000E+00 0. -1.
         22    1    3    3    0    0  0.32387158603E+02  0.60361551978E+02  0.33893538351E+03  0.34578843126E+03  0.00000000000E+00 0.  1.
         22    1    3    3    0    0  0.80827708299E+02 -0.53977554245E+02  0.32158080458E+03  0.33594777669E+03  0.00000000000E+00 0.  1.
</event>
<event>
 7    1  0.6262315E-006  0.6682452E+02  0.7818608E-02  0.1405623E+00
          2   -1    0    0  502    0  0.00000000000E+00  0.00000000000E+00  0.11821356890E+04  0.11821356890E+04  0.00000000000E+00 0. -1.
          1   -1    0    0  501    0 -0.00000000000E+00 -0.00000000000E+00 -0.46196517373E+03  0.46196517373E+03  0.00000000000E+00 0. -1.
         25    2    1    2    0    0  0.14972565419E-01  0.11211993799E+03  0.54017453710E+03  0.56566913850E+03  0.12498865150E+03 0.  0.
          2    1    1    2  501    0 -0.91816165720E+00 -0.50648986249E+02 -0.44627984327E+03  0.44914570168E+03  0.00000000000E+00 0. -1.
          1    1    1    2  502    0  0.90318909178E+00 -0.61470951739E+02  0.62627582145E+03  0.62928602256E+03  0.00000000000E+00 0. -1.
         22    1    3    3    0    0  0.14457781111E+02  0.41865729351E+02  0.44131515876E+03  0.44353222666E+03  0.00000000000E+00 0. -1.
         22    1    3    3    0    0 -0.14442808545E+02  0.70254208637E+02  0.98859378336E+02  0.12213691184E+03  0.00000000000E+00 0. -1.
</event>
<event>
 7    1  0.6262315E-006  0.1097893E+03  0.7818608E-02  0.1303530E+00
          2   -1    0    0  502    0  0.00000000000E+00  0.00000000000E+00  0.97302404750E+03  0.97302404750E+03  0.00000000000E+00 0. -1.
          1   -1    0    0  501    0 -0.00000000000E+00 -0.00000000000E+00 -0.66409089253E+03  0.66409089253E+03  0.00000000000E+00 0. -1.
         25    2    1    2    0    0  0.13929873149E+03 -0.65993414382E+02 -0.11717507745E+03  0.23046625992E+03  0.12500172338E+03 0.  0.
          2    1    1    2  501    0 -0.70790675247E+02 -0.19092229046E+02 -0.48424529427E+03  0.48976457399E+03  0.00000000000E+00 0. -1.
          1    1    1    2  502    0 -0.68508056243E+02  0.85085643428E+02  0.91035352669E+03  0.91688410612E+03  0.00000000000E+00 0. -1.
         22    1    3    3    0    0  0.63857601430E+02 -0.57608556398E+02  0.55303989923E+01  0.86180765509E+02  0.00000000000E+00 0. -1.
         22    1    3    3    0    0  0.75441130059E+02 -0.83848579846E+01 -0.12270547644E+03  0.14428549441E+03  0.00000000000E+00 0. -1.
</event>
<event>
 7    1  0.6262315E-006  0.6175567E+02  0.7818608E-02  0.1435158E+00
          2   -1    0    0  502    0  0.00000000000E+00  0.00000000000E+00  0.10916740689E+04  0.10916740689E+04  0.00000000000E+00 0. -1.
          1   -1    0    0  501    0 -0.00000000000E+00 -0.00000000000E+00 -0.61835979124E+02  0.61835979124E+02  0.00000000000E+00 0. -1.
         25    2    1    2    0    0  0.60571836311E+02 -0.80842688892E+02  0.29801657325E+03  0.33859178667E+03  0.12500412942E+03 0.  0.
          2    1    1    2  501    0 -0.27321828054E+02  0.52513378326E+02 -0.19502384227E+02  0.62325598127E+02  0.00000000000E+00 0. -1.
          1    1    1    2  502    0 -0.33250008257E+02  0.28329310566E+02  0.75132390074E+03  0.75259266320E+03  0.00000000000E+00 0. -1.
         22    1    3    3    0    0  0.96444073388E+02 -0.41899619617E+02  0.22541072072E+03  0.24873083933E+03  0.00000000000E+00 0.  1.
         22    1    3    3    0    0 -0.35872237077E+02 -0.38943069275E+02  0.72605852526E+02  0.89860947349E+02  0.00000000000E+00 0.  1.
</event>
<event>
 7    1  0.6262315E-006  0.2963010E+02  0.7818608E-02  0.1630140E+00
          2   -1    0    0  502    0  0.00000000000E+00  0.00000000000E+00  0.60614363614E+03  0.60614363614E+03  0.00000000000E+00 0. -1.
          1   -1    0    0  501    0 -0.00000000000E+00 -0.00000000000E+00 -0.28509335944E+02  0.28509335944E+02  0.00000000000E+00 0. -1.
         25    2    1    2    0    0 -0.25504424495E+01 -0.18297711942E+02  0.46079449868E+03  0.47780540058E+03  0.12500047914E+03 0.  0.
          2    1    1    2  501    0  0.23755815221E+02 -0.82074849772E+01 -0.88566813626E+01  0.26648496603E+02  0.00000000000E+00 0. -1.
          1    1    1    2  502    0 -0.21205372771E+02  0.26505196919E+02  0.12569648288E+03  0.13019907491E+03  0.00000000000E+00 0. -1.
         22    1    3    3    0    0  0.31448171513E+01 -0.93813759994E+01 -0.55474380147E+01  0.11343463276E+02  0.00000000000E+00 0.  1.
         22    1    3    3    0    0 -0.56952596007E+01 -0.89163359429E+01  0.46634193670E+03  0.46646193730E+03  0.00000000000E+00 0.  1.
</event>
<event>
 7    1  0.6262315E-006  0.2232244E+03  0.7818608E-02  0.1324030E+00
          2   -1    0    0  502    0  0.00000000000E+00  0.00000000000E+00  0.19800659206E+03  0.19800659206E+03  0.00000000000E+00 0. -1.
          1   -1    0    0  501    0 -0.00000000000E+00 -0.00000000000E+00 -0.17550544179E+04  0.17550544179E+04  0.00000000000E+00 0. -1.
         25    2    1    2    0    0  0.19984735116E+03  0.32905294214E+01 -0.36485640106E+03  0.43439116521E+03  0.12500279865E+03 0.  0.
          2    1    1    2  501    0 -0.22969443294E+03 -0.60300174987E+01 -0.13442190633E+04  0.13637158002E+04  0.00000000000E+00 0. -1.
          1    1    1    2  502    0  0.29847081776E+02  0.27394880774E+01  0.15202763845E+03  0.15495404460E+03  0.00000000000E+00 0. -1.
         22    1    3    3    0    0  0.12596481583E+03 -0.58952197410E+02 -0.21042970949E+03  0.25223631587E+03  0.00000000000E+00 0. -1.
         22    1    3    3    0    0  0.73882535332E+02  0.62242726831E+02 -0.15442669157E+03  0.18215484934E+03  0.00000000000E+00 0. -1.
</event>
<event>
 7    1  0.6262315E-006  0.1037360E+03  0.7818608E-02  0.1411056E+00
          2   -1    0    0  502    0  0.00000000000E+00  0.00000000000E+00  0.17304416007E+04  0.17304416007E+04  0.00000000000E+00 0. -1.
          1   -1    0    0  501    0 -0.00000000000E+00 -0.00000000000E+00 -0.47824834190E+03  0.47824834190E+03  0.00000000000E+00 0. -1.
         25    2    1    2    0    0  0.64619719927E+02  0.37652543338E+02  0.38951143315E+02  0.15078143780E+03  0.12499771276E+03 0.  0.
          2    1    1    2  501    0 -0.88683299953E+02 -0.57628861609E+02 -0.41555928834E+03  0.42880687437E+03  0.00000000000E+00 0. -1.
          1    1    1    2  502    0  0.24063580026E+02  0.19976318270E+02  0.16288014038E+04  0.16291016304E+04  0.00000000000E+00 0. -1.
         22    1    3    3    0    0  0.50573796616E+02  0.78507002269E+02  0.50358519124E+02  0.10609919301E+03  0.00000000000E+00 0.  1.
         22    1    3    3    0    0  0.14045923311E+02 -0.40854458931E+02 -0.11407375809E+02  0.44682244785E+02  0.00000000000E+00 0.  1.
</event>
<event>
 7    1  0.6262315E-006  0.4639159E+02  0.7818608E-02  0.1508105E+00
          2   -1    0    0  502    0  0.00000000000E+00  0.00000000000E+00  0.21063789184E+03  0.21063789184E+03  0.00000000000E+00 0. -1.
          1   -1    0    0  501    0 -0.00000000000E+00 -0.00000000000E+00 -0.20152559192E+03  0.20152559192E+03  0.00000000000E+00 0. -1.
         25    2    1    2    0    0 -0.61821724933E+02  0.46025399298E+02  0.52218385596E+02  0.15586036748E+03  0.12500172520E+03 0.  0.
          2    1    1    2  501    0  0.31184082897E+02 -0.14791039871E+02 -0.14307505865E+03  0.14717912316E+03  0.00000000000E+00 0. -1.
          1    1    1    2  502    0  0.30637642036E+02 -0.31234359427E+02  0.99968972970E+02  0.10912399312E+03  0.00000000000E+00 0. -1.
         22    1    3    3    0    0 -0.83617158361E+02 -0.83843222496E+01  0.12267633753E+02  0.84927150369E+02  0.00000000000E+00 0.  1.
         22    1    3    3    0    0  0.21795433428E+02  0.54409721548E+02  0.39950751842E+02  0.70933217113E+02  0.00000000000E+00 0.  1.
</event>
<event>
 7    1  0.6262315E-006  0.6149976E+02  0.7818608E-02  0.1471944E+00
          2   -1    0    0  502    0  0.00000000000E+00  0.00000000000E+00  0.12522026471E+04  0.12522026471E+04  0.00000000000E+00 0. -1.
          1   -1    0    0  501    0 -0.00000000000E+00 -0.00000000000E+00 -0.14064442564E+02  0.14064442564E+02  0.00000000000E+00 0. -1.
         25    2    1    2    0    0  0.55567220313E+00 -0.33921295279E+02  0.45713801513E+03  0.47513663986E+03  0.12501479359E+03 0.  0.
          2    1    1    2  501    0 -0.11126848911E+02 -0.31592529771E+02  0.76495826370E+02  0.83507521554E+02  0.00000000000E+00 0. -1.
          1    1    1    2  502    0  0.10571176707E+02  0.65513825050E+02  0.70450436306E+03  0.70762292827E+03  0.00000000000E+00 0. -1.
         22    1    3    3    0    0 -0.25136477616E+02 -0.75841542053E+02  0.26294053805E+03  0.27481176932E+03  0.00000000000E+00 0. -1.
         22    1    3    3    0    0  0.25692149819E+02  0.41920246774E+02  0.19419747708E+03  0.20032487054E+03  0.00000000000E+00 0. -1.
</event>
<event>
 7    1  0.6262315E-006  0.6557789E+02  0.7818608E-02  0.1482360E+00
          2   -1    0    0  502    0  0.00000000000E+00  0.00000000000E+00  0.48397433078E+03  0.48397433078E+03  0.00000000000E+00 0. -1.
          1   -1    0    0  501    0 -0.00000000000E+00 -0.00000000000E+00 -0.16653202925E+03  0.16653202925E+03  0.00000000000E+00 0. -1.
         25    2    1    2    0    0 -0.30857601644E+02 -0.31884263666E+02  0.23604334299E+03  0.27076110496E+03  0.12500527326E+03 0.  0.
          2    1    1    2  501    0 -0.25677795628E+02 -0.13850759620E+02 -0.14191858403E+03  0.14488642871E+03  0.00000000000E+00 0. -1.
          1    1    1    2  502    0  0.56535397272E+02  0.45735023286E+02  0.22331754257E+03  0.23485882636E+03  0.00000000000E+00 0. -1.
         22    1    3    3    0    0 -0.29172722075E+02 -0.70500559146E+02  0.21182644764E+03  0.22514844098E+03  0.00000000000E+00 0.  1.
         22    1    3    3    0    0 -0.16848795696E+01  0.38616295481E+02  0.24216895343E+02  0.45612663986E+02  0.00000000000E+00 0.  1.
</event>
<event>
 7    1  0.6262315E-006  0.8742128E+02  0.7818608E-02  0.1450528E+00
          2   -1    0    0  502    0  0.00000000000E+00  0.00000000000E+00  0.47152133665E+03  0.47152133665E+03  0.00000000000E+00 0. -1.
          1   -1    0    0  501    0 -0.00000000000E+00 -0.00000000000E+00 -0.56082628495E+03  0.56082628495E+03  0.00000000000E+00 0. -1.
         25    2    1    2    0    0 -0.10633800004E+03 -0.25496311469E+02 -0.14775837301E+03  0.22229266695E+03  0.12499464321E+03 0.  0.
          2    1    1    2  501    0  0.84213433712E+02  0.91267991793E+01 -0.37058096326E+03  0.38013872627E+03  0.00000000000E+00 0. -1.
          1    1    1    2  502    0  0.22124566333E+02  0.16369512289E+02  0.42903438797E+03  0.42991622838E+03  0.00000000000E+00 0. -1.
         22    1    3    3    0    0 -0.12452983337E+03  0.41362144387E+01 -0.13852431084E+03  0.18631632339E+03  0.00000000000E+00 0.  1.
         22    1    3    3    0    0  0.18191833323E+02 -0.29632525907E+02 -0.92340621725E+01  0.35976343554E+02  0.00000000000E+00 0.  1.
</event>
<event>
 7    1  0.6262315E-006  0.8470223E+02  0.7818608E-02  0.1361267E+00
          2   -1    0    0  502    0  0.00000000000E+00  0.00000000000E+00  0.40031160364E+03  0.40031160364E+03  0.00000000000E+00 0. -1.
          1   -1    0    0  501    0 -0.00000000000E+00 -0.00000000000E+00 -0.74587388364E+03  0.74587388364E+03  0.00000000000E+00 0. -1.
         25    2    1    2    0    0  0.13728221995E+02 -0.87973679357E+02 -0.44618003795E+00  0.15346941743E+03  0.12499932268E+03 0.  0.
          2    1    1    2  501    0  0.49032919182E+02  0.29614654627E+02 -0.66198674642E+03  0.66446046336E+03  0.00000000000E+00 0. -1.
          1    1    1    2  502    0 -0.62761141176E+02  0.58359024730E+02  0.31687064645E+03  0.32825560649E+03  0.00000000000E+00 0. -1.
         22    1    3    3    0    0  0.19429239826E+02 -0.41407857734E+02  0.60948450039E+02  0.76202490802E+02  0.00000000000E+00 0.  1.
         22    1    3    3    0    0 -0.57010178316E+01 -0.46565821624E+02 -0.61394630077E+02  0.77266926625E+02  0.00000000000E+00 0.  1.
</event>
<event>
 7    1  0.6262315E-006  0.8590007E+02  0.7818608E-02  0.1387590E+00
          2   -1    0    0  502    0  0.00000000000E+00  0.00000000000E+00  0.17561419964E+02  0.17561419964E+02  0.00000000000E+00 0. -1.
          1   -1    0    0  501    0 -0.00000000000E+00 -0.00000000000E+00 -0.12207031673E+04  0.12207031673E+04  0.00000000000E+00 0. -1.
         25    2    1    2    0    0 -0.57914236168E+02 -0.64603951239E+02 -0.68288636132E+03  0.69963292421E+03  0.12499886755E+03 0.  0.
          2    1    1    2  501    0  0.39574581455E+02 -0.22429744199E+02 -0.25032852844E+03  0.25442801158E+03  0.00000000000E+00 0. -1.
          1    1    1    2  502    0  0.18339654712E+02  0.87033695438E+02 -0.26992685759E+03  0.28420365150E+03  0.00000000000E+00 0. -1.
         22    1    3    3    0    0  0.10461178158E+02  0.22883578531E+02 -0.40199442897E+02  0.47424567727E+02  0.00000000000E+00 0. -1.
         22    1    3    3    0    0 -0.68375414326E+02 -0.87487529770E+02 -0.64268691842E+03  0.65220835648E+03  0.00000000000E+00 0. -1.
</event>
<event>
 7    1  0.6262315E-006  0.1226057E+03  0.7818608E-02  0.1305646E+00
          2   -1    0    0  502    0  0.00000000000E+00  0.00000000000E+00  0.27774920962E+03  0.27774920962E+03  0.00000000000E+00 0. -1.
          1   -1    0    0  501    0 -0.00000000000E+00 -0.00000000000E+00 -0.13119559972E+04  0.13119559972E+04  0.00000000000E+00 0. -1.
         25    2    1    2    0    0 -0.11753889192E+03  0.42565389469E+02 -0.21819623819E+03  0.28082339011E+03  0.12499989831E+03 0.  0.
          2    1    1    2  501    0 -0.39796936962E+01 -0.64273386877E+02 -0.10459351558E+04  0.10479156724E+04  0.00000000000E+00 0. -1.
          1    1    1    2  502    0  0.12151858561E+03  0.21707997409E+02  0.22992460648E+03  0.26096614429E+03  0.00000000000E+00 0. -1.
         22    1    3    3    0    0 -0.53906469769E+02  0.62624000497E+02 -0.42569733305E+02  0.92950820948E+02  0.00000000000E+00 0.  1.
         22    1    3    3    0    0 -0.63632422147E+02 -0.20058611028E+02 -0.17562650489E+03  0.18787256916E+03  0.00000000000E+00 0.  1.
</event>
<event>
 7    1  0.8750793E-006  0.1726742E+03  0.7818608E-02  0.1300604E+00
          2   -1    0    0  502    0  0.00000000000E+00  0.00000000000E+00  0.10868710014E+04  0.10868710014E+04  0.00000000000E+00 0. -1.
          1   -1    0    0  501    0 -0.00000000000E+00 -0.00000000000E+00 -0.21654678418E+04  0.21654678418E+04  0.00000000000E+00 0. -1.
         25    2    1    2    0    0 -0.31658373273E+02  0.14382080696E+03 -0.19560546636E+03  0.27492477457E+03  0.12504181738E+03 0.  0.
          2    1    1    2  501    0  0.37592523429E+02  0.29666627912E+02 -0.19227088780E+04  0.19233051594E+04  0.00000000000E+00 0. -1.
          1    1    1    2  502    0 -0.59341501559E+01 -0.17348743487E+03  0.10397175040E+04  0.10541089091E+04  0.00000000000E+00 0. -1.
         22    1    3    3    0    0 -0.21874204490E+02  0.90327766847E+02 -0.25550976220E+02  0.96386921682E+02  0.00000000000E+00 0. -1.
         22    1    3    3    0    0 -0.97841687837E+01  0.53493040111E+02 -0.17005449014E+03  0.17853785289E+03  0.00000000000E+00 0. -1.
</event>
<event>
 7    1  0.6262315E-006  0.2063973E+03  0.7818608E-02  0.1161092E+00
          2   -1    0    0  502    0  0.00000000000E+00  0.00000000000E+00  0.18504438775E+04  0.18504438775E+04  0.00000000000E+00 0. -1.
          1   -1    0    0  501    0 -0.00000000000E+00 -0.00000000000E+00 -0.26038583782E+04  0.26038583782E+04  0.00000000000E+00 0. -1.
         25    2    1    2    0    0 -0.14778228983E+02 -0.60972875594E+02 -0.91998440125E+02  0.16740825451E+03  0.12500289230E+03 0.  0.
          2    1    1    2  501    0 -0.28574641760E+02  0.22496827531E+03 -0.24649704886E+04  0.24753801213E+04  0.00000000000E+00 0. -1.
          1    1    1    2  502    0  0.43352870744E+02 -0.16399539972E+03  0.18035544280E+04  0.18115138800E+04  0.00000000000E+00 0. -1.
         22    1    3    3    0    0 -0.66186210385E+02 -0.13595606356E+02 -0.60633782307E+02  0.90784968548E+02  0.00000000000E+00 0.  1.
         22    1    3    3    0    0  0.51407981402E+02 -0.47377269238E+02 -0.31364657818E+02  0.76623285966E+02  0.00000000000E+00 0.  1.
</event>
<event>
 7    1  0.6262315E-006  0.8867438E+02  0.7818608E-02  0.1444070E+00
          2   -1    0    0  502    0  0.00000000000E+00  0.00000000000E+00  0.18975415355E+03  0.18975415355E+03  0.00000000000E+00 0. -1.
          1   -1    0    0  501    0 -0.00000000000E+00 -0.00000000000E+00 -0.73537914549E+03  0.73537914549E+03  0.00000000000E+00 0. -1.
         25    2    1    2    0    0 -0.63920109859E+02  0.60135107577E+01  0.62152949720E+01  0.14066089192E+03  0.12499965547E+03 0.  0.
          2    1    1    2  501    0  0.89479983904E+02  0.65040993757E+01 -0.66334929170E+03  0.66938871639E+03  0.00000000000E+00 0. -1.
          1    1    1    2  502    0 -0.25559874045E+02 -0.12517610133E+02  0.11150900479E+03  0.11508369074E+03  0.00000000000E+00 0. -1.
         22    1    3    3    0    0 -0.56201681499E+02 -0.49523002021E+02 -0.21753027618E+02  0.78002249602E+02  0.00000000000E+00 0. -1.
         22    1    3    3    0    0 -0.77184283601E+01  0.55536512778E+02  0.27968322590E+02  0.62658642313E+02  0.00000000000E+00 0. -1.
</event>
<event>
 7    1  0.6262315E-006  0.2104859E+03  0.7818608E-02  0.1263734E+00
          2   -1    0    0  502    0  0.00000000000E+00  0.00000000000E+00  0.19955709898E+04  0.19955709898E+04  0.00000000000E+00 0. -1.
          1   -1    0    0  501    0 -0.00000000000E+00 -0.00000000000E+00 -0.93975093246E+03  0.93975093246E+03  0.00000000000E+00 0. -1.
         25    2    1    2    0    0  0.69477756790E+02 -0.25117990250E+03  0.29065905163E+03  0.40990932589E+03  0.12499787618E+03 0.  0.
          2    1    1    2  501    0 -0.19178627906E+02  0.52328094580E+02 -0.87284079413E+03  0.87461826024E+03  0.00000000000E+00 0. -1.
          1    1    1    2  502    0 -0.50299128884E+02  0.19885180792E+03  0.16380017999E+04  0.16507943362E+04  0.00000000000E+00 0. -1.
         22    1    3    3    0    0  0.73973789817E+02 -0.26461480859E+03  0.27385348470E+03  0.38792892337E+03  0.00000000000E+00 0. -1.
         22    1    3    3    0    0 -0.44960330273E+01  0.13434906098E+02  0.16805566936E+02  0.21980402518E+02  0.00000000000E+00 0. -1.
</event>
<event>
 7    1  0.6262315E-006  0.6756397E+02  0.7818608E-02  0.1387438E+00
          2   -1    0    0  502    0  0.00000000000E+00  0.00000000000E+00  0.82539553950E+03  0.82539553950E+03  0.00000000000E+00 0. -1.
          1   -1    0    0  501    0 -0.00000000000E+00 -0.00000000000E+00 -0.11131348887E+03  0.11131348887E+03  0.00000000000E+00 0. -1.
         25    2    1    2    0    0 -0.15216679680E+02  0.98419494630E+01  0.11159666457E+03  0.16856809783E+03  0.12503190294E+03 0.  0.
          2    1    1    2  501    0  0.73112787696E+02 -0.88140185342E+01 -0.64953852494E+02  0.98194549753E+02  0.00000000000E+00 0. -1.
          1    1    1    2  502    0 -0.57896108016E+02 -0.10279309288E+01  0.66743923855E+03  0.66994638078E+03  0.00000000000E+00 0. -1.
         22    1    3    3    0    0 -0.64235044189E+02  0.79031429450E+01  0.98385245365E+02  0.11776356430E+03  0.00000000000E+00 0.  1.
         22    1    3    3    0    0  0.49018364509E+02  0.19388065180E+01  0.13211419206E+02  0.50804533531E+02  0.00000000000E+00 0.  1.
</event>
<event>
 7    1  0.6262315E-006  0.1029383E+03  0.7818608E-02  0.1410490E+00
          2   -1    0    0  502    0  0.00000000000E+00  0.00000000000E+00  0.83777221438E+03  0.83777221438E+03  0.00000000000E+00 0. -1.
          1   -1    0    0  501    0 -0.00000000000E+00 -0.00000000000E+00 -0.11565705677E+03  0.11565705677E+03  0.00000000000E+00 0. -1.
         25    2    1    2    0    0  0.33502414111E+02  0.85619036857E+02  0.15985997192E+03  0.22278505270E+03  0.12499975144E+03 0.  0.
          2    1    1    2  501    0 -0.85387963627E+01 -0.10508567987E+03 -0.50618438904E+02  0.11695356990E+03  0.00000000000E+00 0. -1.
          1    1    1    2  502    0 -0.24963617748E+02  0.19466643010E+02  0.61287362460E+03  0.61369064856E+03  0.00000000000E+00 0. -1.
         22    1    3    3    0    0  0.12983208279E+02  0.10361079031E+03  0.16475566993E+03  0.19505945335E+03  0.00000000000E+00 0. -1.
         22    1    3    3    0    0  0.20519205832E+02 -0.17991753452E+02 -0.48956980136E+01  0.27725599350E+02  0.00000000000E+00 0. -1.
</event>
<event>
 7    1  0.6262315E-006  0.2331596E+02  0.7818608E-02  0.1687533E+00
          2   -1    0    0  502    0  0.00000000000E+00  0.00000000000E+00  0.20281320459E+03  0.20281320459E+03  0.00000000000E+00 0. -1.
          1   -1    0    0  501    0 -0.00000000000E+00 -0.00000000000E+00 -0.17737628582E+04  0.17737628582E+04  0.00000000000E+00 0. -1.
         25    2    1    2    0    0  0.14875359458E+02  0.10765209605E+02 -0.51143066973E+03  0.52680273834E+03  0.12499051616E+03 0.  0.
          2    1    1    2  501    0  0.50651564256E+01 -0.22848652931E+02 -0.12538400537E+04  0.12540584504E+04  0.00000000000E+00 0. -1.
          1    1    1    2  502    0 -0.19940515884E+02  0.12083443326E+02  0.19432106978E+03  0.19571487408E+03  0.00000000000E+00 0. -1.
         22    1    3    3    0    0 -0.16537732300E+02  0.28347859799E+02 -0.31389465979E+02  0.45413613810E+02  0.00000000000E+00 0.  1.
         22    1    3    3    0    0  0.31413091758E+02 -0.17582650194E+02 -0.48004120375E+03  0.48138912453E+03  0.00000000000E+00 0.  1.
</event>
<event>
 7    1  0.6262315E-006  0.8214255E+02  0.7818608E-02  0.1395238E+00
          2   -1    0    0  502    0  0.00000000000E+00  0.00000000000E+00  0.17882499977E+03  0.17882499977E+03  0.00000000000E+00 0. -1.
          1   -1    0    0  501    0 -0.00000000000E+00 -0.00000000000E+00 -0.86334382836E+03  0.86334382836E+03  0.00000000000E+00 0. -1.
         25    2    1    2    0    0  0.93675988160E+01 -0.39878126424E+02 -0.21449956869E+03  0.25162103927E+03  0.12500026225E+03 0.  0.
          2    1    1    2  501    0  0.25759483901E+02 -0.36580539542E+02 -0.61837534379E+03  0.61999173599E+03  0.00000000000E+00 0. -1.
          1    1    1    2  502    0 -0.35127082717E+02  0.76458665966E+02  0.14835608390E+03  0.17055605287E+03  0.00000000000E+00 0. -1.
         22    1    3    3    0    0  0.18995362107E+02  0.42857162120E+02 -0.60469083719E+02  0.76511895888E+02  0.00000000000E+00 0. -1.
         22    1    3    3    0    0 -0.96277632906E+01 -0.82735288543E+02 -0.15403048497E+03  0.17510914338E+03  0.00000000000E+00 0. -1.
</event>
<event>
 7    1  0.6262315E-006  0.5833268E+02  0.7818608E-02  0.1542161E+00
          2   -1    0    0  502    0  0.00000000000E+00  0.00000000000E+00  0.35632961713E+04  0.35632961713E+04  0.00000000000E+00 0. -1.
          1   -1    0    0  501    0 -0.00000000000E+00 -0.00000000000E+00 -0.10102254352E+04  0.10102254352E+04  0.00000000000E+00 0. -1.
         25    2    1    2    0    0  0.43195689469E+02 -0.66343630359E+01  0.23497406219E+04  0.23534689783E+04  0.12500143749E+03 0.  0.
          2    1    1    2  501    0 -0.51847010156E+02  0.26745028340E+02 -0.10074184207E+04  0.10091061804E+04  0.00000000000E+00 0. -1.
          1    1    1    2  502    0  0.86513206879E+01 -0.20110665304E+02  0.12107485350E+04  0.12109464477E+04  0.00000000000E+00 0. -1.
         22    1    3    3    0    0  0.42033846011E+02 -0.50934393915E+02  0.19770940823E+04  0.19781966958E+04  0.00000000000E+00 0.  1.
         22    1    3    3    0    0  0.11618434575E+01  0.44300030879E+02  0.37264653957E+03  0.37527228257E+03  0.00000000000E+00 0.  1.
</event>
<event>
 7    1  0.6262315E-006  0.1168104E+03  0.7818608E-02  0.1297956E+00
          2   -1    0    0  502    0  0.00000000000E+00  0.00000000000E+00  0.17748999644E+03  0.17748999644E+03  0.00000000000E+00 0. -1.
          1   -1    0    0  501    0 -0.00000000000E+00 -0.00000000000E+00 -0.57063692633E+03  0.57063692633E+03  0.00000000000E+00 0. -1.
         25    2    1    2    0    0 -0.14311709184E+03  0.74344851563E+02 -0.39112212629E+03  0.44114798090E+03  0.12500145778E+03 0.  0.
          2    1    1    2  501    0  0.73107128327E+02 -0.55346760361E+02 -0.13046742124E+03  0.15946681190E+03  0.00000000000E+00 0. -1.
          1    1    1    2  502    0  0.70009963517E+02 -0.18998091201E+02  0.12844261764E+03  0.14751212997E+03  0.00000000000E+00 0. -1.
         22    1    3    3    0    0 -0.14861020673E+03  0.62494367728E+02 -0.23795533111E+03  0.28742525837E+03  0.00000000000E+00 0.  1.
         22    1    3    3    0    0  0.54931148851E+01  0.11850483835E+02 -0.15316679518E+03  0.15372272254E+03  0.00000000000E+00 0.  1.
</event>
<event>
 7    1  0.6262315E-006  0.1130304E+03  0.7818608E-02  0.1426156E+00
          2   -1    0    0  502    0  0.00000000000E+00  0.00000000000E+00  0.36969394677E+03  0.36969394677E+03  0.00000000000E+00 0. -1.
          1   -1    0    0  501    0 -0.00000000000E+00 -0.00000000000E+00 -0.68835131587E+03  0.68835131587E+03  0.00000000000E+00 0. -1.
         25    2    1    2    0    0  0.52523361573E+02  0.12477821685E+03 -0.41980630372E+02  0.18898627274E+03  0.12500052418E+03 0.  0.
          2    1    1    2  501    0 -0.35733999126E+02 -0.10551896370E+03 -0.56688503720E+03  0.57772815043E+03  0.00000000000E+00 0. -1.
          1    1    1    2  502    0 -0.16789362446E+02 -0.19259253146E+02  0.29020829847E+03  0.29133083947E+03  0.00000000000E+00 0. -1.
         22    1    3    3    0    0  0.36090507188E+02 -0.63614441193E+01 -0.43413761779E+02  0.56813267748E+02  0.00000000000E+00 0.  1.
         22    1    3    3    0    0  0.16432854384E+02  0.13113966097E+03  0.14331314073E+01  0.13217300499E+03  0.00000000000E+00 0.  1.
</event>
<event>
 7    1  0.6262315E-006  0.6265114E+02  0.7818608E-02  0.1437382E+00
          2   -1    0    0  502    0  0.00000000000E+00  0.00000000000E+00  0.17066703914E+04  0.17066703914E+04  0.00000000000E+00 0. -1.
          1   -1    0    0  501    0 -0.00000000000E+00 -0.00000000000E+00 -0.26575376147E+03  0.26575376147E+03  0.00000000000E+00 0. -1.
         25    2    1    2    0    0  0.51183685816E+02  0.22469761223E+02 -0.24023213204E+02  0.13902145554E+03  0.12500076185E+03 0.  0.
          2    1    1    2  501    0  0.86835754784E+01 -0.41444205991E+02 -0.18119159569E+03  0.18607369788E+03  0.00000000000E+00 0. -1.
          1    1    1    2  502    0 -0.59867261294E+02  0.18974444769E+02  0.16461314388E+04  0.16473289994E+04  0.00000000000E+00 0. -1.
         22    1    3    3    0    0 -0.33449856576E+02 -0.20888577026E+02  0.46241691272E+01  0.39706529630E+02  0.00000000000E+00 0.  1.
         22    1    3    3    0    0  0.84633542392E+02  0.43358338249E+02 -0.28647382331E+02  0.99314925907E+02  0.00000000000E+00 0.  1.
</event>
<event>
 7    1  0.6262315E-006  0.7239085E+02  0.7818608E-02  0.1451168E+00
          2   -1    0    0  502    0  0.00000000000E+00  0.00000000000E+00  0.78108495724E+03  0.78108495724E+03  0.00000000000E+00 0. -1.
          1   -1    0    0  501    0 -0.00000000000E+00 -0.00000000000E+00 -0.65118321925E+03  0.65118321925E+03  0.00000000000E+00 0. -1.
         25    2    1    2    0    0  0.31788268311E+01  0.43454231133E+02 -0.15994981121E+03  0.20762363371E+03  0.12500102410E+03 0.  0.
          2    1    1    2  501    0  0.21958984638E+02  0.24740768321E+02 -0.46506366199E+03  0.46623868600E+03  0.00000000000E+00 0. -1.
          1    1    1    2  502    0 -0.25137811469E+02 -0.68194999454E+02  0.75491521118E+03  0.75840585677E+03  0.00000000000E+00 0. -1.
         22    1    3    3    0    0  0.35822216027E+01  0.62781309314E+02 -0.19482421076E+02  0.65832285710E+02  0.00000000000E+00 0.  1.
         22    1    3    3    0    0 -0.40339477152E+00 -0.19327078180E+02 -0.14046739013E+03  0.14179134800E+03  0.00000000000E+00 0.  1.
</event>
<event>
 7    1  0.6262315E-006  0.1298578E+03  0.7818608E-02  0.1257788E+00
          2   -1    0    0  502    0  0.00000000000E+00  0.00000000000E+00  0.29736090951E+04  0.29736090951E+04  0.00000000000E+00 0. -1.
          1   -1    0    0  501    0 -0.00000000000E+00 -0.00000000000E+00 -0.19278480486E+04  0.19278480486E+04  0.00000000000E+00 0. -1.
         25    2    1    2    0    0  0.13077028543E+03 -0.15361744166E+03 -0.12404128780E+03  0.26778732532E+03  0.12499849835E+03 0.  0.
          2    1    1    2  501    0 -0.90773902814E+02  0.30512885998E+02 -0.17291646932E+04  0.17318145033E+04  0.00000000000E+00 0. -1.
          1    1    1    2  502    0 -0.39996382614E+02  0.12310455566E+03  0.28989670276E+04  0.29018553150E+04  0.00000000000E+00 0. -1.
         22    1    3    3    0    0  0.88128396574E+01 -0.53252425786E+02 -0.91938764315E+02  0.10661249166E+03  0.00000000000E+00 0. -1.
         22    1    3    3    0    0  0.12195744577E+03 -0.10036501587E+03 -0.32102523489E+02  0.16117483366E+03  0.00000000000E+00 0. -1.
</event>
<event>
 7    1  0.6262315E-006  0.7378955E+02  0.7818608E-02  0.1380433E+00
          2   -1    0    0  502    0  0.00000000000E+00  0.00000000000E+00  0.12576186572E+04  0.12576186572E+04  0.00000000000E+00 0. -1.
          1   -1    0    0  501    0 -0.00000000000E+00 -0.00000000000E+00 -0.12861897159E+03  0.12861897159E+03  0.00000000000E+00 0. -1.
         25    2    1    2    0    0  0.22817067713E+02 -0.16953657344E+02  0.24507582770E+03  0.27657720064E+03  0.12499896605E+03 0.  0.
          2    1    1    2  501    0 -0.22059383651E+02  0.73066844141E+02 -0.99072811711E+02  0.12506319259E+03  0.00000000000E+00 0. -1.
          1    1    1    2  502    0 -0.75768406152E+00 -0.56113186797E+02  0.98299666966E+03  0.98459723561E+03  0.00000000000E+00 0. -1.
         22    1    3    3    0    0 -0.22840206310E+02  0.43471970650E+02  0.67033808046E+02  0.83096442028E+02  0.00000000000E+00 0.  1.
         22    1    3    3    0    0  0.45657274023E+02 -0.60425627993E+02  0.17804201965E+03  0.19348075861E+03  0.00000000000E+00 0.  1.
</event>
<event>
 7    1  0.6262315E-006  0.6553418E+02  0.7818608E-02  0.1418170E+00
          2   -1    0    0  502    0  0.00000000000E+00  0.00000000000E+00  0.75544475124E+03  0.75544475124E+03  0.00000000000E+00 0. -1.
          1   -1    0    0  501    0 -0.00000000000E+00 -0.00000000000E+00 -0.68229371431E+03  0.68229371431E+03  0.00000000000E+00 0. -1.
         25    2    1    2    0    0  0.77808509694E+02  0.76710681169E+02  0.10556995440E+03  0.19674716788E+03  0.12500296000E+03 0.  0.
          2    1    1    2  501    0 -0.37157811253E+02 -0.53420415365E+02 -0.63412951678E+03  0.63745955775E+03  0.00000000000E+00 0. -1.
          1    1    1    2  502    0 -0.40650698441E+02 -0.23290265805E+02  0.60171059931E+03  0.60353173992E+03  0.00000000000E+00 0. -1.
         22    1    3    3    0    0  0.83073362970E+02  0.10688571392E+03  0.87321556769E+02  0.16109250061E+03  0.00000000000E+00 0.  1.
         22    1    3    3    0    0 -0.52648532754E+01 -0.30175032755E+02  0.18248397629E+02  0.35654667265E+02  0.00000000000E+00 0.  1.
</event>
<event>
 7    1  0.7797043E-006  0.8263291E+02  0.7818608E-02  0.1377681E+00
          2   -1    0    0  502    0  0.00000000000E+00  0.00000000000E+00  0.55421682117E+03  0.55421682117E+03  0.00000000000E+00 0. -1.
          1   -1    0    0  501    0 -0.00000000000E+00 -0.00000000000E+00 -0.10797372345E+04  0.10797372345E+04  0.00000000000E+00 0. -1.
         25    2    1    2    0    0  0.41260121863E+02  0.13483315951E+01 -0.27213716313E+03  0.30230401247E+03  0.12499945898E+03 0.  0.
          2    1    1    2  501    0 -0.87361691602E+02  0.21042458000E+02 -0.78874167778E+03  0.79384399252E+03  0.00000000000E+00 0. -1.
          1    1    1    2  502    0  0.46101569739E+02 -0.22390789595E+02  0.53535842757E+03  0.53780605069E+03  0.00000000000E+00 0. -1.
         22    1    3    3    0    0  0.25938656508E+02  0.26713591085E+02 -0.27004153511E+03  0.27259651600E+03  0.00000000000E+00 0.  1.
         22    1    3    3    0    0  0.15321465355E+02 -0.25365259490E+02 -0.20956280164E+01  0.29707496468E+02  0.00000000000E+00 0.  1.
</event>
<event>
 7    1  0.6262315E-006  0.7398989E+02  0.7818608E-02  0.1425571E+00
          2   -1    0    0  502    0  0.00000000000E+00  0.00000000000E+00  0.12822089057E+04  0.12822089057E+04  0.00000000000E+00 0. -1.
          1   -1    0    0  501    0 -0.00000000000E+00 -0.00000000000E+00 -0.50888978320E+02  0.50888978320E+02  0.00000000000E+00 0. -1.
         25    2    1    2    0    0  0.29458211487E+02  0.25539347299E+02  0.87241406077E+03  0.88218517163E+03  0.12499735645E+03 0.  0.
          2    1    1    2  501    0 -0.68109827764E+02 -0.32108048889E+02 -0.13456957496E+02  0.76491601803E+02  0.00000000000E+00 0. -1.
          1    1    1    2  502    0  0.38651616276E+02  0.65687015898E+01  0.37236282409E+03  0.37442111058E+03  0.00000000000E+00 0. -1.
         22    1    3    3    0    0  0.11909554165E+02  0.44528900875E+02  0.83735449328E+03  0.83862220810E+03  0.00000000000E+00 0. -1.
         22    1    3    3    0    0  0.17548657322E+02 -0.18989553576E+02  0.35059567490E+02  0.43562963529E+02  0.00000000000E+00 0. -1.
</event>
<event>
 7    1  0.6262315E-006  0.1522099E+03  0.7818608E-02  0.1354234E+00
          2   -1    0    0  502    0  0.00000000000E+00  0.00000000000E+00  0.15162586976E+04  0.15162586976E+04  0.00000000000E+00 0. -1.
          1   -1    0    0  501    0 -0.00000000000E+00 -0.00000000000E+00 -0.42840378647E+03  0.42840378647E+03  0.00000000000E+00 0. -1.
         25    2    1    2    0    0 -0.24716467648E+02 -0.15856016137E+03  0.37098402746E+03  0.42309202439E+03  0.12500193568E+03 0.  0.
          2    1    1    2  501    0 -0.84254449287E+01  0.15180012588E+03 -0.38771961633E+03  0.41646220384E+03  0.00000000000E+00 0. -1.
          1    1    1    2  502    0  0.33141912577E+02  0.67600354914E+01  0.11045905000E+04  0.11051082559E+04  0.00000000000E+00 0. -1.
         22    1    3    3    0    0 -0.23213635673E+02 -0.14023222396E+03  0.37766392054E+03  0.40352693392E+03  0.00000000000E+00 0. -1.
         22    1    3    3    0    0 -0.15028319754E+01 -0.18327937409E+02 -0.66798930790E+01  0.19565090471E+02  0.00000000000E+00 0. -1.
</event>
<event>
 7    1  0.6262315E-006  0.1783685E+03  0.7818608E-02  0.1290629E+00
          2   -1    0    0  502    0  0.00000000000E+00  0.00000000000E+00  0.24950456350E+04  0.24950456350E+04  0.00000000000E+00 0. -1.
          1   -1    0    0  501    0 -0.00000000000E+00 -0.00000000000E+00 -0.69399309633E+02  0.69399309633E+02  0.00000000000E+00 0. -1.
         25    2    1    2    0    0  0.49516360824E+02 -0.14688372180E+03  0.31071905957E+03  0.36905239202E+03  0.12500654526E+03 0.  0.
          2    1    1    2  501    0 -0.29663626003E+02  0.19370599614E+03  0.20074953789E+03  0.28053933880E+03  0.00000000000E+00 0. -1.
          1    1    1    2  502    0 -0.19852734821E+02 -0.46822274340E+02  0.19141777279E+04  0.19148532138E+04  0.00000000000E+00 0. -1.
         22    1    3    3    0    0  0.32289368197E+02 -0.15200819098E+03  0.31439800047E+03  0.35070670955E+03  0.00000000000E+00 0.  1.
         22    1    3    3    0    0  0.17226992627E+02  0.51244691843E+01 -0.36789408950E+01  0.18345682476E+02  0.00000000000E+00 0.  1.
</event>
<event>
 7    1  0.6262315E-006  0.3188652E+02  0.7818608E-02  0.1639361E+00
          2   -1    0    0  502    0  0.00000000000E+00  0.00000000000E+00  0.80602937207E+03  0.80602937207E+03  0.00000000000E+00 0. -1.
          1   -1    0    0  501    0 -0.00000000000E+00 -0.00000000000E+00 -0.12192406875E+03  0.12192406875E+03  0.00000000000E+00 0. -1.
         25    2    1    2    0    0  0.16532731796E+01  0.21624257271E+02  0.14051269300E+02  0.12760006061E+03  0.12495597418E+03 0.  0.
          2    1    1    2  501    0 -0.23780194906E+02 -0.22589005989E+02 -0.60843235132E+02  0.69120620098E+02  0.00000000000E+00 0. -1.
          1    1    1    2  502    0  0.22126921726E+02  0.96474871783E+00  0.73089726915E+03  0.73123276011E+03  0.00000000000E+00 0. -1.
         22    1    3    3    0    0  0.18522701462E+02  0.54501332671E+02 -0.34099056674E+02  0.66904644072E+02  0.00000000000E+00 0. -1.
         22    1    3    3    0    0 -0.16869428282E+02 -0.32877075400E+02  0.48150325974E+02  0.60695416538E+02  0.00000000000E+00 0. -1.
</event>
<event>
 7    1  0.6262315E-006  0.4872437E+02  0.7818608E-02  0.1467507E+00
          2   -1    0    0  502    0  0.00000000000E+00  0.00000000000E+00  0.63318890361E+02  0.63318890361E+02  0.00000000000E+00 0. -1.
          1   -1    0    0  501    0 -0.00000000000E+00 -0.00000000000E+00 -0.24717212685E+04  0.24717212685E+04  0.00000000000E+00 0. -1.
         25    2    1    2    0    0 -0.11523660883E+02  0.53185018333E+01 -0.47258315157E+02  0.13423493959E+03  0.12499835773E+03 0.  0.
          2    1    1    2  501    0 -0.48274873160E+02 -0.66031203040E+01 -0.23350339748E+04  0.23355422771E+04  0.00000000000E+00 0. -1.
          1    1    1    2  502    0  0.59798534043E+02  0.12846184707E+01 -0.26110088190E+02  0.65262942192E+02  0.00000000000E+00 0. -1.
         22    1    3    3    0    0  0.22203909660E+02 -0.23732572216E+02 -0.75031079041E+02  0.81767422671E+02  0.00000000000E+00 0. -1.
         22    1    3    3    0    0 -0.33727570544E+02  0.29051074049E+02  0.27772763884E+02  0.52467516922E+02  0.00000000000E+00 0. -1.
</event>
<event>
 7    1  0.1835121E-005  0.4596311E+02  0.7818608E-02  0.1482783E+00
          2   -1    0    0  502    0  0.00000000000E+00  0.00000000000E+00  0.10934391047E+04  0.10934391047E+04  0.00000000000E+00 0. -1.
          1   -1    0    0  501    0 -0.00000000000E+00 -0.00000000000E+00 -0.91163495100E+03  0.91163495100E+03  0.00000000000E+00 0. -1.
         25    2    1    2    0    0  0.40974202327E+02  0.34657807981E+02 -0.29742216438E+03  0.32705452275E+03  0.12499867231E+03 0.  0.
          2    1    1    2  501    0 -0.39931291689E+02  0.11309741523E+02 -0.59818729514E+03  0.59962526496E+03  0.00000000000E+00 0. -1.
          1    1    1    2  502    0 -0.10429106384E+01 -0.45967549504E+02  0.10774136132E+04  0.10783942680E+04  0.00000000000E+00 0. -1.
         22    1    3    3    0    0  0.18492130127E+02 -0.40917907732E+01 -0.27729598727E+03  0.27794201947E+03  0.00000000000E+00 0. -1.
         22    1    3    3    0    0  0.22482072200E+02  0.38749598755E+02 -0.20126177105E+02  0.49112503285E+02  0.00000000000E+00 0. -1.
</event>
<event>
 7    1  0.6262315E-006  0.1039390E+03  0.7818608E-02  0.1312573E+00
          2   -1    0    0  502    0  0.00000000000E+00  0.00000000000E+00  0.14377262545E+04  0.14377262545E+04  0.00000000000E+00 0. -1.
          1   -1    0    0  501    0 -0.00000000000E+00 -0.00000000000E+00 -0.14283701195E+03  0.14283701195E+03  0.00000000000E+00 0. -1.
         25    2    1    2    0    0 -0.99191097248E+02 -0.29965277002E+01  0.44683968845E+02  0.16573869243E+03  0.12499921658E+03 0.  0.
          2    1    1    2  501    0  0.17719918128E+02  0.69091544087E+02 -0.64364583610E+02  0.96075161130E+02  0.00000000000E+00 0. -1.
          1    1    1    2  502    0  0.81471179119E+02 -0.66095016387E+02  0.13145698573E+04  0.13187494129E+04  0.00000000000E+00 0. -1.
         22    1    3    3    0    0  0.15686672419E+02  0.27146908496E+02  0.34374144209E+02  0.46525349248E+02  0.00000000000E+00 0.  1.
         22    1    3    3    0    0 -0.11487776967E+03 -0.30143436197E+02  0.10309824636E+02  0.11921334318E+03  0.00000000000E+00 0.  1.
</event>
<event>
 7    1  0.6262315E-006  0.1198979E+03  0.7818608E-02  0.1324739E+00
          2   -1    0    0  502    0  0.00000000000E+00  0.00000000000E+00  0.14464209212E+04  0.14464209212E+04  0.00000000000E+00 0. -1.
          1   -1    0    0  501    0 -0.00000000000E+00 -0.00000000000E+00 -0.30263622442E+03  0.30263622442E+03  0.00000000000E+00 0. -1.
         25    2    1    2    0    0 -0.13828088140E+03 -0.10293167669E+03  0.20379446022E+03  0.29474619503E+03  0.12500642080E+03 0.  0.
          2    1    1    2  501    0  0.91839305122E+02  0.72630369715E+02 -0.24314932136E+03  0.26987260152E+03  0.00000000000E+00 0. -1.
          1    1    1    2  502    0  0.46441576280E+02  0.30301306979E+02  0.11831395580E+04  0.11844383491E+04  0.00000000000E+00 0. -1.
         22    1    3    3    0    0 -0.15315985963E+03 -0.57810120742E+02  0.14138130518E+03  0.21630678703E+03  0.00000000000E+00 0. -1.
         22    1    3    3    0    0  0.14878978231E+02 -0.45121555952E+02  0.62413155043E+02  0.78439407999E+02  0.00000000000E+00 0. -1.
</event>
<event>
 7    1  0.6262315E-006  0.1301769E+03  0.7818608E-02  0.1378497E+00
          2   -1    0    0  502    0  0.00000000000E+00  0.00000000000E+00  0.47890014203E+03  0.47890014203E+03  0.00000000000E+00 0. -1.
          1   -1    0    0  501    0 -0.00000000000E+00 -0.00000000000E+00 -0.96205743723E+03  0.96205743723E+03  0.00000000000E+00 0. -1.
         25    2    1    2    0    0 -0.59048690981E+02  0.84080448854E+02  0.30102617208E+02  0.16460186371E+03  0.12502534218E+03 0.  0.
          2    1    1    2  501    0 -0.18087623492E+02  0.26780633661E+02 -0.88255136349E+03  0.88314283877E+03  0.00000000000E+00 0. -1.
          1    1    1    2  502    0  0.77136314473E+02 -0.11086108252E+03  0.36929145108E+03  0.39321287678E+03  0.00000000000E+00 0. -1.
         22    1    3    3    0    0  0.35736299705E+02  0.17961184405E+02 -0.11754158444E+02  0.41687498157E+02  0.00000000000E+00 0.  1.
         22    1    3    3    0    0 -0.94784990686E+02  0.66119264449E+02  0.41856775652E+02  0.12291436555E+03  0.00000000000E+00 0.  1.
</event>
<event>
 7    1  0.6262315E-006  0.1796109E+03  0.7818608E-02  0.1205346E+00
          2   -1    0    0  502    0  0.00000000000E+00  0.00000000000E+00  0.29624667369E+04  0.29624667369E+04  0.00000000000E+00 0. -1.
          1   -1    0    0  501    0 -0.00000000000E+00 -0.00000000000E+00 -0.13046657020E+04  0.13046657020E+04  0.00000000000E+00 0. -1.
         25    2    1    2    0    0 -0.26901349757E+02  0.65866717409E+02  0.10975309132E+02  0.14424837945E+03  0.12500012193E+03 0.  0.
          2    1    1    2  501    0  0.81938587701E+02 -0.17119962597E+03 -0.12295205512E+04  0.12440836105E+04  0.00000000000E+00 0. -1.
          1    1    1    2  502    0 -0.55037237945E+02  0.10533290856E+03  0.28763462770E+04  0.28788004489E+04  0.00000000000E+00 0. -1.
         22    1    3    3    0    0  0.24907082691E+02 -0.15533599077E+02  0.34133258769E+02  0.45019271681E+02  0.00000000000E+00 0.  1.
         22    1    3    3    0    0 -0.51808432448E+02  0.81400316486E+02 -0.23157949637E+02  0.99229107767E+02  0.00000000000E+00 0.  1.
</event>
<event>
 7    1  0.6262315E-006  0.1352349E+03  0.7818608E-02  0.1328114E+00
          2   -1    0    0  502    0  0.00000000000E+00  0.00000000000E+00  0.23212315508E+04  0.23212315508E+04  0.00000000000E+00 0. -1.
          1   -1    0    0  501    0 -0.00000000000E+00 -0.00000000000E+00 -0.20942564702E+02  0.20942564702E+02  0.00000000000E+00 0. -1.
         25    2    1    2    0    0 -0.83388901733E+02 -0.52513217404E+02  0.13245758106E+04  0.13341055188E+04  0.12500044106E+03 0.  0.
          2    1    1    2  501    0  0.12951305532E+03  0.64742022218E+02  0.32724301844E+03  0.35784515374E+03  0.00000000000E+00 0. -1.
          1    1    1    2  502    0 -0.46124153589E+02 -0.12228804813E+02  0.64847015706E+03  0.65022344298E+03  0.00000000000E+00 0. -1.
         22    1    3    3    0    0 -0.88274186263E+02 -0.30586342746E+02  0.12865663953E+04  0.12899538542E+04  0.00000000000E+00 0.  1.
         22    1    3    3    0    0  0.48852845298E+01 -0.21926874658E+02  0.38009415264E+02  0.44151664589E+02  0.00000000000E+00 0.  1.
</event>
<event>
 7    1  0.6262315E-006  0.2038447E+03  0.7818608E-02  0.1245890E+00
          2   -1    0    0  502    0  0.00000000000E+00  0.00000000000E+00  0.20813946615E+04  0.20813946615E+04  0.00000000000E+00 0. -1.
          1   -1    0    0  501    0 -0.00000000000E+00 -0.00000000000E+00 -0.17990694138E+04  0.17990694138E+04  0.00000000000E+00 0. -1.
         25    2    1    2    0    0 -0.12077899113E+03  0.12092034728E+03 -0.23713787234E+03  0.31791452851E+03  0.12500392735E+03 0.  0.
          2    1    1    2  501    0 -0.62145336962E+02 -0.29240745958E+02 -0.15156354268E+04  0.15171907630E+04  0.00000000000E+00 0. -1.
          1    1    1    2  502    0  0.18292432809E+03 -0.91679601318E+02  0.20350985469E+04  0.20453587838E+04  0.00000000000E+00 0. -1.
         22    1    3    3    0    0 -0.65647682116E+02  0.50729383563E+02 -0.20814456333E+03  0.22406973863E+03  0.00000000000E+00 0. -1.
         22    1    3    3    0    0 -0.55131309014E+02  0.70190963713E+02 -0.28993309012E+02  0.93844789882E+02  0.00000000000E+00 0. -1.
</event>
<event>
 7    1  0.6262315E-006  0.5767178E+02  0.7818608E-02  0.1415408E+00
          2   -1    0    0  502    0  0.00000000000E+00  0.00000000000E+00  0.11154545962E+03  0.11154545962E+03  0.00000000000E+00 0. -1.
          1   -1    0    0  501    0 -0.00000000000E+00 -0.00000000000E+00 -0.10058386801E+04  0.10058386801E+04  0.00000000000E+00 0. -1.
         25    2    1    2    0    0 -0.11623046987E+02  0.10766055280E+03 -0.51697474014E+03  0.54277985087E+03  0.12498477797E+03 0.  0.
          2    1    1    2  501    0  0.18462633470E+02 -0.51155399940E+02 -0.46603588437E+03  0.46919845407E+03  0.00000000000E+00 0. -1.
          1    1    1    2  502    0 -0.68395864832E+01 -0.56505152860E+02  0.88717403985E+02  0.10540583481E+03  0.00000000000E+00 0. -1.
         22    1    3    3    0    0  0.28383495788E+02 -0.87733863181E+01 -0.37996485996E+02  0.48232023477E+02  0.00000000000E+00 0. -1.
         22    1    3    3    0    0 -0.40006542775E+02  0.11643393912E+03 -0.47897825414E+03  0.49454782740E+03  0.00000000000E+00 0. -1.
</event>
<event>
 7    1  0.6262315E-006  0.7407235E+02  0.7818608E-02  0.1470932E+00
          2   -1    0    0  502    0  0.00000000000E+00  0.00000000000E+00  0.16791880919E+04  0.16791880919E+04  0.00000000000E+00 0. -1.
          1   -1    0    0  501    0 -0.00000000000E+00 -0.00000000000E+00 -0.97654094326E+03  0.97654094326E+03  0.00000000000E+00 0. -1.
         25    2    1    2    0    0 -0.45975166763E+02  0.76318212275E+02  0.40834515213E+03  0.43624497836E+03  0.12500292953E+03 0.  0.
          2    1    1    2  501    0  0.54832706363E+02 -0.49743930139E+02 -0.96101102937E+03  0.96385853881E+03  0.00000000000E+00 0. -1.
          1    1    1    2  502    0 -0.88575395997E+01 -0.26574282135E+02  0.12553130259E+04  0.12556255180E+04  0.00000000000E+00 0. -1.
         22    1    3    3    0    0  0.15571449546E+02 -0.12157124113E+02  0.20636687263E+03  0.20731027912E+03  0.00000000000E+00 0. -1.
         22    1    3    3    0    0 -0.61546616309E+02  0.88475336387E+02  0.20197827950E+03  0.22893469924E+03  0.00000000000E+00 0. -1.
</event>
<event>
 7    1  0.6262315E-006  0.1610863E+03  0.7818608E-02  0.1240779E+00
          2   -1    0    0  502    0  0.00000000000E+00  0.00000000000E+00  0.44044960816E+03  0.44044960816E+03  0.00000000000E+00 0. -1.
          1   -1    0    0  501    0 -0.00000000000E+00 -0.00000000000E+00 -0.90924301797E+03  0.90924301797E+03  0.00000000000E+00 0. -1.
         25    2    1    2    0    0  0.15152389286E+03 -0.10841549992E+03 -0.42599503932E+02  0.22837104258E+03  0.12500081849E+03 0.  0.
          2    1    1    2  501    0  0.80304899146E+01  0.91162779097E+02 -0.75231027736E+03  0.75785611727E+03  0.00000000000E+00 0. -1.
          1    1    1    2  502    0 -0.15955438277E+03  0.17252720822E+02  0.32611637148E+03  0.36346546629E+03  0.00000000000E+00 0. -1.
         22    1    3    3    0    0  0.14073289582E+03 -0.12700909571E+03 -0.10659742746E+02  0.18987018848E+03  0.00000000000E+00 0.  1.
         22    1    3    3    0    0  0.10790997040E+02  0.18593595791E+02 -0.31939761186E+02  0.38500854097E+02  0.00000000000E+00 0.  1.
</event>
<event>
 7    1  0.6262315E-006  0.5484009E+02  0.7818608E-02  0.1466141E+00
          2   -1    0    0  502    0  0.00000000000E+00  0.00000000000E+00  0.53283022720E+03  0.53283022720E+03  0.00000000000E+00 0. -1.
          1   -1    0    0  501    0 -0.00000000000E+00 -0.00000000000E+00 -0.23779774516E+03  0.23779774516E+03  0.00000000000E+00 0. -1.
         25    2    1    2    0    0  0.77335108115E+02 -0.52609995233E+02 -0.84113925580E+02  0.17733616802E+03  0.12499773384E+03 0.  0.
          2    1    1    2  501    0 -0.31957692894E+02  0.22630069658E+02 -0.10190808777E+03  0.10917267305E+03  0.00000000000E+00 0. -1.
          1    1    1    2  502    0 -0.45377415221E+02  0.29979925574E+02  0.48105449539E+03  0.48411913130E+03  0.00000000000E+00 0. -1.
         22    1    3    3    0    0  0.59887007699E+01 -0.64381836568E+02  0.22474521395E+01  0.64698813419E+02  0.00000000000E+00 0. -1.
         22    1    3    3    0    0  0.71346407345E+02  0.11771841335E+02 -0.86361377719E+02  0.11263735460E+03  0.00000000000E+00 0. -1.
</event>
<event>
 7    1  0.6262315E-006  0.1114277E+03  0.7818608E-02  0.1348186E+00
          2   -1    0    0  502    0  0.00000000000E+00  0.00000000000E+00  0.79497156426E+03  0.79497156426E+03  0.00000000000E+00 0. -1.
          1   -1    0    0  501    0 -0.00000000000E+00 -0.00000000000E+00 -0.19528472314E+04  0.19528472314E+04  0.00000000000E+00 0. -1.
         25    2    1    2    0    0 -0.22381470551E+00 -0.10073485781E+03  0.23614188063E+03  0.28554455360E+03  0.12500057054E+03 0.  0.
          2    1    1    2  501    0  0.48399537103E+02 -0.48895607208E+01 -0.19215262869E+04  0.19221419547E+04  0.00000000000E+00 0. -1.
          1    1    1    2  502    0 -0.48175722397E+02  0.10562441853E+03  0.52750873909E+03  0.54013228734E+03  0.00000000000E+00 0. -1.
         22    1    3    3    0    0 -0.41987263408E+02 -0.39571134470E+01  0.23663416201E+02  0.48358518398E+02  0.00000000000E+00 0.  1.
         22    1    3    3    0    0  0.41763448703E+02 -0.96777744363E+02  0.21247846442E+03  0.23718603520E+03  0.00000000000E+00 0.  1.
</event>
<event>
 7    1  0.6262315E-006  0.3572027E+02  0.7818608E-02  0.1550124E+00
          2   -1    0    0  502    0  0.00000000000E+00  0.00000000000E+00  0.62586759855E+03  0.62586759855E+03  0.00000000000E+00 0. -1.
          1   -1    0    0  501    0 -0.00000000000E+00 -0.00000000000E+00 -0.15507848111E+04  0.15507848111E+04  0.00000000000E+00 0. -1.
         25    2    1    2    0    0 -0.51266208126E+02  0.47088164543E+02 -0.23398684752E+03  0.27426422659E+03  0.12500200734E+03 0.  0.
          2    1    1    2  501    0  0.25112455005E+02 -0.22861638924E+02 -0.12959120822E+04  0.12963569781E+04  0.00000000000E+00 0. -1.
          1    1    1    2  502    0  0.26153753120E+02 -0.24226525619E+02  0.60498171713E+03  0.60603120498E+03  0.00000000000E+00 0. -1.
         22    1    3    3    0    0 -0.39193603867E+02  0.53390156589E+01 -0.22678882664E+03  0.23021254432E+03  0.00000000000E+00 0.  1.
         22    1    3    3    0    0 -0.12072604258E+02  0.41749148884E+02 -0.71980208779E+01  0.44051682269E+02  0.00000000000E+00 0.  1.
</event>
<event>
 7    1  0.6262315E-006  0.2649772E+03  0.7818608E-02  0.1317232E+00
          2   -1    0    0  502    0  0.00000000000E+00  0.00000000000E+00  0.18456415291E+04  0.18456415291E+04  0.00000000000E+00 0. -1.
          1   -1    0    0  501    0 -0.00000000000E+00 -0.00000000000E+00 -0.20785073658E+03  0.20785073658E+03  0.00000000000E+00 0. -1.
         25    2    1    2    0    0  0.13145704729E+03 -0.20621705001E+03  0.13420887757E+04  0.13699025396E+04  0.12499703674E+03 0.  0.
          2    1    1    2  501    0 -0.12921107618E+03  0.23295206678E+03 -0.10180533516E+03  0.28517800387E+03  0.00000000000E+00 0. -1.
          1    1    1    2  502    0 -0.22459711055E+01 -0.26735016770E+02  0.39750735196E+03  0.39841172217E+03  0.00000000000E+00 0. -1.
         22    1    3    3    0    0  0.12154899413E+03 -0.12928066470E+03  0.66076013160E+03  0.68417220036E+03  0.00000000000E+00 0.  1.
         22    1    3    3    0    0  0.99080531558E+01 -0.76936385314E+02  0.68132864407E+03  0.68573033923E+03  0.00000000000E+00 0.  1.
</event>
<event>
 7    1  0.6262315E-006  0.1347383E+03  0.7818608E-02  0.1241571E+00
          2   -1    0    0  502    0  0.00000000000E+00  0.00000000000E+00  0.83862069647E+03  0.83862069647E+03  0.00000000000E+00 0. -1.
          1   -1    0    0  501    0 -0.00000000000E+00 -0.00000000000E+00 -0.27015451837E+03  0.27015451837E+03  0.00000000000E+00 0. -1.
         25    2    1    2    0    0 -0.81568804648E+01  0.11176537735E+03  0.20502419701E+03  0.26498077561E+03  0.12498742261E+03 0.  0.
          2    1    1    2  501    0  0.11280704689E+03 -0.82979782396E+02 -0.21427066639E+03  0.25597459364E+03  0.00000000000E+00 0. -1.
          1    1    1    2  502    0 -0.10465016643E+03 -0.28785594951E+02  0.57771264748E+03  0.58781984559E+03  0.00000000000E+00 0. -1.
         22    1    3    3    0    0 -0.42693593880E+02  0.12073674534E+03  0.18190681380E+03  0.22246391515E+03  0.00000000000E+00 0.  1.
         22    1    3    3    0    0  0.34536713416E+02 -0.89713679964E+01  0.23117383212E+02  0.42516860465E+02  0.00000000000E+00 0.  1.
</event>
<event>
 7    1  0.6262315E-006  0.5308617E+02  0.7818608E-02  0.1495581E+00
          2   -1    0    0  502    0  0.00000000000E+00  0.00000000000E+00  0.89418028932E+02  0.89418028932E+02  0.00000000000E+00 0. -1.
          1   -1    0    0  501    0 -0.00000000000E+00 -0.00000000000E+00 -0.10753128445E+04  0.10753128445E+04  0.00000000000E+00 0. -1.
         25    2    1    2    0    0  0.56103584326E+01  0.29025785434E+02 -0.26137513647E+02  0.13108254811E+03  0.12500196982E+03 0.  0.
          2    1    1    2  501    0  0.19591684480E+02  0.26387022218E+02 -0.97115916411E+03  0.97171509769E+03  0.00000000000E+00 0. -1.
          1    1    1    2  502    0 -0.25202042912E+02 -0.55412807652E+02  0.11401862219E+02  0.61933227599E+02  0.00000000000E+00 0. -1.
         22    1    3    3    0    0  0.27963336575E+02 -0.34751500921E+02  0.20379004392E+02  0.49039971745E+02  0.00000000000E+00 0.  1.
         22    1    3    3    0    0 -0.22352978142E+02  0.63777286355E+02 -0.46516518040E+02  0.82042576369E+02  0.00000000000E+00 0.  1.
</event>
<event>
 7    1  0.6262315E-006  0.2124566E+03  0.7818608E-02  0.1237249E+00
          2   -1    0    0  502    0  0.00000000000E+00  0.00000000000E+00  0.42974180084E+03  0.42974180084E+03  0.00000000000E+00 0. -1.
          1   -1    0    0  501    0 -0.00000000000E+00 -0.00000000000E+00 -0.14399140764E+04  0.14399140764E+04  0.00000000000E+00 0. -1.
         25    2    1    2    0    0 -0.15680824518E+03  0.17033674870E+03 -0.86712359833E+03  0.90616400489E+03  0.12500574093E+03 0.  0.
          2    1    1    2  501    0  0.17249343555E+03 -0.10014395446E+03 -0.53188829054E+03  0.56805629170E+03  0.00000000000E+00 0. -1.
          1    1    1    2  502    0 -0.15685190369E+02 -0.70192794243E+02  0.38883961331E+03  0.39543558064E+03  0.00000000000E+00 0. -1.
         22    1    3    3    0    0 -0.44767913497E+02  0.13624686885E+03 -0.53958097985E+03  0.55831443575E+03  0.00000000000E+00 0. -1.
         22    1    3    3    0    0 -0.11204033168E+03  0.34089879853E+02 -0.32754261848E+03  0.34784956914E+03  0.00000000000E+00 0. -1.
</event>
<event>
 7    1  0.6262315E-006  0.8095987E+02  0.7818608E-02  0.1401913E+00
          2   -1    0    0  502    0  0.00000000000E+00  0.00000000000E+00  0.84929924998E+03  0.84929924998E+03  0.00000000000E+00 0. -1.
          1   -1    0    0  501    0 -0.00000000000E+00 -0.00000000000E+00 -0.11829320897E+04  0.11829320897E+04  0.00000000000E+00 0. -1.
         25    2    1    2    0    0 -0.38048306399E+02  0.17190383159E+02  0.35595559014E+02  0.13651261412E+03  0.12500186838E+03 0.  0.
          2    1    1    2  501    0  0.80779823154E+02 -0.11943780267E+02 -0.11303924761E+04  0.11333380712E+04  0.00000000000E+00 0. -1.
          1    1    1    2  502    0 -0.42731516755E+02 -0.52466028920E+01  0.76116407738E+03  0.76238065431E+03  0.00000000000E+00 0. -1.
         22    1    3    3    0    0  0.33775660719E+02  0.18597541365E+02  0.50106032481E+02  0.63224032557E+02  0.00000000000E+00 0. -1.
         22    1    3    3    0    0 -0.71823967117E+02 -0.14071582058E+01 -0.14510473467E+02  0.73288581559E+02  0.00000000000E+00 0. -1.
</event>
<event>
 7    1  0.6262315E-006  0.3986960E+02  0.7818608E-02  0.1536501E+00
          2   -1    0    0  502    0  0.00000000000E+00  0.00000000000E+00  0.62177869609E+03  0.62177869609E+03  0.00000000000E+00 0. -1.
          1   -1    0    0  501    0 -0.00000000000E+00 -0.00000000000E+00 -0.71372329641E+03  0.71372329641E+03  0.00000000000E+00 0. -1.
         25    2    1    2    0    0  0.62175453705E+02 -0.38136509449E+02 -0.15598060996E+03  0.21278125565E+03  0.12500292667E+03 0.  0.
          2    1    1    2  501    0 -0.28973750768E+02  0.16279533958E+02 -0.52815376747E+03  0.52919835936E+03  0.00000000000E+00 0. -1.
          1    1    1    2  502    0 -0.33201702937E+02  0.21856975491E+02  0.59218977711E+03  0.59352237748E+03  0.00000000000E+00 0. -1.
         22    1    3    3    0    0  0.65281280384E+02 -0.55358769894E+02 -0.38239971496E+02  0.93747183386E+02  0.00000000000E+00 0.  1.
         22    1    3    3    0    0 -0.31058266794E+01  0.17222260445E+02 -0.11774063846E+03  0.11903407227E+03  0.00000000000E+00 0.  1.
</event>
<event>
 7    1  0.6262315E-006  0.8334315E+02  0.7818608E-02  0.1478287E+00
          2   -1    0    0  502    0  0.00000000000E+00  0.00000000000E+00  0.22024050960E+04  0.22024050960E+04  0.00000000000E+00 0. -1.
          1   -1    0    0  501    0 -0.00000000000E+00 -0.00000000000E+00 -0.95025076092E+03  0.95025076092E+03  0.00000000000E+00 0. -1.
         25    2    1    2    0    0  0.39477173514E+02  0.86881187417E+02  0.43201692478E+03  0.45974711533E+03  0.12498799462E+03 0.  0.
          2    1    1    2  501    0  0.10588909275E+02 -0.21120105918E+02 -0.93526414996E+03  0.93556251212E+03  0.00000000000E+00 0. -1.
          1    1    1    2  502    0 -0.50066082790E+02 -0.65761081499E+02  0.17554015602E+04  0.17573462295E+04  0.00000000000E+00 0. -1.
         22    1    3    3    0    0  0.67265962158E+02  0.21575412673E+01  0.20889836001E+03  0.21947184207E+03  0.00000000000E+00 0. -1.
         22    1    3    3    0    0 -0.27788788644E+02  0.84723646150E+02  0.22311856477E+03  0.24027527325E+03  0.00000000000E+00 0. -1.
</event>
<event>
 7    1  0.6892012E-006  0.1361847E+03  0.7818608E-02  0.1333626E+00
          2   -1    0    0  502    0  0.00000000000E+00  0.00000000000E+00  0.73540191311E+03  0.73540191311E+03  0.00000000000E+00 0. -1.
          1   -1    0    0  501    0 -0.00000000000E+00 -0.00000000000E+00 -0.17244870798E+04  0.17244870798E+04  0.00000000000E+00 0. -1.
         25    2    1    2    0    0 -0.15568491328E+03 -0.68844575414E+02 -0.32381880763E+03  0.38661185074E+03  0.12503093685E+03 0.  0.
          2    1    1    2  501    0  0.44327147543E+02 -0.85547403506E+01 -0.13623634677E+04  0.13631112566E+04  0.00000000000E+00 0. -1.
          1    1    1    2  502    0  0.11135776574E+03  0.77399315765E+02  0.69709710870E+03  0.71016588557E+03  0.00000000000E+00 0. -1.
         22    1    3    3    0    0 -0.16239059506E+03 -0.89789144174E+02 -0.26246205667E+03  0.32143292763E+03  0.00000000000E+00 0.  1.
         22    1    3    3    0    0  0.67056817797E+01  0.20944568759E+02 -0.61356750961E+02  0.65178923105E+02  0.00000000000E+00 0.  1.
</event>
<event>
 7    1  0.6262315E-006  0.9994900E+02  0.7818608E-02  0.1296197E+00
          2   -1    0    0  502    0  0.00000000000E+00  0.00000000000E+00  0.41918449881E+03  0.41918449881E+03  0.00000000000E+00 0. -1.
          1   -1    0    0  501    0 -0.00000000000E+00 -0.00000000000E+00 -0.18047054592E+03  0.18047054592E+03  0.00000000000E+00 0. -1.
         25    2    1    2    0    0 -0.93074689792E+01 -0.18500876039E+00  0.77602881227E+02  0.14741650657E+03  0.12499102379E+03 0.  0.
          2    1    1    2  501    0 -0.96526661850E+02  0.25930801667E+02 -0.11681066309E+03  0.15373527225E+03  0.00000000000E+00 0. -1.
          1    1    1    2  502    0  0.10583413083E+03 -0.25745792907E+02  0.27792173475E+03  0.29850326589E+03  0.00000000000E+00 0. -1.
         22    1    3    3    0    0 -0.18918390957E+02 -0.45986661664E+02 -0.75060094481E+01  0.50289350217E+02  0.00000000000E+00 0. -1.
         22    1    3    3    0    0  0.96109219778E+01  0.45801652904E+02  0.85108890675E+02  0.97127156357E+02  0.00000000000E+00 0. -1.
</event>
<event>
 7    1  0.6262315E-006  0.2031748E+03  0.7818608E-02  0.1177941E+00
          2   -1    0    0  502    0  0.00000000000E+00  0.00000000000E+00  0.14639870330E+03  0.14639870330E+03  0.00000000000E+00 0. -1.
          1   -1    0    0  501    0 -0.00000000000E+00 -0.00000000000E+00 -0.14306473843E+04  0.14306473843E+04  0.00000000000E+00 0. -1.
         25    2    1    2    0    0  0.11675490630E+03 -0.30869369001E+02 -0.30599902201E+02  0.17647890370E+03  0.12499529330E+03 0.  0.
          2    1    1    2  501    0  0.77534052290E+02  0.18779898955E+03 -0.10736680899E+04  0.10927228181E+04  0.00000000000E+00 0. -1.
          1    1    1    2  502    0 -0.19428895859E+03 -0.15692962055E+03 -0.17998068891E+03  0.30784436590E+03  0.00000000000E+00 0. -1.
         22    1    3    3    0    0  0.94640995411E+02  0.36666285566E+02 -0.28344855141E+02  0.10537915032E+03  0.00000000000E+00 0.  1.
         22    1    3    3    0    0  0.22113910885E+02 -0.67535654568E+02 -0.22550470605E+01  0.71099753374E+02  0.00000000000E+00 0.  1.
</event>
<event>
 7    1  0.6262315E-006  0.6789318E+02  0.7818608E-02  0.1413295E+00
          2   -1    0    0  502    0  0.00000000000E+00  0.00000000000E+00  0.13286847146E+04  0.13286847146E+04  0.00000000000E+00 0. -1.
          1   -1    0    0  501    0 -0.00000000000E+00 -0.00000000000E+00 -0.32444678273E+02  0.32444678273E+02  0.00000000000E+00 0. -1.
         25    2    1    2    0    0 -0.28098891682E+02 -0.64901070917E+02  0.55487500939E+03  0.57316066951E+03  0.12500072119E+03 0.  0.
          2    1    1    2  501    0 -0.33805111752E+02  0.32596172939E+02  0.38090530403E+01  0.47114806121E+02  0.00000000000E+00 0. -1.
          1    1    1    2  502    0  0.61904003433E+02  0.32304897978E+02  0.73755597388E+03  0.74085391724E+03  0.00000000000E+00 0. -1.
         22    1    3    3    0    0  0.17210229455E+02 -0.14087206350E+02  0.10587794455E+02  0.24632149157E+02  0.00000000000E+00 0.  1.
         22    1    3    3    0    0 -0.45309121137E+02 -0.50813864567E+02  0.54428721494E+03  0.54852852035E+03  0.00000000000E+00 0.  1.
</event>
<event>
 7    1  0.6262315E-006  0.1376521E+03  0.7818608E-02  0.1415514E+00
          2   -1    0    0  502    0  0.00000000000E+00  0.00000000000E+00  0.65935440782E+03  0.65935440782E+03  0.00000000000E+00 0. -1.
          1   -1    0    0  501    0 -0.00000000000E+00 -0.00000000000E+00 -0.17988018965E+04  0.17988018965E+04  0.00000000000E+00 0. -1.
         25    2    1    2    0    0  0.30896612581E+02 -0.15623882352E+03 -0.85404289278E+02  0.21973757164E+03  0.12500214846E+03 0.  0.
          2    1    1    2  501    0 -0.31853058913E+01  0.22543059106E+02 -0.16382806509E+04  0.16384388383E+04  0.00000000000E+00 0. -1.
          1    1    1    2  502    0 -0.27711306690E+02  0.13369576441E+03  0.58423745150E+03  0.59997989439E+03  0.00000000000E+00 0. -1.
         22    1    3    3    0    0 -0.39624833425E+02 -0.66017203419E+02 -0.18780717944E+00  0.76996323567E+02  0.00000000000E+00 0.  1.
         22    1    3    3    0    0  0.70521446007E+02 -0.90221620097E+02 -0.85216482098E+02  0.14274124807E+03  0.00000000000E+00 0.  1.
</event>
<event>
 7    1  0.6262315E-006  0.3858302E+02  0.7818608E-02  0.1524922E+00
          2   -1    0    0  502    0  0.00000000000E+00  0.00000000000E+00  0.20311559710E+03  0.20311559710E+03  0.00000000000E+00 0. -1.
          1   -1    0    0  501    0 -0.00000000000E+00 -0.00000000000E+00 -0.24070664981E+03  0.24070664981E+03  0.00000000000E+00 0. -1.
         25    2    1    2    0    0 -0.66724482224E+01  0.40060870858E+01 -0.39074622010E+02  0.13119566327E+03  0.12499962271E+03 0.  0.
          2    1    1    2  501    0  0.68821626600E+00 -0.40585246133E+02 -0.15066043729E+03  0.15603269917E+03  0.00000000000E+00 0. -1.
          1    1    1    2  502    0  0.59842319564E+01  0.36579159048E+02  0.15214400660E+03  0.15659388447E+03  0.00000000000E+00 0. -1.
         22    1    3    3    0    0  0.46125979503E+02  0.22246775331E+02 -0.52923672459E+02  0.73644009290E+02  0.00000000000E+00 0.  1.
         22    1    3    3    0    0 -0.52798427726E+02 -0.18240688246E+02  0.13849050449E+02  0.57551653984E+02  0.00000000000E+00 0.  1.
</event>
<event>
 7    1  0.6262315E-006  0.5731774E+02  0.7818608E-02  0.1437642E+00
          2   -1    0    0  502    0  0.00000000000E+00  0.00000000000E+00  0.24753461511E+04  0.24753461511E+04  0.00000000000E+00 0. -1.
          1   -1    0    0  501    0 -0.00000000000E+00 -0.00000000000E+00 -0.44144523475E+03  0.44144523475E+03  0.00000000000E+00 0. -1.
         25    2    1    2    0    0  0.13640169331E+02 -0.64400487180E+01  0.10376246900E+03  0.16315327135E+03  0.12499924613E+03 0.  0.
          2    1    1    2  501    0 -0.57395807606E+02 -0.83701699832E+01 -0.40947799823E+03  0.41356567739E+03  0.00000000000E+00 0. -1.
          1    1    1    2  502    0  0.43755638275E+02  0.14810218701E+02  0.23396164456E+04  0.23400724372E+04  0.00000000000E+00 0. -1.
         22    1    3    3    0    0  0.60859097816E+02  0.70233456171E+00  0.15510211374E+02  0.62808357069E+02  0.00000000000E+00 0. -1.
         22    1    3    3    0    0 -0.47218928485E+02 -0.71423832797E+01  0.88252257622E+02  0.10034491428E+03  0.00000000000E+00 0. -1.
</event>
<event>
 7    1  0.6262315E-006  0.4903851E+02  0.7818608E-02  0.1483113E+00
          2   -1    0    0  502    0  0.00000000000E+00  0.00000000000E+00  0.46040049606E+03  0.46040049606E+03  0.00000000000E+00 0. -1.
          1   -1    0    0  501    0 -0.00000000000E+00 -0.00000000000E+00 -0.34524749022E+03  0.34524749022E+03  0.00000000000E+00 0. -1.
         25    2    1    2    0    0  0.32516954635E+02 -0.33080917261E+02 -0.10638079460E+03  0.17056856813E+03  0.12500025419E+03 0.  0.
          2    1    1    2  501    0  0.21250654060E+01  0.50575753522E+02 -0.20277581219E+03  0.20899869080E+03  0.00000000000E+00 0. -1.
          1    1    1    2  502    0 -0.34642020041E+02 -0.17494836261E+02  0.42430961263E+03  0.42608072735E+03  0.00000000000E+00 0. -1.
         22    1    3    3    0    0  0.79292138819E+02 -0.19075646406E+02 -0.48668119904E+02  0.94972150967E+02  0.00000000000E+00 0. -1.
         22    1    3    3    0    0 -0.46775184184E+02 -0.14005270855E+02 -0.57712674699E+02  0.75596417164E+02  0.00000000000E+00 0. -1.
</event>
<event>
 7    1  0.6262315E-006  0.1104947E+03  0.7818608E-02  0.1373727E+00
          2   -1    0    0  502    0  0.00000000000E+00  0.00000000000E+00  0.30452456995E+02  0.30452456995E+02  0.00000000000E+00 0. -1.
          1   -1    0    0  501    0 -0.00000000000E+00 -0.00000000000E+00 -0.90216095885E+03  0.90216095885E+03  0.00000000000E+00 0. -1.
         25    2    1    2    0    0  0.87275947329E+01 -0.88735818199E+02 -0.27602140030E+03  0.31585256158E+03  0.12499924357E+03 0.  0.
          2    1    1    2  501    0 -0.39831275002E+02  0.11323319966E+03 -0.43357226301E+03  0.44988131237E+03  0.00000000000E+00 0. -1.
          1    1    1    2  502    0  0.31103680269E+02 -0.24497381462E+02 -0.16211483854E+03  0.16687954189E+03  0.00000000000E+00 0. -1.
         22    1    3    3    0    0 -0.21920237819E+02 -0.46935996531E+02 -0.21465916580E+02  0.56073792194E+02  0.00000000000E+00 0. -1.
         22    1    3    3    0    0  0.30647832552E+02 -0.41799821667E+02 -0.25455548372E+03  0.25977876939E+03  0.00000000000E+00 0. -1.
</event>
<event>
 7    1  0.6262315E-006  0.6436906E+02  0.7818608E-02  0.1534117E+00
          2   -1    0    0  502    0  0.00000000000E+00  0.00000000000E+00  0.13270676561E+03  0.13270676561E+03  0.00000000000E+00 0. -1.
          1   -1    0    0  501    0 -0.00000000000E+00 -0.00000000000E+00 -0.12776590555E+03  0.12776590555E+03  0.00000000000E+00 0. -1.
         25    2    1    2    0    0 -0.48439003796E+02 -0.29281789077E+02  0.11296591378E+02  0.13769245300E+03  0.12501135299E+03 0.  0.
          2    1    1    2  501    0  0.64753829738E+02  0.16204901546E+02 -0.43839223291E+02  0.79859469061E+02  0.00000000000E+00 0. -1.
          1    1    1    2  502    0 -0.16314825942E+02  0.13076887531E+02  0.37483491971E+02  0.42920749101E+02  0.00000000000E+00 0. -1.
         22    1    3    3    0    0 -0.86719850209E+02  0.26559575108E+01  0.89720770940E+00  0.86765151485E+02  0.00000000000E+00 0. -1.
         22    1    3    3    0    0  0.38280846413E+02 -0.31937746588E+02  0.10399383668E+02  0.50927301518E+02  0.00000000000E+00 0. -1.
</event>
<event>
 7    1  0.6262315E-006  0.5745309E+02  0.7818608E-02  0.1441254E+00
          2   -1    0    0  502    0  0.00000000000E+00  0.00000000000E+00  0.36969758165E+03  0.36969758165E+03  0.00000000000E+00 0. -1.
          1   -1    0    0  501    0 -0.00000000000E+00 -0.00000000000E+00 -0.49344064995E+03  0.49344064995E+03  0.00000000000E+00 0. -1.
         25    2    1    2    0    0 -0.22640951134E+02 -0.13604632333E+02 -0.33131804369E+02  0.13198762392E+03  0.12500127087E+03 0.  0.
          2    1    1    2  501    0  0.57200634179E+02 -0.14992362373E+02 -0.40716394298E+03  0.41143548697E+03  0.00000000000E+00 0. -1.
          1    1    1    2  502    0 -0.34559683045E+02  0.28596994706E+02  0.31655267904E+03  0.31971512071E+03  0.00000000000E+00 0. -1.
         22    1    3    3    0    0 -0.39892104449E+02 -0.35350631815E+02 -0.68647811226E+02  0.86911271727E+02  0.00000000000E+00 0.  1.
         22    1    3    3    0    0  0.17251153315E+02  0.21745999482E+02  0.35516006857E+02  0.45076352195E+02  0.00000000000E+00 0.  1.
</event>
<event>
 7    1  0.6262315E-006  0.1202553E+03  0.7818608E-02  0.1339904E+00
          2   -1    0    0  502    0  0.00000000000E+00  0.00000000000E+00  0.28488321946E+03  0.28488321946E+03  0.00000000000E+00 0. -1.
          1   -1    0    0  501    0 -0.00000000000E+00 -0.00000000000E+00 -0.32498803453E+04  0.32498803453E+04  0.00000000000E+00 0. -1.
         25    2    1    2    0    0 -0.50663595723E+02 -0.13579565634E+03 -0.84875406237E+02  0.20937320337E+03  0.12500417391E+03 0.  0.
          2    1    1    2  501    0  0.45070898187E+02  0.17656689356E+02 -0.30868454075E+04  0.30872249212E+04  0.00000000000E+00 0. -1.
          1    1    1    2  502    0  0.55926975357E+01  0.11813896698E+03  0.20672368784E+03  0.23816544019E+03  0.00000000000E+00 0. -1.
         22    1    3    3    0    0 -0.26833681141E+02 -0.13029707479E+03 -0.11124019410E+03  0.17341209567E+03  0.00000000000E+00 0.  1.
         22    1    3    3    0    0 -0.23829914582E+02 -0.54985815499E+01  0.26364787863E+02  0.35961107701E+02  0.00000000000E+00 0.  1.
</event>
<event>
 7    1  0.6262315E-006  0.5896659E+02  0.7818608E-02  0.1403126E+00
          2   -1    0    0  502    0  0.00000000000E+00  0.00000000000E+00  0.24872963162E+04  0.24872963162E+04  0.00000000000E+00 0. -1.
          1   -1    0    0  501    0 -0.00000000000E+00 -0.00000000000E+00 -0.18370151121E+04  0.18370151121E+04  0.00000000000E+00 0. -1.
         25    2    1    2    0    0  0.18318144704E+02 -0.55401548453E+02  0.95451850450E+02  0.16774965934E+03  0.12499602577E+03 0.  0.
          2    1    1    2  501    0 -0.57514718285E+02  0.10944522153E+02 -0.18000173914E+04  0.18009692764E+04  0.00000000000E+00 0. -1.
          1    1    1    2  502    0  0.39196573581E+02  0.44457026301E+02  0.23548467450E+04  0.23555924925E+04  0.00000000000E+00 0. -1.
         22    1    3    3    0    0  0.35523262678E+01  0.27796589050E+02 -0.12479791427E+02  0.30675960927E+02  0.00000000000E+00 0. -1.
         22    1    3    3    0    0  0.14765818436E+02 -0.83198137504E+02  0.10793164188E+03  0.13707369841E+03  0.00000000000E+00 0. -1.
</event>
<event>
 7    1  0.6262315E-006  0.1531342E+03  0.7818608E-02  0.1318961E+00
          2   -1    0    0  502    0  0.00000000000E+00  0.00000000000E+00  0.12762679564E+04  0.12762679564E+04  0.00000000000E+00 0. -1.
          1   -1    0    0  501    0 -0.00000000000E+00 -0.00000000000E+00 -0.23144191723E+03  0.23144191723E+03  0.00000000000E+00 0. -1.
         25    2    1    2    0    0 -0.21598251587E+02 -0.10895295073E+03  0.31663443625E+03  0.35807864906E+03  0.12500289097E+03 0.  0.
          2    1    1    2  501    0  0.31140506269E+02  0.15365636406E+03 -0.18090393299E+03  0.23938722255E+03  0.00000000000E+00 0. -1.
          1    1    1    2  502    0 -0.95422546823E+01 -0.44703413328E+02  0.90909553587E+03  0.91024400197E+03  0.00000000000E+00 0. -1.
         22    1    3    3    0    0  0.49042038260E+02 -0.44597566009E+02  0.87166039760E+02  0.10950791249E+03  0.00000000000E+00 0.  1.
         22    1    3    3    0    0 -0.70640289847E+02 -0.64355384719E+02  0.22946839649E+03  0.24857073657E+03  0.00000000000E+00 0.  1.
</event>
<event>
 7    1  0.6262315E-006  0.7023263E+02  0.7818608E-02  0.1384907E+00
          2   -1    0    0  502    0  0.00000000000E+00  0.00000000000E+00  0.13946984219E+03  0.13946984219E+03  0.00000000000E+00 0. -1.
          1   -1    0    0  501    0 -0.00000000000E+00 -0.00000000000E+00 -0.51033278358E+03  0.51033278358E+03  0.00000000000E+00 0. -1.
         25    2    1    2    0    0  0.11625067523E+03 -0.97543296218E+01 -0.17723174742E+03  0.24626429129E+03  0.12500256970E+03 0.  0.
          2    1    1    2  501    0 -0.61179547284E+02  0.23888079693E+02 -0.28689158656E+03  0.29431337006E+03  0.00000000000E+00 0. -1.
          1    1    1    2  502    0 -0.55071127949E+02 -0.14133750071E+02  0.93260392591E+02  0.10922496441E+03  0.00000000000E+00 0. -1.
         22    1    3    3    0    0  0.99617663482E+02  0.47520054096E+02 -0.12726936906E+03  0.16846164762E+03  0.00000000000E+00 0. -1.
         22    1    3    3    0    0  0.16633011752E+02 -0.57274383717E+02 -0.49962378365E+02  0.77802643670E+02  0.00000000000E+00 0. -1.
</event>
<event>
 7    1  0.6262315E-006  0.5696113E+02  0.7818608E-02  0.1454858E+00
          2   -1    0    0  502    0  0.00000000000E+00  0.00000000000E+00  0.56890661305E+03  0.56890661305E+03  0.00000000000E+00 0. -1.
          1   -1    0    0  501    0 -0.00000000000E+00 -0.00000000000E+00 -0.55125889237E+03  0.55125889237E+03  0.00000000000E+00 0. -1.
         25    2    1    2    0    0 -0.23534857326E+01  0.28310687545E+02  0.45898192832E+03  0.47654718717E+03  0.12500310856E+03 0.  0.
          2    1    1    2  501    0  0.54678489948E+02  0.15963498179E+02 -0.52915694507E+03  0.53221390723E+03  0.00000000000E+00 0. -1.
          1    1    1    2  502    0 -0.52325004215E+02 -0.44274185724E+02  0.87822737425E+02  0.11140441103E+03  0.00000000000E+00 0. -1.
         22    1    3    3    0    0 -0.31163070443E+02  0.69831536510E+02  0.24384311267E+03  0.25555242916E+03  0.00000000000E+00 0. -1.
         22    1    3    3    0    0  0.28809584710E+02 -0.41520848964E+02  0.21513881565E+03  0.22099475801E+03  0.00000000000E+00 0. -1.
</event>
<event>
 7    1  0.6262315E-006  0.1128145E+03  0.7818608E-02  0.1354451E+00
          2   -1    0    0  502    0  0.00000000000E+00  0.00000000000E+00  0.13941996016E+04  0.13941996016E+04  0.00000000000E+00 0. -1.
          1   -1    0    0  501    0 -0.00000000000E+00 -0.00000000000E+00 -0.48903748074E+03  0.48903748074E+03  0.00000000000E+00 0. -1.
         25    2    1    2    0    0  0.77293879653E+02 -0.12542329114E+03  0.18122274302E+03  0.26491118404E+03  0.12502362597E+03 0.  0.
          2    1    1    2  501    0 -0.78277620288E+02  0.79881980238E+02 -0.43974788790E+03  0.45374742040E+03  0.00000000000E+00 0. -1.
          1    1    1    2  502    0  0.98374063432E+00  0.45541310900E+02  0.11636872657E+04  0.11645784779E+04  0.00000000000E+00 0. -1.
         22    1    3    3    0    0 -0.53787429494E+00 -0.15663849908E+02  0.11293999942E+03  0.11402231787E+03  0.00000000000E+00 0. -1.
         22    1    3    3    0    0  0.77831753948E+02 -0.10975944123E+03  0.68282743598E+02  0.15088886617E+03  0.00000000000E+00 0. -1.
</event>
<event>
 7    1  0.6262315E-006  0.8092936E+02  0.7818608E-02  0.1378295E+00
          2   -1    0    0  502    0  0.00000000000E+00  0.00000000000E+00  0.11329538845E+03  0.11329538845E+03  0.00000000000E+00 0. -1.
          1   -1    0    0  501    0 -0.00000000000E+00 -0.00000000000E+00 -0.12659424705E+04  0.12659424705E+04  0.00000000000E+00 0. -1.
         25    2    1    2    0    0  0.55059672878E+02 -0.55894733188E+02 -0.47336255109E+02  0.15498660399E+03  0.12499735034E+03 0.  0.
          2    1    1    2  501    0 -0.43388591693E+02 -0.28783916097E+02 -0.11331555854E+04  0.11343512086E+04  0.00000000000E+00 0. -1.
          1    1    1    2  502    0 -0.11671081185E+02  0.84678649285E+02  0.27844758390E+02  0.89900046443E+02  0.00000000000E+00 0. -1.
         22    1    3    3    0    0 -0.37159472186E+02 -0.38419737332E+02 -0.12687380954E+02  0.54935163832E+02  0.00000000000E+00 0. -1.
         22    1    3    3    0    0  0.92219145064E+02 -0.17474995855E+02 -0.34648874155E+02  0.10005144015E+03  0.00000000000E+00 0. -1.
</event>
<event>
 7    1  0.6262315E-006  0.1222131E+03  0.7818608E-02  0.1306417E+00
          2   -1    0    0  502    0  0.00000000000E+00  0.00000000000E+00  0.24875466748E+03  0.24875466748E+03  0.00000000000E+00 0. -1.
          1   -1    0    0  501    0 -0.00000000000E+00 -0.00000000000E+00 -0.17301170679E+04  0.17301170679E+04  0.00000000000E+00 0. -1.
         25    2    1    2    0    0 -0.61773119820E+02 -0.26063895767E+02 -0.20383833127E+03  0.24833771838E+03  0.12500524821E+03 0.  0.
          2    1    1    2  501    0 -0.63649320919E+02  0.80030571896E+01 -0.14855599401E+04  0.14869443906E+04  0.00000000000E+00 0. -1.
          1    1    1    2  502    0  0.12542244074E+03  0.18060838577E+02  0.20803587093E+03  0.24358962647E+03  0.00000000000E+00 0. -1.
         22    1    3    3    0    0 -0.19671774602E+02  0.48726857786E+02 -0.10515210315E+03  0.11755105352E+03  0.00000000000E+00 0. -1.
         22    1    3    3    0    0 -0.42101345218E+02 -0.74790753552E+02 -0.98686228117E+02  0.13078666486E+03  0.00000000000E+00 0. -1.
</event>
<event>
 7    1  0.6262315E-006  0.2059863E+03  0.7818608E-02  0.1343999E+00
          2   -1    0    0  502    0  0.00000000000E+00  0.00000000000E+00  0.27691272402E+04  0.27691272402E+04  0.00000000000E+00 0. -1.
          1   -1    0    0  501    0 -0.00000000000E+00 -0.00000000000E+00 -0.13195071257E+04  0.13195071257E+04  0.00000000000E+00 0. -1.
         25    2    1    2    0    0  0.15699768683E+02 -0.21057293945E+03 -0.45762520870E+03  0.51926245889E+03  0.12500089603E+03 0.  0.
          2    1    1    2  501    0 -0.26831005731E+02  0.49150181979E+01 -0.82696535298E+03  0.82741510458E+03  0.00000000000E+00 0. -1.
          1    1    1    2  502    0  0.11131237047E+02  0.20565792125E+03  0.27342106762E+04  0.27419568025E+04  0.00000000000E+00 0. -1.
         22    1    3    3    0    0  0.18200284186E+02 -0.18356966385E+03 -0.25443740238E+03  0.31427291255E+03  0.00000000000E+00 0. -1.
         22    1    3    3    0    0 -0.25005155025E+01 -0.27003275593E+02 -0.20318780633E+03  0.20498954634E+03  0.00000000000E+00 0. -1.
</event>
<event>
 7    1  0.6262315E-006  0.1520036E+03  0.7818608E-02  0.1233075E+00
          2   -1    0    0  502    0  0.00000000000E+00  0.00000000000E+00  0.80361198848E+03  0.80361198848E+03  0.00000000000E+00 0. -1.
          1   -1    0    0  501    0 -0.00000000000E+00 -0.00000000000E+00 -0.38460818317E+03  0.38460818317E+03  0.00000000000E+00 0. -1.
         25    2    1    2    0    0 -0.20672100074E+03 -0.11246829256E+03 -0.35047420948E+02  0.26877267640E+03  0.12501096307E+03 0.  0.
          2    1    1    2  501    0  0.13248846213E+03  0.38325824250E+02 -0.20775991999E+03  0.24937170200E+03  0.00000000000E+00 0. -1.
          1    1    1    2  502    0  0.74232538616E+02  0.74142468308E+02  0.66181114625E+03  0.67007579325E+03  0.00000000000E+00 0. -1.
         22    1    3    3    0    0 -0.39539410490E+02 -0.57195500673E+02  0.36713802683E+02  0.78629470216E+02  0.00000000000E+00 0.  1.
         22    1    3    3    0    0 -0.16718159025E+03 -0.55272791885E+02 -0.71761223631E+02  0.19014320619E+03  0.00000000000E+00 0.  1.
</event>
<event>
 7    1  0.6262315E-006  0.3015473E+02  0.7818608E-02  0.1634059E+00
          2   -1    0    0  502    0  0.00000000000E+00  0.00000000000E+00  0.12904217920E+03  0.12904217920E+03  0.00000000000E+00 0. -1.
          1   -1    0    0  501    0 -0.00000000000E+00 -0.00000000000E+00 -0.93986259526E+03  0.93986259526E+03  0.00000000000E+00 0. -1.
         25    2    1    2    0    0 -0.50064920739E+02 -0.15543592146E+01 -0.22355946033E+02  0.13650540826E+03  0.12500010335E+03 0.  0.
          2    1    1    2  501    0  0.27922181538E+02  0.11178297546E+02 -0.85813607480E+03  0.85866298711E+03  0.00000000000E+00 0. -1.
          1    1    1    2  502    0  0.22142739201E+02 -0.96239383316E+01  0.69671604781E+02  0.73736379088E+02  0.00000000000E+00 0. -1.
         22    1    3    3    0    0  0.15485314701E+02 -0.49055781920E+02  0.34022056168E+01  0.51554240507E+02  0.00000000000E+00 0.  1.
         22    1    3    3    0    0 -0.65550235440E+02  0.47501422706E+02 -0.25758151650E+02  0.84951167748E+02  0.00000000000E+00 0.  1.
</event>
<event>
 7    1  0.6262315E-006  0.7421222E+02  0.7818608E-02  0.1364382E+00
          2   -1    0    0  502    0  0.00000000000E+00  0.00000000000E+00  0.92652613716E+03  0.92652613716E+03  0.00000000000E+00 0. -1.
          1   -1    0    0  501    0 -0.00000000000E+00 -0.00000000000E+00 -0.76489329010E+03  0.76489329010E+03  0.00000000000E+00 0. -1.
         25    2    1    2    0    0 -0.75119819385E+02  0.74748354406E+02  0.22100700013E+03  0.27513611892E+03  0.12500194429E+03 0.  0.
          2    1    1    2  501    0  0.11440293098E+02 -0.73238104238E+02 -0.73446396189E+03  0.73819510397E+03  0.00000000000E+00 0. -1.
          1    1    1    2  502    0  0.63679526287E+02 -0.15102501688E+01  0.67508980882E+03  0.67808820436E+03  0.00000000000E+00 0. -1.
         22    1    3    3    0    0 -0.22446373079E+02  0.65456187927E+02  0.27649920256E+02  0.74517583781E+02  0.00000000000E+00 0. -1.
         22    1    3    3    0    0 -0.52673446306E+02  0.92921664791E+01  0.19335707987E+03  0.20061853513E+03  0.00000000000E+00 0. -1.
</event>
<event>
 7    1  0.6262315E-006  0.1134035E+03  0.7818608E-02  0.1404865E+00
          2   -1    0    0  502    0  0.00000000000E+00  0.00000000000E+00  0.21285271870E+03  0.21285271870E+03  0.00000000000E+00 0. -1.
          1   -1    0    0  501    0 -0.00000000000E+00 -0.00000000000E+00 -0.94306467254E+03  0.94306467254E+03  0.00000000000E+00 0. -1.
         25    2    1    2    0    0  0.34761607630E+02  0.89314586042E+02 -0.39086917195E+03  0.42141352285E+03  0.12500073204E+03 0.  0.
          2    1    1    2  501    0 -0.27643050815E+02 -0.11848751968E+03 -0.52883309576E+03  0.54264894154E+03  0.00000000000E+00 0. -1.
          1    1    1    2  502    0 -0.71185568150E+01  0.29172933641E+02  0.18949031388E+03  0.19185492686E+03  0.00000000000E+00 0. -1.
         22    1    3    3    0    0  0.78396775277E+02  0.52989328857E+02 -0.29699812201E+03  0.31170788861E+03  0.00000000000E+00 0.  1.
         22    1    3    3    0    0 -0.43635167647E+02  0.36325257186E+02 -0.93871049944E+02  0.10970563423E+03  0.00000000000E+00 0.  1.
</event>
<event>
 7    1  0.6262315E-006  0.9087547E+02  0.7818608E-02  0.1365231E+00
          2   -1    0    0  502    0  0.00000000000E+00  0.00000000000E+00  0.87499790345E+03  0.87499790345E+03  0.00000000000E+00 0. -1.
          1   -1    0    0  501    0 -0.00000000000E+00 -0.00000000000E+00 -0.40302874152E+03  0.40302874152E+03  0.00000000000E+00 0. -1.
         25    2    1    2    0    0 -0.12958688760E+03  0.27437706950E+02  0.92596278028E+02  0.20431498628E+03  0.12499981485E+03 0.  0.
          2    1    1    2  501    0  0.50078781290E+02  0.12644352479E+02 -0.34249773081E+03  0.34637040808E+03  0.00000000000E+00 0. -1.
          1    1    1    2  502    0  0.79508106312E+02 -0.40082059429E+02  0.72187061471E+03  0.72734125061E+03  0.00000000000E+00 0. -1.
         22    1    3    3    0    0 -0.30122893596E+02 -0.23219501038E+02 -0.22330693230E+02  0.44104351341E+02  0.00000000000E+00 0.  1.
         22    1    3    3    0    0 -0.99463994006E+02  0.50657207988E+02  0.11492697126E+03  0.16021063494E+03  0.00000000000E+00 0.  1.
</event>
<event>
 7    1  0.6262315E-006  0.9433880E+02  0.7818608E-02  0.1359376E+00
          2   -1    0    0  502    0  0.00000000000E+00  0.00000000000E+00  0.21057468869E+03  0.21057468869E+03  0.00000000000E+00 0. -1.
          1   -1    0    0  501    0 -0.00000000000E+00 -0.00000000000E+00 -0.43238426292E+03  0.43238426292E+03  0.00000000000E+00 0. -1.
         25    2    1    2    0    0  0.58767830926E+02 -0.32575464187E-01  0.30327475297E+02  0.14141471731E+03  0.12499882999E+03 0.  0.
          2    1    1    2  501    0  0.50947093955E+02 -0.11616004359E+02 -0.35011219335E+03  0.35399023415E+03  0.00000000000E+00 0. -1.
          1    1    1    2  502    0 -0.10971492488E+03  0.11648579823E+02  0.97975143825E+02  0.14755400015E+03  0.00000000000E+00 0. -1.
         22    1    3    3    0    0  0.81509773970E+02  0.40670843391E+02  0.14905205551E+02  0.92304528098E+02  0.00000000000E+00 0. -1.
         22    1    3    3    0    0 -0.22741943044E+02 -0.40703418855E+02  0.15422269746E+02  0.49110189208E+02  0.00000000000E+00 0. -1.
</event>
<event>
 7    1  0.6262315E-006  0.5051292E+02  0.7818608E-02  0.1501448E+00
          2   -1    0    0  502    0  0.00000000000E+00  0.00000000000E+00  0.13528119599E+04  0.13528119599E+04  0.00000000000E+00 0. -1.
          1   -1    0    0  501    0 -0.00000000000E+00 -0.00000000000E+00 -0.13165274350E+02  0.13165274350E+02  0.00000000000E+00 0. -1.
         25    2    1    2    0    0 -0.27621085046E+02  0.31254898002E+02  0.61917181330E+03  0.63303894775E+03  0.12499912799E+03 0.  0.
          2    1    1    2  501    0  0.32288583128E+01 -0.53735461515E+02  0.11969520594E+03  0.13124354336E+03  0.00000000000E+00 0. -1.
          1    1    1    2  502    0  0.24392226733E+02  0.22480563513E+02  0.60077966627E+03  0.60169474309E+03  0.00000000000E+00 0. -1.
         22    1    3    3    0    0  0.11374323352E+02 -0.37379320982E+02  0.35994940369E+03  0.36206375417E+03  0.00000000000E+00 0.  1.
         22    1    3    3    0    0 -0.38995408398E+02  0.68634218983E+02  0.25922240962E+03  0.27097519358E+03  0.00000000000E+00 0.  1.
</event>
<event>
 7    1  0.6262315E-006  0.1110136E+03  0.7818608E-02  0.1259682E+00
          2   -1    0    0  502    0  0.00000000000E+00  0.00000000000E+00  0.33680267764E+04  0.33680267764E+04  0.00000000000E+00 0. -1.
          1   -1    0    0  501    0 -0.00000000000E+00 -0.00000000000E+00 -0.19898956576E+03  0.19898956576E+03  0.00000000000E+00 0. -1.
         25    2    1    2    0    0  0.54150854369E+02  0.71252870087E+02  0.12482121051E+03  0.19802364614E+03  0.12499497315E+03 0.  0.
          2    1    1    2  501    0  0.48931171595E+02 -0.10950454570E+03 -0.13916227401E+03  0.18371620394E+03  0.00000000000E+00 0. -1.
          1    1    1    2  502    0 -0.10308202596E+03  0.38251675611E+02  0.31833782741E+04  0.31852764921E+04  0.00000000000E+00 0. -1.
         22    1    3    3    0    0  0.23462192950E+02  0.99491851637E+02  0.11739740712E+03  0.15566391437E+03  0.00000000000E+00 0. -1.
         22    1    3    3    0    0  0.30688661420E+02 -0.28238981550E+02  0.74238033937E+01  0.42359731769E+02  0.00000000000E+00 0. -1.
</event>
<event>
 7    1  0.6262315E-006  0.5949953E+02  0.7818608E-02  0.1505848E+00
          2   -1    0    0  502    0  0.00000000000E+00  0.00000000000E+00  0.29396136788E+03  0.29396136788E+03  0.00000000000E+00 0. -1.
          1   -1    0    0  501    0 -0.00000000000E+00 -0.00000000000E+00 -0.61409193090E+03  0.61409193090E+03  0.00000000000E+00 0. -1.
         25    2    1    2    0    0 -0.59977370314E+02 -0.19775085132E+02  0.44379882620E+01  0.14011336387E+03  0.12499488011E+03 0.  0.
          2    1    1    2  501    0  0.43006997986E+02  0.41193929452E+02 -0.54378023995E+03  0.54703152657E+03  0.00000000000E+00 0. -1.
          1    1    1    2  502    0  0.16970372327E+02 -0.21418844320E+02  0.21921168867E+03  0.22090840835E+03  0.00000000000E+00 0. -1.
         22    1    3    3    0    0 -0.34173528605E+02  0.43300286429E+02  0.35102369209E+02  0.65382881446E+02  0.00000000000E+00 0. -1.
         22    1    3    3    0    0 -0.25803841708E+02 -0.63075371561E+02 -0.30664380947E+02  0.74730482424E+02  0.00000000000E+00 0. -1.
</event>
<event>
 7    1  0.6262315E-006  0.1138363E+03  0.7818608E-02  0.1297616E+00
          2   -1    0    0  502    0  0.00000000000E+00  0.00000000000E+00  0.22664816020E+04  0.22664816020E+04  0.00000000000E+00 0. -1.
          1   -1    0    0  501    0 -0.00000000000E+00 -0.00000000000E+00 -0.19570292792E+02  0.19570292792E+02  0.00000000000E+00 0. -1.
         25    2    1    2    0    0 -0.11436970480E+03  0.53962248285E+01  0.14954946515E+04  0.15050708808E+04  0.12499821995E+03 0.  0.
          2    1    1    2  501    0  0.15151931228E+02  0.73118276628E+02  0.16560553460E+03  0.18166192910E+03  0.00000000000E+00 0. -1.
          1    1    1    2  502    0  0.99217773572E+02 -0.78514501457E+02  0.58581112311E+03  0.59931908488E+03  0.00000000000E+00 0. -1.
         22    1    3    3    0    0  0.88571717391E+01 -0.21481627925E+02  0.65025641725E+02  0.69052472159E+02  0.00000000000E+00 0. -1.
         22    1    3    3    0    0 -0.12322687654E+03  0.26877852753E+02  0.14304690097E+04  0.14360184086E+04  0.00000000000E+00 0. -1.
</event>
<event>
 7    1  0.6262315E-006  0.9085351E+02  0.7818608E-02  0.1384998E+00
          2   -1    0    0  502    0  0.00000000000E+00  0.00000000000E+00  0.90491667278E+03  0.90491667278E+03  0.00000000000E+00 0. -1.
          1   -1    0    0  501    0 -0.00000000000E+00 -0.00000000000E+00 -0.46833152826E+03  0.46833152826E+03  0.00000000000E+00 0. -1.
         25    2    1    2    0    0 -0.26892311943E+02 -0.84285516078E+02  0.20109808697E+03  0.25277238894E+03  0.12500478137E+03 0.  0.
          2    1    1    2  501    0  0.43435423920E+02 -0.64999615477E+01 -0.43825161938E+03  0.44044678162E+03  0.00000000000E+00 0. -1.
          1    1    1    2  502    0 -0.16543111977E+02  0.90785477626E+02  0.67373867692E+03  0.68002903047E+03  0.00000000000E+00 0. -1.
         22    1    3    3    0    0  0.21563261177E+02  0.25106596107E+02  0.36287725196E+02  0.49113281305E+02  0.00000000000E+00 0.  1.
         22    1    3    3    0    0 -0.48455573121E+02 -0.10939211218E+03  0.16481036178E+03  0.20365910764E+03  0.00000000000E+00 0.  1.
</event>
<event>
 7    1  0.6262315E-006  0.6382913E+02  0.7818608E-02  0.1437279E+00
          2   -1    0    0  502    0  0.00000000000E+00  0.00000000000E+00  0.92378469484E+02  0.92378469484E+02  0.00000000000E+00 0. -1.
          1   -1    0    0  501    0 -0.00000000000E+00 -0.00000000000E+00 -0.79068715986E+03  0.79068715986E+03  0.00000000000E+00 0. -1.
         25    2    1    2    0    0 -0.73797290590E+02 -0.72176069300E+02 -0.38662019421E+02  0.16665935029E+03  0.12500064886E+03 0.  0.
          2    1    1    2  501    0  0.50269507854E+02  0.37874994583E+02 -0.67047692718E+03  0.67342471630E+03  0.00000000000E+00 0. -1.
          1    1    1    2  502    0  0.23527782736E+02  0.34301074718E+02  0.10830256229E+02  0.42981562760E+02  0.00000000000E+00 0. -1.
         22    1    3    3    0    0 -0.31323432115E+01  0.14406004864E+02 -0.52053805023E+02  0.54101230739E+02  0.00000000000E+00 0. -1.
         22    1    3    3    0    0 -0.70664947379E+02 -0.86582074164E+02  0.13391785602E+02  0.11255811955E+03  0.00000000000E+00 0. -1.
</event>
<event>
 7    1  0.6262315E-006  0.5102686E+02  0.7818608E-02  0.1446877E+00
          2   -1    0    0  502    0  0.00000000000E+00  0.00000000000E+00  0.21741447371E+04  0.21741447371E+04  0.00000000000E+00 0. -1.
          1   -1    0    0  501    0 -0.00000000000E+00 -0.00000000000E+00 -0.23261702946E+03  0.23261702946E+03  0.00000000000E+00 0. -1.
         25    2    1    2    0    0  0.20189272240E+02  0.17551287579E+02  0.12766940472E+03  0.18066177666E+03  0.12499418480E+03 0.  0.
          2    1    1    2  501    0 -0.37115609501E+02  0.31126117901E+02 -0.20294120379E+03  0.20864212394E+03  0.00000000000E+00 0. -1.
          1    1    1    2  502    0  0.16926337260E+02 -0.48677405480E+02  0.20167995068E+04  0.20174578660E+04  0.00000000000E+00 0. -1.
         22    1    3    3    0    0  0.81947484023E+01  0.71544211601E+02  0.80085758550E+02  0.10770077454E+03  0.00000000000E+00 0.  1.
         22    1    3    3    0    0  0.11994523838E+02 -0.53992924022E+02  0.47583646174E+02  0.72961002115E+02  0.00000000000E+00 0.  1.
</event>
<event>
 7    1  0.6274401E-006  0.8557371E+02  0.7818608E-02  0.1350750E+00
          2   -1    0    0  502    0  0.00000000000E+00  0.00000000000E+00  0.12894570181E+04  0.12894570181E+04  0.00000000000E+00 0. -1.
          1   -1    0    0  501    0 -0.00000000000E+00 -0.00000000000E+00 -0.16067349524E+04  0.16067349524E+04  0.00000000000E+00 0. -1.
         25    2    1    2    0    0  0.96153716795E+02 -0.61913133828E+02 -0.40516869312E+02  0.17420102138E+03  0.12500242300E+03 0.  0.
          2    1    1    2  501    0 -0.10744568640E+02  0.61032614365E+02 -0.14972424675E+04  0.14985244183E+04  0.00000000000E+00 0. -1.
          1    1    1    2  502    0 -0.85409148155E+02  0.88051946339E+00  0.12204814025E+04  0.12234665307E+04  0.00000000000E+00 0. -1.
         22    1    3    3    0    0 -0.39126972285E+01  0.17769686338E+02  0.24652632314E+02  0.30640222456E+02  0.00000000000E+00 0. -1.
         22    1    3    3    0    0  0.10006641402E+03 -0.79682820167E+02 -0.65169501626E+02  0.14356079892E+03  0.00000000000E+00 0. -1.
</event>
<event>
 7    1  0.6262315E-006  0.7432914E+02  0.7818608E-02  0.1428438E+00
          2   -1    0    0  502    0  0.00000000000E+00  0.00000000000E+00  0.15944096572E+04  0.15944096572E+04  0.00000000000E+00 0. -1.
          1   -1    0    0  501    0 -0.00000000000E+00 -0.00000000000E+00 -0.38910863014E+03  0.38910863014E+03  0.00000000000E+00 0. -1.
         25    2    1    2    0    0 -0.41334382890E+02  0.50856642339E+02 -0.68059598913E+02  0.15668837148E+03  0.12499682985E+03 0.  0.
          2    1    1    2  501    0  0.71313883573E+02 -0.27207532465E+02 -0.27123110448E+03  0.28176627167E+03  0.00000000000E+00 0. -1.
          1    1    1    2  502    0 -0.29979500683E+02 -0.23649109875E+02  0.15445917305E+04  0.15450636442E+04  0.00000000000E+00 0. -1.
         22    1    3    3    0    0 -0.10328653686E+02 -0.40287339912E+02 -0.36610874872E+02  0.55408546299E+02  0.00000000000E+00 0.  1.
         22    1    3    3    0    0 -0.31005729204E+02  0.91143982251E+02 -0.31448724041E+02  0.10127982518E+03  0.00000000000E+00 0.  1.
</event>
<event>
 7    1  0.6262315E-006  0.1171900E+03  0.7818608E-02  0.1275396E+00
          2   -1    0    0  502    0  0.00000000000E+00  0.00000000000E+00  0.42446496911E+03  0.42446496911E+03  0.00000000000E+00 0. -1.
          1   -1    0    0  501    0 -0.00000000000E+00 -0.00000000000E+00 -0.33681915116E+03  0.33681915116E+03  0.00000000000E+00 0. -1.
         25    2    1    2    0    0 -0.19834090434E+03 -0.10138993510E+02  0.53007258507E+02  0.24057194294E+03  0.12499270680E+03 0.  0.
          2    1    1    2  501    0  0.11003784869E+03 -0.39412130977E+01 -0.22261715123E+03  0.24835912975E+03  0.00000000000E+00 0. -1.
          1    1    1    2  502    0  0.88303055651E+02  0.14080206608E+02  0.25725571068E+03  0.27235304759E+03  0.00000000000E+00 0. -1.
         22    1    3    3    0    0 -0.71113464777E+02  0.29707169725E+02  0.72527290381E+02  0.10582933741E+03  0.00000000000E+00 0. -1.
         22    1    3    3    0    0 -0.12722743956E+03 -0.39846163235E+02 -0.19520031875E+02  0.13474260553E+03  0.00000000000E+00 0. -1.
</event>
<event>
 7    1  0.6262315E-006  0.1442186E+03  0.7818608E-02  0.1213936E+00
          2   -1    0    0  502    0  0.00000000000E+00  0.00000000000E+00  0.23539623912E+04  0.23539623912E+04  0.00000000000E+00 0. -1.
          1   -1    0    0  501    0 -0.00000000000E+00 -0.00000000000E+00 -0.69137398933E+03  0.69137398933E+03  0.00000000000E+00 0. -1.
         25    2    1    2    0    0  0.49315320433E+02  0.13642043664E+02  0.14490991552E+03  0.19809289174E+03  0.12499521573E+03 0.  0.
          2    1    1    2  501    0 -0.72382423984E+00  0.13502972978E+03 -0.65508515933E+03  0.66885732246E+03  0.00000000000E+00 0. -1.
          1    1    1    2  502    0 -0.48591496193E+02 -0.14867177344E+03  0.21727636457E+04  0.21783861664E+04  0.00000000000E+00 0. -1.
         22    1    3    3    0    0  0.60048161554E+02 -0.38767295740E+02  0.11860892105E+03  0.13848018297E+03  0.00000000000E+00 0.  1.
         22    1    3    3    0    0 -0.10732841121E+02  0.52409339404E+02  0.26300994478E+02  0.59612708761E+02  0.00000000000E+00 0.  1.
</event>
<event>
 7    1  0.6262315E-006  0.9140903E+02  0.7818608E-02  0.1410161E+00
          2   -1    0    0  502    0  0.00000000000E+00  0.00000000000E+00  0.14837090478E+04  0.14837090478E+04  0.00000000000E+00 0. -1.
          1   -1    0    0  501    0 -0.00000000000E+00 -0.00000000000E+00 -0.36458213796E+03  0.36458213796E+03  0.00000000000E+00 0. -1.
         25    2    1    2    0    0 -0.11306911906E+03  0.13726120780E+01  0.21919465060E+03  0.27650980397E+03  0.12499946837E+03 0.  0.
          2    1    1    2  501    0  0.25764416875E+02 -0.24770954904E+02 -0.33331529789E+03  0.33522603299E+03  0.00000000000E+00 0. -1.
          1    1    1    2  502    0  0.87304702181E+02  0.23398342826E+02  0.12332475571E+04  0.12365553488E+04  0.00000000000E+00 0. -1.
         22    1    3    3    0    0 -0.11563189451E+03  0.42236922703E+02  0.13385827507E+03  0.18185909511E+03  0.00000000000E+00 0.  1.
         22    1    3    3    0    0  0.25627754548E+01 -0.40864310625E+02  0.85336375527E+02  0.94650708866E+02  0.00000000000E+00 0.  1.
</event>
<event>
 7    1  0.6262315E-006  0.1342689E+03  0.7818608E-02  0.1373007E+00
          2   -1    0    0  502    0  0.00000000000E+00  0.00000000000E+00  0.39370518032E+03  0.39370518032E+03  0.00000000000E+00 0. -1.
          1   -1    0    0  501    0 -0.00000000000E+00 -0.00000000000E+00 -0.17010358201E+04  0.17010358201E+04  0.00000000000E+00 0. -1.
         25    2    1    2    0    0 -0.73457353353E+02 -0.70677277480E+02  0.19033559356E+03  0.24948569047E+03  0.12499684499E+03 0.  0.
          2    1    1    2  501    0  0.98400974228E+02  0.91938983692E+02 -0.16671758916E+04  0.16726060451E+04  0.00000000000E+00 0. -1.
          1    1    1    2  502    0 -0.24943620875E+02 -0.21261706212E+02  0.16950965833E+03  0.17264926481E+03  0.00000000000E+00 0. -1.
         22    1    3    3    0    0  0.27652388549E+02 -0.26022205035E+02  0.99228453508E+02  0.10624545041E+03  0.00000000000E+00 0. -1.
         22    1    3    3    0    0 -0.10110974190E+03 -0.44655072445E+02  0.91107140056E+02  0.14324024006E+03  0.00000000000E+00 0. -1.
</event>
<event>
 7    1  0.6758981E-006  0.5029749E+02  0.7818608E-02  0.1455153E+00
          2   -1    0    0  502    0  0.00000000000E+00  0.00000000000E+00  0.96185868248E+03  0.96185868248E+03  0.00000000000E+00 0. -1.
          1   -1    0    0  501    0 -0.00000000000E+00 -0.00000000000E+00 -0.11402568886E+04  0.11402568886E+04  0.00000000000E+00 0. -1.
         25    2    1    2    0    0  0.69509390531E+02 -0.57395901079E+02 -0.25692820828E+03  0.29960349708E+03  0.12499722565E+03 0.  0.
          2    1    1    2  501    0 -0.44028556114E+02  0.14126769024E+02 -0.86069977371E+03  0.86194093755E+03  0.00000000000E+00 0. -1.
          1    1    1    2  502    0 -0.25480834417E+02  0.43269132055E+02  0.93922977590E+03  0.94057113641E+03  0.00000000000E+00 0. -1.
         22    1    3    3    0    0  0.66357509085E+02  0.24810454369E+02 -0.13599529089E+03  0.15334143864E+03  0.00000000000E+00 0. -1.
         22    1    3    3    0    0  0.31518814465E+01 -0.82206355449E+02 -0.12093291739E+03  0.14626205844E+03  0.00000000000E+00 0. -1.
</event>
<event>
 7    1  0.6262315E-006  0.1297034E+03  0.7818608E-02  0.1337109E+00
          2   -1    0    0  502    0  0.00000000000E+00  0.00000000000E+00  0.18314908047E+04  0.18314908047E+04  0.00000000000E+00 0. -1.
          1   -1    0    0  501    0 -0.00000000000E+00 -0.00000000000E+00 -0.79591756930E+03  0.79591756930E+03  0.00000000000E+00 0. -1.
         25    2    1    2    0    0 -0.99223897916E+02  0.48221663204E+02  0.13241048507E+03  0.21290344973E+03  0.12499852651E+03 0.  0.
          2    1    1    2  501    0  0.71263635189E+01  0.45426881874E+02 -0.75236804376E+03  0.75377188852E+03  0.00000000000E+00 0. -1.
          1    1    1    2  502    0  0.92097534397E+02 -0.93648545077E+02  0.16555307941E+04  0.16607330358E+04  0.00000000000E+00 0. -1.
         22    1    3    3    0    0 -0.54241835604E+02  0.88835782804E+01 -0.12314396005E+02  0.56327072015E+02  0.00000000000E+00 0. -1.
         22    1    3    3    0    0 -0.44982062312E+02  0.39338084923E+02  0.14472488108E+03  0.15657637771E+03  0.00000000000E+00 0. -1.
</event>
<event>
 7    1  0.6262315E-006  0.5532530E+02  0.7818608E-02  0.1449187E+00
          2   -1    0    0  502    0  0.00000000000E+00  0.00000000000E+00  0.21270831908E+04  0.21270831908E+04  0.00000000000E+00 0. -1.
          1   -1    0    0  501    0 -0.00000000000E+00 -0.00000000000E+00 -0.35199942678E+02  0.35199942678E+02  0.00000000000E+00 0. -1.
         25    2    1    2    0    0  0.81641746410E+02  0.34504492014E+02  0.95541350199E+03  0.96762350577E+03  0.12499741761E+03 0.  0.
          2    1    1    2  501    0 -0.37977614711E+02 -0.39239168927E+02 -0.26704612309E+01  0.54673055159E+02  0.00000000000E+00 0. -1.
          1    1    1    2  502    0 -0.43664131698E+02  0.47346769128E+01  0.11391402073E+04  0.11399865725E+04  0.00000000000E+00 0. -1.
         22    1    3    3    0    0  0.16529154412E+02 -0.35081435501E+02  0.54124113011E+03  0.54262867689E+03  0.00000000000E+00 0. -1.
         22    1    3    3    0    0  0.65112591998E+02  0.69585927516E+02  0.41417237188E+03  0.42499482888E+03  0.00000000000E+00 0. -1.
</event>
<event>
 7    1  0.6262315E-006  0.6001415E+02  0.7818608E-02  0.1533773E+00
          2   -1    0    0  502    0  0.00000000000E+00  0.00000000000E+00  0.85393943057E+02  0.85393943057E+02  0.00000000000E+00 0. -1.
          1   -1    0    0  501    0 -0.00000000000E+00 -0.00000000000E+00 -0.19326494598E+03  0.19326494598E+03  0.00000000000E+00 0. -1.
         25    2    1    2    0    0 -0.60889084996E+01  0.47163973870E+02 -0.94497188347E+02  0.16375703478E+03  0.12500053039E+03 0.  0.
          2    1    1    2  501    0  0.21438087632E+02 -0.63583528578E+02 -0.41500868920E+02  0.78897267563E+02  0.00000000000E+00 0. -1.
          1    1    1    2  502    0 -0.15349179133E+02  0.16419554708E+02  0.28127054342E+02  0.36004586691E+02  0.00000000000E+00 0. -1.
         22    1    3    3    0    0  0.28982152824E+02  0.66508641783E+02 -0.99770151004E+02  0.12335901931E+03  0.00000000000E+00 0.  1.
         22    1    3    3    0    0 -0.35071061323E+02 -0.19344667913E+02  0.52729626566E+01  0.40398015474E+02  0.00000000000E+00 0.  1.
</event>
<event>
 7    1  0.6262315E-006  0.9119417E+02  0.7818608E-02  0.1360250E+00
          2   -1    0    0  502    0  0.00000000000E+00  0.00000000000E+00  0.57784353322E+03  0.57784353322E+03  0.00000000000E+00 0. -1.
          1   -1    0    0  501    0 -0.00000000000E+00 -0.00000000000E+00 -0.53239506765E+03  0.53239506765E+03  0.00000000000E+00 0. -1.
         25    2    1    2    0    0  0.53205827170E+02  0.53266089153E+02  0.21608262578E+03  0.26074007937E+03  0.12500220609E+03 0.  0.
          2    1    1    2  501    0 -0.14607327872E+02 -0.90543587671E+02 -0.50377918202E+03  0.51205954686E+03  0.00000000000E+00 0. -1.
          1    1    1    2  502    0 -0.38598499298E+02  0.37277498518E+02  0.33314502181E+03  0.33743897463E+03  0.00000000000E+00 0. -1.
         22    1    3    3    0    0  0.96353123493E+01 -0.37654406669E+02  0.98264923009E+02  0.10567255405E+03  0.00000000000E+00 0.  1.
         22    1    3    3    0    0  0.43570514821E+02  0.90920495822E+02  0.11781770277E+03  0.15506752532E+03  0.00000000000E+00 0.  1.
</event>
<event>
 7    1  0.6262315E-006  0.1146526E+03  0.7818608E-02  0.1377052E+00
          2   -1    0    0  502    0  0.00000000000E+00  0.00000000000E+00  0.19873577580E+03  0.19873577580E+03  0.00000000000E+00 0. -1.
          1   -1    0    0  501    0 -0.00000000000E+00 -0.00000000000E+00 -0.63941765574E+03  0.63941765574E+03  0.00000000000E+00 0. -1.
         25    2    1    2    0    0 -0.13107116540E+03  0.23213060890E+02  0.38581841302E+02  0.18664288317E+03  0.12501404228E+03 0.  0.
          2    1    1    2  501    0  0.23964631471E+02 -0.28359321857E+02 -0.53110856433E+03  0.53240479130E+03  0.00000000000E+00 0. -1.
          1    1    1    2  502    0  0.10710653393E+03  0.51462609669E+01  0.51844843081E+02  0.11910575706E+03  0.00000000000E+00 0. -1.
         22    1    3    3    0    0  0.18105486822E+02 -0.15193943872E+02 -0.91961405027E+01  0.25362050067E+02  0.00000000000E+00 0. -1.
         22    1    3    3    0    0 -0.14917665222E+03  0.38407004761E+02  0.47777981805E+02  0.16128083311E+03  0.00000000000E+00 0. -1.
</event>
<event>
 7    1  0.6262315E-006  0.1005257E+03  0.7818608E-02  0.1355236E+00
          2   -1    0    0  502    0  0.00000000000E+00  0.00000000000E+00  0.51538748134E+03  0.51538748134E+03  0.00000000000E+00 0. -1.
          1   -1    0    0  501    0 -0.00000000000E+00 -0.00000000000E+00 -0.88409721000E+03  0.88409721000E+03  0.00000000000E+00 0. -1.
         25    2    1    2    0    0  0.11482662297E+03 -0.46638255087E+02  0.30147624476E+03  0.34910407350E+03  0.12500179120E+03 0.  0.
          2    1    1    2  501    0 -0.10038334525E+03 -0.20463137484E+01 -0.85389724463E+03  0.85977991823E+03  0.00000000000E+00 0. -1.
          1    1    1    2  502    0 -0.14443277719E+02  0.48684568836E+02  0.18371127122E+03  0.19060069960E+03  0.00000000000E+00 0. -1.
         22    1    3    3    0    0  0.12443632204E+03 -0.10703126530E+02  0.16087639523E+03  0.20366681051E+03  0.00000000000E+00 0.  1.
         22    1    3    3    0    0 -0.96096990667E+01 -0.35935128558E+02  0.14059984953E+03  0.14543726300E+03  0.00000000000E+00 0.  1.
</event>
<event>
 7    1  0.6262315E-006  0.6805994E+02  0.7818608E-02  0.1518124E+00
          2   -1    0    0  502    0  0.00000000000E+00  0.00000000000E+00  0.49549611324E+03  0.49549611324E+03  0.00000000000E+00 0. -1.
          1   -1    0    0  501    0 -0.00000000000E+00 -0.00000000000E+00 -0.11905547985E+04  0.11905547985E+04  0.00000000000E+00 0. -1.
         25    2    1    2    0    0  0.46430911811E+02  0.71852249974E+02 -0.10551081674E+03  0.18460211859E+03  0.12500733715E+03 0.  0.
          2    1    1    2  501    0 -0.19821020471E+02 -0.95171637115E+01 -0.10428630322E+04  0.10430947958E+04  0.00000000000E+00 0. -1.
          1    1    1    2  502    0 -0.26609891340E+02 -0.62335086263E+02  0.45331516362E+03  0.45835399732E+03  0.00000000000E+00 0. -1.
         22    1    3    3    0    0 -0.20233717888E+01  0.85518388636E+02 -0.10342122275E+03  0.13421415031E+03  0.00000000000E+00 0. -1.
         22    1    3    3    0    0  0.48454283600E+02 -0.13666138661E+02 -0.20895939928E+01  0.50387968287E+02  0.00000000000E+00 0. -1.
</event>
<event>
 7    1  0.6262315E-006  0.1121127E+03  0.7818608E-02  0.1304450E+00
          2   -1    0    0  502    0  0.00000000000E+00  0.00000000000E+00  0.29097434116E+04  0.29097434116E+04  0.00000000000E+00 0. -1.
          1   -1    0    0  501    0 -0.00000000000E+00 -0.00000000000E+00 -0.22497865409E+02  0.22497865409E+02  0.00000000000E+00 0. -1.
         25    2    1    2    0    0 -0.13102923195E+02 -0.22276896788E+01  0.13119324715E+04  0.13179410367E+04  0.12500046885E+03 0.  0.
          2    1    1    2  501    0 -0.11171308724E+03  0.94576444952E+01  0.17126876906E+03  0.20470039608E+03  0.00000000000E+00 0. -1.
          1    1    1    2  502    0  0.12481601044E+03 -0.72299548164E+01  0.14040443056E+04  0.14095998443E+04  0.00000000000E+00 0. -1.
         22    1    3    3    0    0 -0.10389533344E+02 -0.59253654976E+02  0.90844347847E+03  0.91043313406E+03  0.00000000000E+00 0. -1.
         22    1    3    3    0    0 -0.27133898510E+01  0.57025965297E+02  0.40348899307E+03  0.40750790266E+03  0.00000000000E+00 0. -1.
</event>
<event>
 7    1  0.6262315E-006  0.5808010E+03  0.7818608E-02  0.1062578E+00
          2   -1    0    0  502    0  0.00000000000E+00  0.00000000000E+00  0.19736877982E+04  0.19736877982E+04  0.00000000000E+00 0. -1.
          1   -1    0    0  501    0 -0.00000000000E+00 -0.00000000000E+00 -0.50734098137E+03  0.50734098137E+03  0.00000000000E+00 0. -1.
         25    2    1    2    0    0  0.63237390001E+03  0.11892674514E+03  0.49988094718E+03  0.82434606724E+03  0.12500062842E+03 0.  0.
          2    1    1    2  501    0 -0.49393816046E+03 -0.27819824017E+03 -0.94689552630E+02  0.57474801311E+03  0.00000000000E+00 0. -1.
          1    1    1    2  502    0 -0.13843573954E+03  0.15927149504E+03  0.10611554222E+04  0.10819346992E+04  0.00000000000E+00 0. -1.
         22    1    3    3    0    0  0.51468040597E+03  0.14120148544E+03  0.38228928986E+03  0.65648981783E+03  0.00000000000E+00 0.  1.
         22    1    3    3    0    0  0.11769349404E+03 -0.22274740299E+02  0.11759165732E+03  0.16785624941E+03  0.00000000000E+00 0.  1.
</event>
<event>
 7    1  0.6262315E-006  0.7283174E+02  0.7818608E-02  0.1519870E+00
          2   -1    0    0  502    0  0.00000000000E+00  0.00000000000E+00  0.69392563887E+02  0.69392563887E+02  0.00000000000E+00 0. -1.
          1   -1    0    0  501    0 -0.00000000000E+00 -0.00000000000E+00 -0.17052657778E+04  0.17052657778E+04  0.00000000000E+00 0. -1.
         25    2    1    2    0    0  0.52830961037E+02 -0.19851262041E+01 -0.37874204510E+02  0.14090699212E+03  0.12500109556E+03 0.  0.
          2    1    1    2  501    0 -0.73051642312E+02  0.38665232835E+01 -0.16089952259E+04  0.16106573594E+04  0.00000000000E+00 0. -1.
          1    1    1    2  502    0  0.20220681275E+02 -0.18813970794E+01  0.10996216468E+02  0.23093990188E+02  0.00000000000E+00 0. -1.
         22    1    3    3    0    0  0.49943823437E+02 -0.57396902531E+02 -0.46333663039E+01  0.76225048396E+02  0.00000000000E+00 0. -1.
         22    1    3    3    0    0  0.28871376000E+01  0.55411776327E+02 -0.33240838206E+02  0.64681943724E+02  0.00000000000E+00 0. -1.
</event>
<event>
 7    1  0.6262315E-006  0.1360612E+03  0.7818608E-02  0.1290733E+00
          2   -1    0    0  502    0  0.00000000000E+00  0.00000000000E+00  0.17002444745E+03  0.17002444745E+03  0.00000000000E+00 0. -1.
          1   -1    0    0  501    0 -0.00000000000E+00 -0.00000000000E+00 -0.77457989540E+03  0.77457989540E+03  0.00000000000E+00 0. -1.
         25    2    1    2    0    0  0.67175399389E+02  0.31578023531E+02  0.46213626962E+02  0.15254654001E+03  0.12500016680E+03 0.  0.
          2    1    1    2  501    0 -0.13103696518E+03 -0.50500699264E+02 -0.69698279408E+03  0.71098946695E+03  0.00000000000E+00 0. -1.
          1    1    1    2  502    0  0.63861565793E+02  0.18922675733E+02  0.46213719170E+02  0.81068335878E+02  0.00000000000E+00 0. -1.
         22    1    3    3    0    0  0.42261241251E+02 -0.39720681331E+02 -0.93987871146E+01  0.58754423125E+02  0.00000000000E+00 0. -1.
         22    1    3    3    0    0  0.24914158138E+02  0.71298704862E+02  0.55612414076E+02  0.93792116887E+02  0.00000000000E+00 0. -1.
</event>
<event>
 7    1  0.6262315E-006  0.7734408E+02  0.7818608E-02  0.1352010E+00
          2   -1    0    0  502    0  0.00000000000E+00  0.00000000000E+00  0.20710217816E+03  0.20710217816E+03  0.00000000000E+00 0. -1.
          1   -1    0    0  501    0 -0.00000000000E+00 -0.00000000000E+00 -0.21917746696E+04  0.21917746696E+04  0.00000000000E+00 0. -1.
         25    2    1    2    0    0 -0.10416532931E+03 -0.66612895127E+02 -0.38738379987E+03  0.42541615572E+03  0.12500001407E+03 0.  0.
          2    1    1    2  501    0  0.36331923687E+02  0.66733712798E+02 -0.17784209125E+04  0.17800433532E+04  0.00000000000E+00 0. -1.
          1    1    1    2  502    0  0.67833405625E+02 -0.12081767103E+00  0.18113222094E+03  0.19341733887E+03  0.00000000000E+00 0. -1.
         22    1    3    3    0    0  0.29191341371E+02 -0.13154780991E+02 -0.64482068844E+02  0.71993887771E+02  0.00000000000E+00 0. -1.
         22    1    3    3    0    0 -0.13335667068E+03 -0.53458114136E+02 -0.32290173103E+03  0.35342226795E+03  0.00000000000E+00 0. -1.
</event>
<event>
 7    1  0.6262315E-006  0.9952850E+02  0.7818608E-02  0.1284909E+00
          2   -1    0    0  502    0  0.00000000000E+00  0.00000000000E+00  0.10920489029E+04  0.10920489029E+04  0.00000000000E+00 0. -1.
          1   -1    0    0  501    0 -0.00000000000E+00 -0.00000000000E+00 -0.39968078315E+02  0.39968078315E+02  0.00000000000E+00 0. -1.
         25    2    1    2    0    0 -0.88489706838E+01  0.10381529057E+02  0.69939827633E+03  0.71061070568E+03  0.12499418250E+03 0.  0.
          2    1    1    2  501    0  0.10532866694E+03 -0.34827191421E+02  0.98212014644E+02  0.14816430462E+03  0.00000000000E+00 0. -1.
          1    1    1    2  502    0 -0.96479696258E+02  0.24445662364E+02  0.25447053362E+03  0.27324197093E+03  0.00000000000E+00 0. -1.
         22    1    3    3    0    0 -0.87660551940E+01  0.67069015700E+02  0.43266404654E+03  0.43791925484E+03  0.00000000000E+00 0.  1.
         22    1    3    3    0    0 -0.82915489872E-01 -0.56687486643E+02  0.26673422979E+03  0.27269145084E+03  0.00000000000E+00 0.  1.
</event>
<event>
 7    1  0.6262315E-006  0.8564050E+02  0.7818608E-02  0.1344732E+00
          2   -1    0    0  502    0  0.00000000000E+00  0.00000000000E+00  0.12000818325E+04  0.12000818325E+04  0.00000000000E+00 0. -1.
          1   -1    0    0  501    0 -0.00000000000E+00 -0.00000000000E+00 -0.70835533872E+03  0.70835533872E+03  0.00000000000E+00 0. -1.
         25    2    1    2    0    0 -0.56573325847E+01  0.25835354663E+02  0.12487000839E+03  0.17864887664E+03  0.12499372451E+03 0.  0.
          2    1    1    2  501    0  0.13339066903E+02  0.63817270441E+02 -0.67796838550E+03  0.68109595979E+03  0.00000000000E+00 0. -1.
          1    1    1    2  502    0 -0.76817343186E+01 -0.89652625104E+02  0.10448248709E+04  0.10486923348E+04  0.00000000000E+00 0. -1.
         22    1    3    3    0    0 -0.37317759518E+02 -0.31564126750E+02  0.94525173909E+02  0.10641389841E+03  0.00000000000E+00 0.  1.
         22    1    3    3    0    0  0.31660426933E+02  0.57399481413E+02  0.30344834481E+02  0.72234978229E+02  0.00000000000E+00 0.  1.
</event>
<event>
 7    1  0.6262315E-006  0.2767627E+03  0.7818608E-02  0.1192718E+00
          2   -1    0    0  502    0  0.00000000000E+00  0.00000000000E+00  0.15835833769E+04  0.15835833769E+04  0.00000000000E+00 0. -1.
          1   -1    0    0  501    0 -0.00000000000E+00 -0.00000000000E+00 -0.35670305173E+03  0.35670305173E+03  0.00000000000E+00 0. -1.
         25    2    1    2    0    0 -0.13053895733E+03 -0.17828365144E+03  0.67606118293E+03  0.72215549990E+03  0.12499745286E+03 0.  0.
          2    1    1    2  501    0  0.10341100584E+03  0.26250652392E+03 -0.27120923642E+03  0.39135401001E+03  0.00000000000E+00 0. -1.
          1    1    1    2  502    0  0.27127951496E+02 -0.84222872480E+02  0.82202837869E+03  0.82677691874E+03  0.00000000000E+00 0. -1.
         22    1    3    3    0    0 -0.73942277531E+01 -0.11471124138E+03  0.28815208157E+03  0.31023372740E+03  0.00000000000E+00 0.  1.
         22    1    3    3    0    0 -0.12314472958E+03 -0.63572410065E+02  0.38790910136E+03  0.41192177250E+03  0.00000000000E+00 0.  1.
</event>
<event>
 7    1  0.6262315E-006  0.8495822E+02  0.7818608E-02  0.1459264E+00
          2   -1    0    0  502    0  0.00000000000E+00  0.00000000000E+00  0.10563428953E+04  0.10563428953E+04  0.00000000000E+00 0. -1.
          1   -1    0    0  501    0 -0.00000000000E+00 -0.00000000000E+00 -0.22287398112E+03  0.22287398112E+03  0.00000000000E+00 0. -1.
         25    2    1    2    0    0 -0.27006062635E+02 -0.71166543434E+02 -0.45765960252E+01  0.14642332656E+03  0.12499936402E+03 0.  0.
          2    1    1    2  501    0  0.22590097159E+02 -0.13980820610E+02 -0.14431501934E+03  0.14673990814E+03  0.00000000000E+00 0. -1.
          1    1    1    2  502    0  0.44159654752E+01  0.85147364043E+02  0.98236052950E+03  0.98605364168E+03  0.00000000000E+00 0. -1.
         22    1    3    3    0    0 -0.58248096394E+02  0.61630984744E+01  0.15600316866E+02  0.60615133445E+02  0.00000000000E+00 0. -1.
         22    1    3    3    0    0  0.31242033759E+02 -0.77329641908E+02 -0.20176912891E+02  0.85808193110E+02  0.00000000000E+00 0. -1.
</event>
<event>
 7    1  0.6262315E-006  0.9746335E+02  0.7818608E-02  0.1352826E+00
          2   -1    0    0  502    0  0.00000000000E+00  0.00000000000E+00  0.23566949070E+04  0.23566949070E+04  0.00000000000E+00 0. -1.
          1   -1    0    0  501    0 -0.00000000000E+00 -0.00000000000E+00 -0.16205373523E+02  0.16205373523E+02  0.00000000000E+00 0. -1.
         25    2    1    2    0    0 -0.63057528937E+02  0.25305926194E+01  0.75898783639E+03  0.77179627151E+03  0.12499717226E+03 0.  0.
          2    1    1    2  501    0 -0.38466043908E+02  0.37123715062E+02  0.83527153728E+02  0.99169512270E+02  0.00000000000E+00 0. -1.
          1    1    1    2  502    0  0.10152357284E+03 -0.39654307681E+02  0.14979745433E+04  0.15019344967E+04  0.00000000000E+00 0. -1.
         22    1    3    3    0    0 -0.41441694101E+02 -0.15469258086E+02  0.73023071516E+03  0.73156927855E+03  0.00000000000E+00 0. -1.
         22    1    3    3    0    0 -0.21615834836E+02  0.17999850705E+02  0.28757121230E+02  0.40226992959E+02  0.00000000000E+00 0. -1.
</event>
<event>
 7    1  0.6262315E-006  0.6578107E+02  0.7818608E-02  0.1391827E+00
          2   -1    0    0  502    0  0.00000000000E+00  0.00000000000E+00  0.22690057778E+03  0.22690057778E+03  0.00000000000E+00 0. -1.
          1   -1    0    0  501    0 -0.00000000000E+00 -0.00000000000E+00 -0.16208469338E+04  0.16208469338E+04  0.00000000000E+00 0. -1.
         25    2    1    2    0    0  0.11217576347E+02 -0.15813369207E+02 -0.31773191107E+03  0.34198728548E+03  0.12500335776E+03 0.  0.
          2    1    1    2  501    0 -0.68567940408E+02  0.13142174399E+02 -0.12861867731E+04  0.12880802360E+04  0.00000000000E+00 0. -1.
          1    1    1    2  502    0  0.57350364061E+02  0.26711948079E+01  0.20997232808E+03  0.21767999012E+03  0.00000000000E+00 0. -1.
         22    1    3    3    0    0 -0.32936349550E+02  0.80998749052E+01 -0.27188374146E+03  0.27399120418E+03  0.00000000000E+00 0. -1.
         22    1    3    3    0    0  0.44153925897E+02 -0.23913244112E+02 -0.45848169611E+02  0.67996081305E+02  0.00000000000E+00 0. -1.
</event>
<event>
 7    1  0.6262315E-006  0.9225372E+02  0.7818608E-02  0.1478206E+00
          2   -1    0    0  502    0  0.00000000000E+00  0.00000000000E+00  0.34705838259E+03  0.34705838259E+03  0.00000000000E+00 0. -1.
          1   -1    0    0  501    0 -0.00000000000E+00 -0.00000000000E+00 -0.53347456705E+03  0.53347456705E+03  0.00000000000E+00 0. -1.
         25    2    1    2    0    0 -0.11076584310E+03 -0.10405213588E+02 -0.60509447015E+02  0.17794239487E+03  0.12499904898E+03 0.  0.
          2    1    1    2  501    0  0.89642352905E+02  0.13549529061E+02 -0.40888106269E+03  0.41881149052E+03  0.00000000000E+00 0. -1.
          1    1    1    2  502    0  0.21123490200E+02 -0.31443154730E+01  0.28297432524E+03  0.28377906425E+03  0.00000000000E+00 0. -1.
         22    1    3    3    0    0 -0.78533469428E+02 -0.19798773388E+02 -0.98316699994E+02  0.12738002491E+03  0.00000000000E+00 0.  1.
         22    1    3    3    0    0 -0.32232373677E+02  0.93935598006E+01  0.37807252979E+02  0.50562369965E+02  0.00000000000E+00 0.  1.
</event>
<event>
 7    1  0.6262315E-006  0.1583220E+03  0.7818608E-02  0.1259685E+00
          2   -1    0    0  502    0  0.00000000000E+00  0.00000000000E+00  0.20201723055E+04  0.20201723055E+04  0.00000000000E+00 0. -1.
          1   -1    0    0  501    0 -0.00000000000E+00 -0.00000000000E+00 -0.20605768184E+03  0.20605768184E+03  0.00000000000E+00 0. -1.
         25    2    1    2    0    0 -0.64727735904E+02 -0.21382957374E+03  0.47494227714E+03  0.53954232052E+03  0.12499193019E+03 0.  0.
          2    1    1    2  501    0  0.85745362214E+00  0.77089488563E+02 -0.16123010323E+03  0.17871393527E+03  0.00000000000E+00 0. -1.
          1    1    1    2  502    0  0.63870282282E+02  0.13674008518E+03  0.15004024498E+04  0.15079737316E+04  0.00000000000E+00 0. -1.
         22    1    3    3    0    0 -0.21274700895E+02  0.12449568871E+02  0.33583412215E+02  0.41658735450E+02  0.00000000000E+00 0. -1.
         22    1    3    3    0    0 -0.43453035010E+02 -0.22627914261E+03  0.44135886493E+03  0.49788358507E+03  0.00000000000E+00 0. -1.
</event>
<event>
 7    1  0.6262315E-006  0.9816847E+02  0.7818608E-02  0.1305100E+00
          2   -1    0    0  502    0  0.00000000000E+00  0.00000000000E+00  0.11281190325E+04  0.11281190325E+04  0.00000000000E+00 0. -1.
          1   -1    0    0  501    0 -0.00000000000E+00 -0.00000000000E+00 -0.29047992185E+03  0.29047992185E+03  0.00000000000E+00 0. -1.
         25    2    1    2    0    0 -0.50869275108E+02 -0.27891508387E+02 -0.11453652915E+03  0.17919002122E+03  0.12499931122E+03 0.  0.
          2    1    1    2  501    0  0.12236529201E+01  0.11258130321E+03 -0.11895597443E+03  0.16378818947E+03  0.00000000000E+00 0. -1.
          1    1    1    2  502    0  0.49645622188E+02 -0.84689794821E+02  0.10711316142E+04  0.10756207436E+04  0.00000000000E+00 0. -1.
         22    1    3    3    0    0  0.24699904307E+02 -0.45868567820E+02 -0.17640515522E+02  0.55001805194E+02  0.00000000000E+00 0. -1.
         22    1    3    3    0    0 -0.75569179415E+02  0.17977059434E+02 -0.96896013631E+02  0.12418821603E+03  0.00000000000E+00 0. -1.
</event>
<event>
 7    1  0.6262315E-006  0.1286917E+03  0.7818608E-02  0.1378202E+00
          2   -1    0    0  502    0  0.00000000000E+00  0.00000000000E+00  0.38522001247E+02  0.38522001247E+02  0.00000000000E+00 0. -1.
          1   -1    0    0  501    0 -0.00000000000E+00 -0.00000000000E+00 -0.10814301489E+04  0.10814301489E+04  0.00000000000E+00 0. -1.
         25    2    1    2    0    0 -0.94551551534E+02 -0.43657005874E+02 -0.18944317283E+03  0.24971983697E+03  0.12500140473E+03 0.  0.
          2    1    1    2  501    0  0.11371559579E+03  0.70237309359E+02 -0.74612498090E+03  0.75800198118E+03  0.00000000000E+00 0. -1.
          1    1    1    2  502    0 -0.19164044254E+02 -0.26580303485E+02 -0.10733999397E+03  0.11223033205E+03  0.00000000000E+00 0. -1.
         22    1    3    3    0    0 -0.11768931734E+02 -0.43527828564E+01  0.18571983144E+02  0.22413679543E+02  0.00000000000E+00 0.  1.
         22    1    3    3    0    0 -0.82782619800E+02 -0.39304223018E+02 -0.20801515597E+03  0.22730615742E+03  0.00000000000E+00 0.  1.
</event>
<event>
 7    1  0.6262315E-006  0.1202307E+03  0.7818608E-02  0.1384394E+00
          2   -1    0    0  502    0  0.00000000000E+00  0.00000000000E+00  0.89241092143E+02  0.89241092143E+02  0.00000000000E+00 0. -1.
          1   -1    0    0  501    0 -0.00000000000E+00 -0.00000000000E+00 -0.76814270693E+03  0.76814270693E+03  0.00000000000E+00 0. -1.
         25    2    1    2    0    0 -0.93040742027E+02  0.45147845046E+02 -0.23134120807E+03  0.28255884602E+03  0.12500335725E+03 0.  0.
          2    1    1    2  501    0  0.12247009783E+03 -0.29458006917E+02 -0.49837306882E+03  0.51404514856E+03  0.00000000000E+00 0. -1.
          1    1    1    2  502    0 -0.29429355801E+02 -0.15689838130E+02  0.50812662105E+02  0.60779804488E+02  0.00000000000E+00 0. -1.
         22    1    3    3    0    0 -0.55826421219E+02  0.87845190977E+02 -0.16759766292E+03  0.19728746412E+03  0.00000000000E+00 0.  1.
         22    1    3    3    0    0 -0.37214320808E+02 -0.42697345930E+02 -0.63743545149E+02  0.85271381898E+02  0.00000000000E+00 0.  1.
</event>
<event>
 7    1  0.6262315E-006  0.6648519E+02  0.7818608E-02  0.1526273E+00
          2   -1    0    0  502    0  0.00000000000E+00  0.00000000000E+00  0.87580186961E+02  0.87580186961E+02  0.00000000000E+00 0. -1.
          1   -1    0    0  501    0 -0.00000000000E+00 -0.00000000000E+00 -0.16061092698E+03  0.16061092698E+03  0.00000000000E+00 0. -1.
         25    2    1    2    0    0 -0.51550618644E+02 -0.50567899527E+00 -0.58095787956E+02  0.14716592009E+03  0.12499986186E+03 0.  0.
          2    1    1    2  501    0 -0.19193674513E+02 -0.92769055666E+01 -0.20259820536E+02  0.29409495853E+02  0.00000000000E+00 0. -1.
          1    1    1    2  502    0  0.70744293157E+02  0.97825845619E+01  0.53248684740E+01  0.71615697995E+02  0.00000000000E+00 0. -1.
         22    1    3    3    0    0  0.19961395575E+02 -0.39399121227E+02 -0.47851958464E+02  0.65119566918E+02  0.00000000000E+00 0. -1.
         22    1    3    3    0    0 -0.71512014220E+02  0.38893442232E+02 -0.10243829492E+02  0.82046353174E+02  0.00000000000E+00 0. -1.
</event>
<event>
 7    1  0.6262315E-006  0.7870529E+02  0.7818608E-02  0.1399963E+00
          2   -1    0    0  502    0  0.00000000000E+00  0.00000000000E+00  0.51445150164E+03  0.51445150164E+03  0.00000000000E+00 0. -1.
          1   -1    0    0  501    0 -0.00000000000E+00 -0.00000000000E+00 -0.30313371967E+03  0.30313371967E+03  0.00000000000E+00 0. -1.
         25    2    1    2    0    0  0.22742142700E+02 -0.59922274224E+02  0.18518686815E+03  0.23243834025E+03  0.12500208750E+03 0.  0.
          2    1    1    2  501    0  0.44151948338E+02  0.85576000417E+01 -0.27180653823E+03  0.27550212573E+03  0.00000000000E+00 0. -1.
          1    1    1    2  502    0 -0.66894091038E+02  0.51364674183E+02  0.29793745205E+03  0.30964475533E+03  0.00000000000E+00 0. -1.
         22    1    3    3    0    0  0.24020047010E+02 -0.21309509890E+02  0.19072535625E+03  0.19340946043E+03  0.00000000000E+00 0. -1.
         22    1    3    3    0    0 -0.12779043095E+01 -0.38612764335E+02 -0.55384880974E+01  0.39028879812E+02  0.00000000000E+00 0. -1.
</event>
<event>
 7    1  0.6262315E-006  0.9988747E+02  0.7818608E-02  0.1325528E+00
          2   -1    0    0  502    0  0.00000000000E+00  0.00000000000E+00  0.22067271666E+02  0.22067271666E+02  0.00000000000E+00 0. -1.
          1   -1    0    0  501    0 -0.00000000000E+00 -0.00000000000E+00 -0.23489083457E+04  0.23489083457E+04  0.00000000000E+00 0. -1.
         25    2    1    2    0    0 -0.61787748863E+02  0.28526443975E+02 -0.80025838608E+03  0.81281597654E+03  0.12499937324E+03 0.  0.
          2    1    1    2  501    0  0.44697855938E+01  0.65946404824E+02 -0.13376730437E+04  0.13393050732E+04  0.00000000000E+00 0. -1.
          1    1    1    2  502    0  0.57317963269E+02 -0.94472848799E+02 -0.18890964426E+03  0.21885456762E+03  0.00000000000E+00 0. -1.
         22    1    3    3    0    0  0.33947157028E+02 -0.70972348577E+01 -0.31625667609E+03  0.31815258192E+03  0.00000000000E+00 0.  1.
         22    1    3    3    0    0 -0.95734905891E+02  0.35623678833E+02 -0.48400171000E+03  0.49466339462E+03  0.00000000000E+00 0.  1.
</event>
<event>
 7    1  0.6262315E-006  0.8810582E+02  0.7818608E-02  0.1314718E+00
          2   -1    0    0  502    0  0.00000000000E+00  0.00000000000E+00  0.50256086458E+02  0.50256086458E+02  0.00000000000E+00 0. -1.
          1   -1    0    0  501    0 -0.00000000000E+00 -0.00000000000E+00 -0.16925510841E+04  0.16925510841E+04  0.00000000000E+00 0. -1.
         25    2    1    2    0    0 -0.11221077716E+02  0.29564293664E+02 -0.59759925171E+03  0.61135194673E+03  0.12500550819E+03 0.  0.
          2    1    1    2  501    0  0.23039210585E+02 -0.11124685465E+03 -0.10427280564E+04  0.10488986927E+04  0.00000000000E+00 0. -1.
          1    1    1    2  502    0 -0.11818132868E+02  0.81682560985E+02 -0.19676895277E+01  0.82556531150E+02  0.00000000000E+00 0. -1.
         22    1    3    3    0    0  0.14888295053E+02  0.74306185716E+02 -0.31032118788E+03  0.31944062079E+03  0.00000000000E+00 0.  1.
         22    1    3    3    0    0 -0.26109372769E+02 -0.44741892053E+02 -0.28727806384E+03  0.29191132594E+03  0.00000000000E+00 0.  1.
</event>
<event>
 7    1  0.6262315E-006  0.1091039E+03  0.7818608E-02  0.1367785E+00
          2   -1    0    0  502    0  0.00000000000E+00  0.00000000000E+00  0.41300529507E+03  0.41300529507E+03  0.00000000000E+00 0. -1.
          1   -1    0    0  501    0 -0.00000000000E+00 -0.00000000000E+00 -0.15794423191E+04  0.15794423191E+04  0.00000000000E+00 0. -1.
         25    2    1    2    0    0 -0.29246788493E+02  0.88157538412E+02 -0.41047739864E+03  0.43902598297E+03  0.12499997085E+03 0.  0.
          2    1    1    2  501    0  0.71362647038E+02 -0.87968951392E+02 -0.11507899270E+04  0.11563514257E+04  0.00000000000E+00 0. -1.
          1    1    1    2  502    0 -0.42115858545E+02 -0.18858701978E+00  0.39483030153E+03  0.39707020552E+03  0.00000000000E+00 0. -1.
         22    1    3    3    0    0  0.14054693580E+02  0.46225182939E+02 -0.37368696774E+02  0.61079632022E+02  0.00000000000E+00 0.  1.
         22    1    3    3    0    0 -0.43301482073E+02  0.41932355473E+02 -0.37310870187E+03  0.37794635095E+03  0.00000000000E+00 0.  1.
</event>
<event>
 7    1  0.6262315E-006  0.1175482E+03  0.7818608E-02  0.1349923E+00
          2   -1    0    0  502    0  0.00000000000E+00  0.00000000000E+00  0.18389625166E+04  0.18389625166E+04  0.00000000000E+00 0. -1.
          1   -1    0    0  501    0 -0.00000000000E+00 -0.00000000000E+00 -0.29408986125E+03  0.29408986125E+03  0.00000000000E+00 0. -1.
         25    2    1    2    0    0 -0.38401608419E+02 -0.62758340144E+02 -0.77624841318E+02  0.16451057998E+03  0.12499928859E+03 0.  0.
          2    1    1    2  501    0 -0.31951125063E+02 -0.32300664223E+02 -0.16805498071E+03  0.17408814964E+03  0.00000000000E+00 0. -1.
          1    1    1    2  502    0  0.70352733482E+02  0.95059004367E+02  0.17905524773E+04  0.17944536482E+04  0.00000000000E+00 0. -1.
         22    1    3    3    0    0 -0.52863799269E+02 -0.11432243466E+02 -0.94239834480E+02  0.10865736913E+03  0.00000000000E+00 0.  1.
         22    1    3    3    0    0  0.14462190851E+02 -0.51326096678E+02  0.16614993161E+02  0.55853210849E+02  0.00000000000E+00 0.  1.
</event>
<event>
 7    1  0.6262315E-006  0.6316005E+02  0.7818608E-02  0.1433327E+00
          2   -1    0    0  502    0  0.00000000000E+00  0.00000000000E+00  0.42379421648E+02  0.42379421648E+02  0.00000000000E+00 0. -1.
          1   -1    0    0  501    0 -0.00000000000E+00 -0.00000000000E+00 -0.71563880135E+03  0.71563880135E+03  0.00000000000E+00 0. -1.
         25    2    1    2    0    0 -0.17288633194E+02  0.65422817862E+02 -0.24086924210E+03  0.27968215589E+03  0.12500029839E+03 0.  0.
          2    1    1    2  501    0  0.42869936064E+02 -0.61152100246E+01 -0.40642097483E+03  0.40872146506E+03  0.00000000000E+00 0. -1.
          1    1    1    2  502    0 -0.25581302870E+02 -0.59307607837E+02 -0.25969162764E+02  0.69614602050E+02  0.00000000000E+00 0. -1.
         22    1    3    3    0    0  0.40158589184E+02  0.71155613677E+02 -0.11360837837E+03  0.13993819092E+03  0.00000000000E+00 0.  1.
         22    1    3    3    0    0 -0.57447222378E+02 -0.57327958156E+01 -0.12726086373E+03  0.13974396496E+03  0.00000000000E+00 0.  1.
</event>
<event>
 7    1  0.6262315E-006  0.2007297E+03  0.7818608E-02  0.1211642E+00
          2   -1    0    0  502    0  0.00000000000E+00  0.00000000000E+00  0.82100356059E+03  0.82100356059E+03  0.00000000000E+00 0. -1.
          1   -1    0    0  501    0 -0.00000000000E+00 -0.00000000000E+00 -0.36328527935E+03  0.36328527935E+03  0.00000000000E+00 0. -1.
         25    2    1    2    0    0 -0.20545442857E+03 -0.93386072148E+01 -0.14634508484E+03  0.28167546334E+03  0.12500180393E+03 0.  0.
          2    1    1    2  501    0  0.18819672646E+03 -0.88563353676E+02 -0.71374104138E+02  0.21989938201E+03  0.00000000000E+00 0. -1.
          1    1    1    2  502    0  0.17257702114E+02  0.97901960890E+02  0.67543747023E+03  0.68271399459E+03  0.00000000000E+00 0. -1.
         22    1    3    3    0    0 -0.11096986971E+02  0.24888142543E+02  0.10892557314E+02  0.29346389282E+02  0.00000000000E+00 0. -1.
         22    1    3    3    0    0 -0.19435744160E+03 -0.34226749758E+02 -0.15723764215E+03  0.25232907406E+03  0.00000000000E+00 0. -1.
</event>
<event>
 7    1  0.6262315E-006  0.4371824E+02  0.7818608E-02  0.1502956E+00
          2   -1    0    0  502    0  0.00000000000E+00  0.00000000000E+00  0.87349280309E+03  0.87349280309E+03  0.00000000000E+00 0. -1.
          1   -1    0    0  501    0 -0.00000000000E+00 -0.00000000000E+00 -0.27775442904E+03  0.27775442904E+03  0.00000000000E+00 0. -1.
         25    2    1    2    0    0  0.55861892582E+02 -0.34843628059E+02  0.29388266494E+03  0.32607965148E+03  0.12500515548E+03 0.  0.
          2    1    1    2  501    0 -0.18235653724E+02  0.39659801884E+02 -0.25919046069E+03  0.26284051032E+03  0.00000000000E+00 0. -1.
          1    1    1    2  502    0 -0.37626238857E+02 -0.48161738248E+01  0.56104616980E+03  0.56232707034E+03  0.00000000000E+00 0. -1.
         22    1    3    3    0    0 -0.39392049879E+02 -0.16262039283E+02  0.11367391477E+03  0.12139994405E+03  0.00000000000E+00 0. -1.
         22    1    3    3    0    0  0.95253942461E+02 -0.18581588777E+02  0.18020875017E+03  0.20467970743E+03  0.00000000000E+00 0. -1.
</event>
<event>
 7    1  0.6262315E-006  0.1851386E+03  0.7818608E-02  0.1215095E+00
          2   -1    0    0  502    0  0.00000000000E+00  0.00000000000E+00  0.94905018421E+03  0.94905018421E+03  0.00000000000E+00 0. -1.
          1   -1    0    0  501    0 -0.00000000000E+00 -0.00000000000E+00 -0.93204424982E+03  0.93204424982E+03  0.00000000000E+00 0. -1.
         25    2    1    2    0    0 -0.14511655372E+03 -0.94035305185E+02  0.28331798504E+03  0.35467640700E+03  0.12499928100E+03 0.  0.
          2    1    1    2  501    0  0.18635356272E+03 -0.13347572083E+01 -0.88228064835E+03  0.90174751143E+03  0.00000000000E+00 0. -1.
          1    1    1    2  502    0 -0.41237009001E+02  0.95370062393E+02  0.61596859770E+03  0.62467051560E+03  0.00000000000E+00 0. -1.
         22    1    3    3    0    0 -0.21233249945E+02 -0.30740742709E+02 -0.18266688537E+01  0.37405626376E+02  0.00000000000E+00 0. -1.
         22    1    3    3    0    0 -0.12388330378E+03 -0.63294562476E+02  0.28514465389E+03  0.31727078062E+03  0.00000000000E+00 0. -1.
</event>
<event>
 7    1  0.6262315E-006  0.2918724E+02  0.7818608E-02  0.1669770E+00
          2   -1    0    0  502    0  0.00000000000E+00  0.00000000000E+00  0.69222891668E+03  0.69222891668E+03  0.00000000000E+00 0. -1.
          1   -1    0    0  501    0 -0.00000000000E+00 -0.00000000000E+00 -0.59600442029E+03  0.59600442029E+03  0.00000000000E+00 0. -1.
         25    2    1    2    0    0 -0.87278457831E+01  0.57519767252E+01 -0.79884685211E+02  0.14871238522E+03  0.12499820023E+03 0.  0.
          2    1    1    2  501    0  0.15654659775E+02 -0.24938145431E+02 -0.48109754295E+03  0.48199774409E+03  0.00000000000E+00 0. -1.
          1    1    1    2  502    0 -0.69268139919E+01  0.19186168706E+02  0.65720672455E+03  0.65752320766E+03  0.00000000000E+00 0. -1.
         22    1    3    3    0    0  0.47339747020E+02 -0.32072953213E+02 -0.29275927536E+02  0.64240220336E+02  0.00000000000E+00 0. -1.
         22    1    3    3    0    0 -0.56067592803E+02  0.37824929938E+02 -0.50608757675E+02  0.84472164889E+02  0.00000000000E+00 0. -1.
</event>
<event>
 7    1  0.6262315E-006  0.2257914E+03  0.7818608E-02  0.1210838E+00
          2   -1    0    0  502    0  0.00000000000E+00  0.00000000000E+00  0.17563716481E+04  0.17563716481E+04  0.00000000000E+00 0. -1.
          1   -1    0    0  501    0 -0.00000000000E+00 -0.00000000000E+00 -0.13185735720E+04  0.13185735720E+04  0.00000000000E+00 0. -1.
         25    2    1    2    0    0 -0.23013582712E+03 -0.98592367328E+02  0.40386851082E+03  0.49134266399E+03  0.12499954244E+03 0.  0.
          2    1    1    2  501    0  0.70702327409E+01  0.88856542137E+02 -0.12637322722E+04  0.12668720255E+04  0.00000000000E+00 0. -1.
          1    1    1    2  502    0  0.22306559438E+03  0.97358251914E+01  0.12976618375E+04  0.13167305306E+04  0.00000000000E+00 0. -1.
         22    1    3    3    0    0 -0.12620216304E+03  0.12865519563E+02  0.16777921500E+03  0.21033870908E+03  0.00000000000E+00 0. -1.
         22    1    3    3    0    0 -0.10393366408E+03 -0.11145788689E+03  0.23608929581E+03  0.28100395491E+03  0.00000000000E+00 0. -1.
</event>
<event>
 7    1  0.6262315E-006  0.7187152E+02  0.7818608E-02  0.1410071E+00
          2   -1    0    0  502    0  0.00000000000E+00  0.00000000000E+00  0.14856638752E+03  0.14856638752E+03  0.00000000000E+00 0. -1.
          1   -1    0    0  501    0 -0.00000000000E+00 -0.00000000000E+00 -0.66376217355E+03  0.66376217355E+03  0.00000000000E+00 0. -1.
         25    2    1    2    0    0  0.50820982548E+02  0.24708705526E+01  0.36263799785E+02  0.13974621103E+03  0.12500025141E+03 0.  0.
          2    1    1    2  501    0  0.26320796351E+02  0.37100168786E+02 -0.57963715271E+03  0.58141932858E+03  0.00000000000E+00 0. -1.
          1    1    1    2  502    0 -0.77141778899E+02 -0.39571039339E+02  0.28177566896E+02  0.91163021463E+02  0.00000000000E+00 0. -1.
         22    1    3    3    0    0  0.92301559467E+02  0.97368336872E+01  0.26377967185E+02  0.96489279006E+02  0.00000000000E+00 0.  1.
         22    1    3    3    0    0 -0.41480576919E+02 -0.72659631346E+01  0.98858326004E+01  0.43256932022E+02  0.00000000000E+00 0.  1.
</event>
<event>
 7    1  0.6262315E-006  0.1334134E+03  0.7818608E-02  0.1322199E+00
          2   -1    0    0  502    0  0.00000000000E+00  0.00000000000E+00  0.22561367081E+03  0.22561367081E+03  0.00000000000E+00 0. -1.
          1   -1    0    0  501    0 -0.00000000000E+00 -0.00000000000E+00 -0.19504968559E+04  0.19504968559E+04  0.00000000000E+00 0. -1.
         25    2    1    2    0    0  0.31261382011E+02 -0.99590545232E+02  0.21244660263E+00  0.16285109894E+03  0.12499953835E+03 0.  0.
          2    1    1    2  501    0 -0.81725409388E+02  0.10677251086E+03 -0.18621681443E+04  0.18670162317E+04  0.00000000000E+00 0. -1.
          1    1    1    2  502    0  0.50464027378E+02 -0.71819656299E+01  0.13707251263E+03  0.14624319611E+03  0.00000000000E+00 0. -1.
         22    1    3    3    0    0 -0.46730778261E+02 -0.23290515381E+02 -0.10364851181E+02  0.53231981774E+02  0.00000000000E+00 0. -1.
         22    1    3    3    0    0  0.77992160272E+02 -0.76300029850E+02  0.10577297783E+02  0.10961911716E+03  0.00000000000E+00 0. -1.
</event>
<event>
 7    1  0.6262315E-006  0.3201574E+02  0.7818608E-02  0.1598132E+00
          2   -1    0    0  502    0  0.00000000000E+00  0.00000000000E+00  0.18439322944E+04  0.18439322944E+04  0.00000000000E+00 0. -1.
          1   -1    0    0  501    0 -0.00000000000E+00 -0.00000000000E+00 -0.23407952199E+02  0.23407952199E+02  0.00000000000E+00 0. -1.
         25    2    1    2    0    0  0.38836554959E+02 -0.44454757809E+02  0.80505582105E+03  0.81683780850E+03  0.12499850756E+03 0.  0.
          2    1    1    2  501    0 -0.17967741398E+02  0.21609806703E+02 -0.58575748474E+01  0.28707745641E+02  0.00000000000E+00 0. -1.
          1    1    1    2  502    0 -0.20868813561E+02  0.22844951106E+02  0.10213260961E+04  0.10217946925E+04  0.00000000000E+00 0. -1.
         22    1    3    3    0    0  0.36511130850E+02 -0.12137566578E+02  0.76190907938E+03  0.76287995677E+03  0.00000000000E+00 0.  1.
         22    1    3    3    0    0  0.23254241089E+01 -0.32317191231E+02  0.43146741664E+02  0.53957851723E+02  0.00000000000E+00 0.  1.
</event>
<event>
 7    1  0.6262315E-006  0.8096171E+02  0.7818608E-02  0.1354029E+00
          2   -1    0    0  502    0  0.00000000000E+00  0.00000000000E+00  0.43955013569E+03  0.43955013569E+03  0.00000000000E+00 0. -1.
          1   -1    0    0  501    0 -0.00000000000E+00 -0.00000000000E+00 -0.51863588612E+03  0.51863588612E+03  0.00000000000E+00 0. -1.
         25    2    1    2    0    0 -0.54652751392E+02 -0.13138336126E+03  0.20243281978E+03  0.27722008818E+03  0.12499367949E+03 0.  0.
          2    1    1    2  501    0  0.20951081845E+02  0.77328103051E+02 -0.47270526053E+03  0.47944639605E+03  0.00000000000E+00 0. -1.
          1    1    1    2  502    0  0.33701669547E+02  0.54055258211E+02  0.19118669032E+03  0.20151953758E+03  0.00000000000E+00 0. -1.
         22    1    3    3    0    0 -0.91859450008E+02 -0.63742316724E+02  0.12842794138E+03  0.17027911682E+03  0.00000000000E+00 0.  1.
         22    1    3    3    0    0  0.37206698617E+02 -0.67641044538E+02  0.74004878400E+02  0.10694097136E+03  0.00000000000E+00 0.  1.
</event>
<event>
 7    1  0.6262315E-006  0.1058524E+03  0.7818608E-02  0.1372823E+00
          2   -1    0    0  502    0  0.00000000000E+00  0.00000000000E+00  0.10489955094E+04  0.10489955094E+04  0.00000000000E+00 0. -1.
          1   -1    0    0  501    0 -0.00000000000E+00 -0.00000000000E+00 -0.39274374857E+03  0.39274374857E+03  0.00000000000E+00 0. -1.
         25    2    1    2    0    0 -0.96048513392E+02 -0.45050351072E+02 -0.23207099261E+03  0.28414238863E+03  0.12500040140E+03 0.  0.
          2    1    1    2  501    0  0.24860224214E+02 -0.33401616316E+02 -0.12859919902E+03  0.13517193758E+03  0.00000000000E+00 0. -1.
          1    1    1    2  502    0  0.71188289179E+02  0.78451967388E+02  0.10169219524E+04  0.10224249317E+04  0.00000000000E+00 0. -1.
         22    1    3    3    0    0 -0.11574075365E+03 -0.58624789794E+02 -0.22407166926E+03  0.25892257723E+03  0.00000000000E+00 0. -1.
         22    1    3    3    0    0  0.19692240256E+02  0.13574438722E+02 -0.79993233431E+01  0.25219811396E+02  0.00000000000E+00 0. -1.
</event>
<event>
 7    1  0.6262315E-006  0.9119590E+02  0.7818608E-02  0.1352810E+00
          2   -1    0    0  502    0  0.00000000000E+00  0.00000000000E+00  0.14032327466E+04  0.14032327466E+04  0.00000000000E+00 0. -1.
          1   -1    0    0  501    0 -0.00000000000E+00 -0.00000000000E+00 -0.14036309241E+03  0.14036309241E+03  0.00000000000E+00 0. -1.
         25    2    1    2    0    0  0.15235431985E+02  0.13331009373E+03 -0.32364728838E+02  0.18621634210E+03  0.12500140365E+03 0.  0.
          2    1    1    2  501    0 -0.35355017752E+02 -0.44889510783E+02 -0.18098481116E+01  0.57169231311E+02  0.00000000000E+00 0. -1.
          1    1    1    2  502    0  0.20119585766E+02 -0.88420582950E+02  0.12970442311E+04  0.13002102656E+04  0.00000000000E+00 0. -1.
         22    1    3    3    0    0 -0.35931759914E+02  0.15925543033E+02  0.24277561175E+02  0.46196474627E+02  0.00000000000E+00 0.  1.
         22    1    3    3    0    0  0.51167191899E+02  0.11738455070E+03 -0.56642290013E+02  0.14001986748E+03  0.00000000000E+00 0.  1.
</event>
<event>
 7    1  0.6262315E-006  0.4546439E+02  0.7818608E-02  0.1493472E+00
          2   -1    0    0  502    0  0.00000000000E+00  0.00000000000E+00  0.14003364417E+04  0.14003364417E+04  0.00000000000E+00 0. -1.
          1   -1    0    0  501    0 -0.00000000000E+00 -0.00000000000E+00 -0.17642468745E+03  0.17642468745E+03  0.00000000000E+00 0. -1.
         25    2    1    2    0    0 -0.43705285813E+02  0.14966449511E+02  0.27826965626E+03  0.30853224111E+03  0.12499598230E+03 0.  0.
          2    1    1    2  501    0  0.16299504633E+02 -0.42627846457E+02 -0.15771477443E+03  0.16418513093E+03  0.00000000000E+00 0. -1.
          1    1    1    2  502    0  0.27405781180E+02  0.27661396946E+02  0.11033568724E+04  0.11040437571E+04  0.00000000000E+00 0. -1.
         22    1    3    3    0    0 -0.87890782536E+02  0.14393058932E+02  0.18429709551E+03  0.20468846869E+03  0.00000000000E+00 0. -1.
         22    1    3    3    0    0  0.44185496723E+02  0.57339057951E+00  0.93972560751E+02  0.10384377243E+03  0.00000000000E+00 0. -1.
</event>
<event>
 7    1  0.6262315E-006  0.1027654E+03  0.7818608E-02  0.1289835E+00
          2   -1    0    0  502    0  0.00000000000E+00  0.00000000000E+00  0.54129944008E+03  0.54129944008E+03  0.00000000000E+00 0. -1.
          1   -1    0    0  501    0 -0.00000000000E+00 -0.00000000000E+00 -0.31402937494E+03  0.31402937494E+03  0.00000000000E+00 0. -1.
         25    2    1    2    0    0  0.69213955600E+02 -0.62115147827E+01  0.25907292914E+03  0.29592792049E+03  0.12500158779E+03 0.  0.
          2    1    1    2  501    0 -0.64791526269E+02 -0.82609194185E+02 -0.27825091803E+03  0.29739837629E+03  0.00000000000E+00 0. -1.
          1    1    1    2  502    0 -0.44224293310E+01  0.88820708967E+02  0.24644805402E+03  0.26200251822E+03  0.00000000000E+00 0. -1.
         22    1    3    3    0    0  0.33410799922E+02  0.38604860831E+02  0.28799753710E+02  0.58617767314E+02  0.00000000000E+00 0. -1.
         22    1    3    3    0    0  0.35803155678E+02 -0.44816375614E+02  0.23027317543E+03  0.23731015318E+03  0.00000000000E+00 0. -1.
</event>
<event>
 7    1  0.6262315E-006  0.1479230E+03  0.7818608E-02  0.1301448E+00
          2   -1    0    0  502    0  0.00000000000E+00  0.00000000000E+00  0.36311115108E+03  0.36311115108E+03  0.00000000000E+00 0. -1.
          1   -1    0    0  501    0 -0.00000000000E+00 -0.00000000000E+00 -0.33682562619E+03  0.33682562619E+03  0.00000000000E+00 0. -1.
         25    2    1    2    0    0  0.35017115255E+02  0.12130241883E+03 -0.15761403950E+03  0.23750256525E+03  0.12499923151E+03 0.  0.
          2    1    1    2  501    0 -0.62634727089E+02 -0.16940746417E+03 -0.76531981142E+02  0.19616101063E+03  0.00000000000E+00 0. -1.
          1    1    1    2  502    0  0.27617611834E+02  0.48105045344E+02  0.26043154553E+03  0.26627320139E+03  0.00000000000E+00 0. -1.
         22    1    3    3    0    0 -0.37680202099E+01  0.82895816778E+02 -0.14376735228E+02  0.84217604641E+02  0.00000000000E+00 0. -1.
         22    1    3    3    0    0  0.38785135465E+02  0.38406602052E+02 -0.14323730427E+03  0.15328496061E+03  0.00000000000E+00 0. -1.
</event>
<event>
 7    1  0.6262315E-006  0.9197494E+02  0.7818608E-02  0.1400545E+00
          2   -1    0    0  502    0  0.00000000000E+00  0.00000000000E+00  0.55977560392E+03  0.55977560392E+03  0.00000000000E+00 0. -1.
          1   -1    0    0  501    0 -0.00000000000E+00 -0.00000000000E+00 -0.76384531611E+03  0.76384531611E+03  0.00000000000E+00 0. -1.
         25    2    1    2    0    0 -0.47327656374E+02 -0.10065832347E+03  0.43092118754E+02  0.17278277418E+03  0.12499980485E+03 0.  0.
          2    1    1    2  501    0  0.10250963277E+02  0.91022768954E+02 -0.69517826873E+03  0.70118688809E+03  0.00000000000E+00 0. -1.
          1    1    1    2  502    0  0.37076693097E+02  0.96355545142E+01  0.44801643778E+03  0.44965125776E+03  0.00000000000E+00 0. -1.
         22    1    3    3    0    0 -0.46171293040E+02 -0.12525280476E+02 -0.31530013738E+02  0.57295835087E+02  0.00000000000E+00 0. -1.
         22    1    3    3    0    0 -0.11563633342E+01 -0.88133042993E+02  0.74622132492E+02  0.11548693909E+03  0.00000000000E+00 0. -1.
</event>
<event>
 7    1  0.6262315E-006  0.7748225E+02  0.7818608E-02  0.1501076E+00
          2   -1    0    0  502    0  0.00000000000E+00  0.00000000000E+00  0.54760737996E+02  0.54760737996E+02  0.00000000000E+00 0. -1.
          1   -1    0    0  501    0 -0.00000000000E+00 -0.00000000000E+00 -0.11066691421E+04  0.11066691421E+04  0.00000000000E+00 0. -1.
         25    2    1    2    0    0  0.39251363130E+02 -0.44718950569E+02 -0.31536083379E+03  0.34440911623E+03  0.12499891923E+03 0.  0.
          2    1    1    2  501    0  0.19842499078E+02 -0.87369890092E+01 -0.73701604630E+03  0.73733487117E+03  0.00000000000E+00 0. -1.
          1    1    1    2  502    0 -0.59093862208E+02  0.53455939578E+02  0.46847596558E+00  0.79685892707E+02  0.00000000000E+00 0. -1.
         22    1    3    3    0    0  0.54313138880E+02 -0.78105485755E+02 -0.17321599942E+03  0.19762127015E+03  0.00000000000E+00 0. -1.
         22    1    3    3    0    0 -0.15061775751E+02  0.33386535186E+02 -0.14214483436E+03  0.14678784608E+03  0.00000000000E+00 0. -1.
</event>
<event>
 7    1  0.6262315E-006  0.5966244E+02  0.7818608E-02  0.1535866E+00
          2   -1    0    0  502    0  0.00000000000E+00  0.00000000000E+00  0.82445845954E+03  0.82445845954E+03  0.00000000000E+00 0. -1.
          1   -1    0    0  501    0 -0.00000000000E+00 -0.00000000000E+00 -0.14447160902E+03  0.14447160902E+03  0.00000000000E+00 0. -1.
         25    2    1    2    0    0 -0.71403337439E+02  0.31530197528E+02  0.49874813416E+02  0.15557225586E+03  0.12499055895E+03 0.  0.
          2    1    1    2  501    0  0.13822296686E+02 -0.17500962820E+02 -0.89028588308E+02  0.91779241233E+02  0.00000000000E+00 0. -1.
          1    1    1    2  502    0  0.57581040754E+02 -0.14029234708E+02  0.71914062541E+03  0.72157857147E+03  0.00000000000E+00 0. -1.
         22    1    3    3    0    0 -0.98331716795E+01  0.64793976211E+02  0.54785534175E+02  0.85418998902E+02  0.00000000000E+00 0.  1.
         22    1    3    3    0    0 -0.61570165760E+02 -0.33263778683E+02 -0.49107207591E+01  0.70153256962E+02  0.00000000000E+00 0.  1.
</event>
<event>
 7    1  0.6262315E-006  0.9951695E+02  0.7818608E-02  0.1374039E+00
          2   -1    0    0  502    0  0.00000000000E+00  0.00000000000E+00  0.48055945886E+03  0.48055945886E+03  0.00000000000E+00 0. -1.
          1   -1    0    0  501    0 -0.00000000000E+00 -0.00000000000E+00 -0.43335279814E+03  0.43335279814E+03  0.00000000000E+00 0. -1.
         25    2    1    2    0    0 -0.77233479423E+02 -0.53065680453E+02  0.10247267221E+03  0.18683387671E+03  0.12500108859E+03 0.  0.
          2    1    1    2  501    0  0.26106126541E+02 -0.35228572865E+02 -0.38214190715E+03  0.38464921603E+03  0.00000000000E+00 0. -1.
          1    1    1    2  502    0  0.51127352881E+02  0.88294253318E+02  0.32687589566E+03  0.34242916427E+03  0.00000000000E+00 0. -1.
         22    1    3    3    0    0 -0.93282380589E+02 -0.56035466980E+02  0.12060271961E+03  0.16243950278E+03  0.00000000000E+00 0.  1.
         22    1    3    3    0    0  0.16048901166E+02  0.29697865269E+01 -0.18130047392E+02  0.24394373923E+02  0.00000000000E+00 0.  1.
</event>
<event>
 7    1  0.6262315E-006  0.1060156E+03  0.7818608E-02  0.1335967E+00
          2   -1    0    0  502    0  0.00000000000E+00  0.00000000000E+00  0.83720679450E+03  0.83720679450E+03  0.00000000000E+00 0. -1.
          1   -1    0    0  501    0 -0.00000000000E+00 -0.00000000000E+00 -0.20895933644E+03  0.20895933644E+03  0.00000000000E+00 0. -1.
         25    2    1    2    0    0  0.14173084149E+03  0.43439529437E+02  0.17825236475E+03  0.26339236636E+03  0.12500803562E+03 0.  0.
          2    1    1    2  501    0 -0.10330071595E+03 -0.15884976050E+01 -0.14887697535E+03  0.18121234790E+03  0.00000000000E+00 0. -1.
          1    1    1    2  502    0 -0.38430125542E+02 -0.41851031832E+02  0.59887206867E+03  0.60156141669E+03  0.00000000000E+00 0. -1.
         22    1    3    3    0    0  0.15905660003E+02  0.49091921687E+01  0.11711352127E+03  0.11829060425E+03  0.00000000000E+00 0. -1.
         22    1    3    3    0    0  0.12582518148E+03  0.38530337268E+02  0.61138843476E+02  0.14510176211E+03  0.00000000000E+00 0. -1.
</event>
<event>
 7    1  0.6262315E-006  0.7610368E+02  0.7818608E-02  0.1392080E+00
          2   -1    0    0  502    0  0.00000000000E+00  0.00000000000E+00  0.25931305119E+04  0.25931305119E+04  0.00000000000E+00 0. -1.
          1   -1    0    0  501    0 -0.00000000000E+00 -0.00000000000E+00 -0.15580092923E+04  0.15580092923E+04  0.00000000000E+00 0. -1.
         25    2    1    2    0    0  0.26001211188E+02 -0.88000746096E+02  0.66251290818E+01  0.15520445965E+03  0.12499735063E+03 0.  0.
          2    1    1    2  501    0  0.21219067020E+02  0.73068802772E+02 -0.14824998220E+04  0.14844510841E+04  0.00000000000E+00 0. -1.
          1    1    1    2  502    0 -0.47220278208E+02  0.14931943324E+02  0.25109959125E+04  0.25114842604E+04  0.00000000000E+00 0. -1.
         22    1    3    3    0    0  0.73380475688E+02 -0.42758777526E+02 -0.14944662814E+02  0.86234275172E+02  0.00000000000E+00 0. -1.
         22    1    3    3    0    0 -0.47379264500E+02 -0.45241968570E+02  0.21569791895E+02  0.68970184479E+02  0.00000000000E+00 0. -1.
</event>
<event>
 7    1  0.6262315E-006  0.5490920E+02  0.7818608E-02  0.1431072E+00
          2   -1    0    0  502    0  0.00000000000E+00  0.00000000000E+00  0.35052382029E+04  0.35052382029E+04  0.00000000000E+00 0. -1.
          1   -1    0    0  501    0 -0.00000000000E+00 -0.00000000000E+00 -0.26781168935E+02  0.26781168935E+02  0.00000000000E+00 0. -1.
         25    2    1    2    0    0 -0.99405193157E+02 -0.16268497399E+02  0.10547278457E+04  0.10668748819E+04  0.12500051457E+03 0.  0.
          2    1    1    2  501    0  0.50524211459E+02 -0.37998316444E+01  0.11013294838E+02  0.51850046551E+02  0.00000000000E+00 0. -1.
          1    1    1    2  502    0  0.48880981697E+02  0.20068329044E+02  0.24127158934E+04  0.24132944434E+04  0.00000000000E+00 0. -1.
         22    1    3    3    0    0  0.18328494857E+02  0.23926716651E+02  0.11241620334E+03  0.11638652958E+03  0.00000000000E+00 0.  1.
         22    1    3    3    0    0 -0.11773368801E+03 -0.40195214051E+02  0.94231164234E+03  0.95048835228E+03  0.00000000000E+00 0.  1.
</event>
<event>
 7    1  0.6262315E-006  0.1025929E+03  0.7818608E-02  0.1468820E+00
          2   -1    0    0  502    0  0.00000000000E+00  0.00000000000E+00  0.98791186795E+03  0.98791186795E+03  0.00000000000E+00 0. -1.
          1   -1    0    0  501    0 -0.00000000000E+00 -0.00000000000E+00 -0.12860747742E+04  0.12860747742E+04  0.00000000000E+00 0. -1.
         25    2    1    2    0    0 -0.82952127181E+02  0.48354997780E+02  0.14604438906E+03  0.21488393537E+03  0.12500752333E+03 0.  0.
          2    1    1    2  501    0  0.52589477966E+01  0.19847804021E+02 -0.12482610780E+04  0.12484299382E+04  0.00000000000E+00 0. -1.
          1    1    1    2  502    0  0.77693179385E+02 -0.68202801801E+02  0.80405378266E+03  0.81067276857E+03  0.00000000000E+00 0. -1.
         22    1    3    3    0    0 -0.80735696907E+02 -0.12345411176E+02  0.12742528517E+03  0.15135344474E+03  0.00000000000E+00 0. -1.
         22    1    3    3    0    0 -0.22164302743E+01  0.60700408956E+02  0.18619103891E+02  0.63530490635E+02  0.00000000000E+00 0. -1.
</event>
<event>
 7    1  0.6262315E-006  0.1142802E+03  0.7818608E-02  0.1337680E+00
          2   -1    0    0  502    0  0.00000000000E+00  0.00000000000E+00  0.25580124677E+04  0.25580124677E+04  0.00000000000E+00 0. -1.
          1   -1    0    0  501    0 -0.00000000000E+00 -0.00000000000E+00 -0.35445918349E+03  0.35445918349E+03  0.00000000000E+00 0. -1.
         25    2    1    2    0    0  0.89718624545E+02  0.11948748479E+03  0.30074766179E+03  0.35833653661E+03  0.12501690599E+03 0.  0.
          2    1    1    2  501    0 -0.39489455623E+02 -0.10630706249E+03 -0.31547906786E+03  0.33524267464E+03  0.00000000000E+00 0. -1.
          1    1    1    2  502    0 -0.50229168922E+02 -0.13180422294E+02  0.22182846902E+04  0.22188924399E+04  0.00000000000E+00 0. -1.
         22    1    3    3    0    0  0.11832384049E+03  0.11170924220E+03  0.23109650734E+03  0.28263949073E+03  0.00000000000E+00 0. -1.
         22    1    3    3    0    0 -0.28605215942E+02  0.77782425915E+01  0.69651154453E+02  0.75697045871E+02  0.00000000000E+00 0. -1.
</event>
<event>
 7    1  0.6262315E-006  0.3788133E+02  0.7818608E-02  0.1542773E+00
          2   -1    0    0  502    0  0.00000000000E+00  0.00000000000E+00  0.57865868695E+03  0.57865868695E+03  0.00000000000E+00 0. -1.
          1   -1    0    0  501    0 -0.00000000000E+00 -0.00000000000E+00 -0.23380945527E+03  0.23380945527E+03  0.00000000000E+00 0. -1.
         25    2    1    2    0    0 -0.10093127918E+02 -0.98877108822E+00 -0.12648388414E+03  0.17810828104E+03  0.12498615094E+03 0.  0.
          2    1    1    2  501    0 -0.74555388898E+01 -0.32740190348E+02 -0.77369344810E+02  0.84341689812E+02  0.00000000000E+00 0. -1.
          1    1    1    2  502    0  0.17548666808E+02  0.33728961436E+02  0.54870246062E+03  0.55001817137E+03  0.00000000000E+00 0. -1.
         22    1    3    3    0    0 -0.39853294567E+02  0.49642509268E+02 -0.46300163433E+02  0.78717018161E+02  0.00000000000E+00 0. -1.
         22    1    3    3    0    0  0.29760166649E+02 -0.50631280356E+02 -0.80183720705E+02  0.99391262874E+02  0.00000000000E+00 0. -1.
</event>
<event>
 7    1  0.6262315E-006  0.5615047E+02  0.7818608E-02  0.1511507E+00
          2   -1    0    0  502    0  0.00000000000E+00  0.00000000000E+00  0.29780483995E+04  0.29780483995E+04  0.00000000000E+00 0. -1.
          1   -1    0    0  501    0 -0.00000000000E+00 -0.00000000000E+00 -0.17035084323E+03  0.17035084323E+03  0.00000000000E+00 0. -1.
         25    2    1    2    0    0  0.11019139300E+01 -0.34758709216E+02  0.41909852799E+03  0.43872374073E+03  0.12500224972E+03 0.  0.
          2    1    1    2  501    0  0.21802672420E+02 -0.17352636715E+02 -0.15900874341E+03  0.16143187730E+03  0.00000000000E+00 0. -1.
          1    1    1    2  502    0 -0.22904586350E+02  0.52111345931E+02  0.25476077717E+04  0.25482436247E+04  0.00000000000E+00 0. -1.
         22    1    3    3    0    0 -0.15499055585E+02 -0.64658631611E+02  0.11602247361E+03  0.13372424518E+03  0.00000000000E+00 0. -1.
         22    1    3    3    0    0  0.16600969515E+02  0.29899922394E+02  0.30307605438E+03  0.30499949556E+03  0.00000000000E+00 0. -1.
</event>
<event>
 7    1  0.6262315E-006  0.2048797E+03  0.7818608E-02  0.1194467E+00
          2   -1    0    0  502    0  0.00000000000E+00  0.00000000000E+00  0.48876106026E+02  0.48876106026E+02  0.00000000000E+00 0. -1.
          1   -1    0    0  501    0 -0.00000000000E+00 -0.00000000000E+00 -0.22665214190E+04  0.22665214190E+04  0.00000000000E+00 0. -1.
         25    2    1    2    0    0 -0.14002097220E+03  0.16450673100E+03 -0.59913999229E+03  0.64905004200E+03  0.12501555686E+03 0.  0.
          2    1    1    2  501    0  0.19936309632E+03 -0.63376308431E+02 -0.14236133687E+04  0.14389013949E+04  0.00000000000E+00 0. -1.
          1    1    1    2  502    0 -0.59342124128E+02 -0.10113042257E+03 -0.19489195198E+03  0.22744608815E+03  0.00000000000E+00 0. -1.
         22    1    3    3    0    0 -0.67016933504E+02  0.11673753647E+03 -0.20409885363E+03  0.24448980316E+03  0.00000000000E+00 0. -1.
         22    1    3    3    0    0 -0.73004038692E+02  0.47769194526E+02 -0.39504113867E+03  0.40456023884E+03  0.00000000000E+00 0. -1.
</event>
<event>
 7    1  0.6262315E-006  0.1434456E+03  0.7818608E-02  0.1361389E+00
          2   -1    0    0  502    0  0.00000000000E+00  0.00000000000E+00  0.18232694117E+04  0.18232694117E+04  0.00000000000E+00 0. -1.
          1   -1    0    0  501    0 -0.00000000000E+00 -0.00000000000E+00 -0.15408793493E+03  0.15408793493E+03  0.00000000000E+00 0. -1.
         25    2    1    2    0    0  0.15465189050E+03 -0.52056384551E+02  0.98737476680E+03  0.10085437830E+04  0.12499823080E+03 0.  0.
          2    1    1    2  501    0 -0.24031769154E+02  0.23753160633E+02 -0.13601175355E+03  0.14014612257E+03  0.00000000000E+00 0. -1.
          1    1    1    2  502    0 -0.13062012135E+03  0.28303223918E+02  0.81781846348E+03  0.82866744101E+03  0.00000000000E+00 0. -1.
         22    1    3    3    0    0  0.94445764434E+01 -0.22648139846E+00  0.43369645956E+03  0.43379934342E+03  0.00000000000E+00 0. -1.
         22    1    3    3    0    0  0.14520731406E+03 -0.51829903152E+02  0.55367830724E+03  0.57474443958E+03  0.00000000000E+00 0. -1.
</event>
<event>
 7    1  0.6262315E-006  0.6518620E+02  0.7818608E-02  0.1441481E+00
          2   -1    0    0  502    0  0.00000000000E+00  0.00000000000E+00  0.10960366927E+03  0.10960366927E+03  0.00000000000E+00 0. -1.
          1   -1    0    0  501    0 -0.00000000000E+00 -0.00000000000E+00 -0.20224511887E+03  0.20224511887E+03  0.00000000000E+00 0. -1.
         25    2    1    2    0    0  0.44222682980E+02 -0.20243396719E+01 -0.10025728102E+03  0.16623767036E+03  0.12499478793E+03 0.  0.
          2    1    1    2  501    0 -0.83312448410E+02 -0.34312958679E+01 -0.32352588708E+02  0.89439520613E+02  0.00000000000E+00 0. -1.
          1    1    1    2  502    0  0.39089765430E+02  0.54556355398E+01  0.39968420127E+02  0.56171597164E+02  0.00000000000E+00 0. -1.
         22    1    3    3    0    0  0.66963770044E+02 -0.45320176919E+01 -0.11902613320E+03  0.13664518311E+03  0.00000000000E+00 0. -1.
         22    1    3    3    0    0 -0.22741087064E+02  0.25076780200E+01  0.18768852181E+02  0.29592487257E+02  0.00000000000E+00 0. -1.
</event>
<event>
 7    1  0.6262315E-006  0.1048849E+03  0.7818608E-02  0.1352313E+00
          2   -1    0    0  502    0  0.00000000000E+00  0.00000000000E+00  0.14258832912E+04  0.14258832912E+04  0.00000000000E+00 0. -1.
          1   -1    0    0  501    0 -0.00000000000E+00 -0.00000000000E+00 -0.11807138861E+03  0.11807138861E+03  0.00000000000E+00 0. -1.
         25    2    1    2    0    0 -0.32192461372E+02 -0.68417726773E+02  0.56841054777E+03  0.58688434192E+03  0.12500136025E+03 0.  0.
          2    1    1    2  501    0  0.82082951048E+02  0.67908489177E+02 -0.81824958461E+02  0.13432980899E+03  0.00000000000E+00 0. -1.
          1    1    1    2  502    0 -0.49890489676E+02  0.50923759626E+00  0.82122631332E+03  0.82274052894E+03  0.00000000000E+00 0. -1.
         22    1    3    3    0    0  0.25178897761E+02 -0.52935716977E+02  0.11005363226E+03  0.12469149529E+03  0.00000000000E+00 0. -1.
         22    1    3    3    0    0 -0.57371359134E+02 -0.15482009796E+02  0.45835691551E+03  0.46219284663E+03  0.00000000000E+00 0. -1.
</event>
<event>
 7    1  0.6262315E-006  0.6147703E+02  0.7818608E-02  0.1445418E+00
          2   -1    0    0  502    0  0.00000000000E+00  0.00000000000E+00  0.27371037735E+03  0.27371037735E+03  0.00000000000E+00 0. -1.
          1   -1    0    0  501    0 -0.00000000000E+00 -0.00000000000E+00 -0.13040507750E+04  0.13040507750E+04  0.00000000000E+00 0. -1.
         25    2    1    2    0    0 -0.35997880274E+01 -0.35640125198E+02 -0.12343875227E+03  0.17929054733E+03  0.12499919120E+03 0.  0.
          2    1    1    2  501    0 -0.39550187435E+02 -0.93588165816E+01 -0.11483673591E+04  0.11490863311E+04  0.00000000000E+00 0. -1.
          1    1    1    2  502    0  0.43149975463E+02  0.44998941780E+02  0.24146571378E+03  0.24938427391E+03  0.00000000000E+00 0. -1.
         22    1    3    3    0    0  0.14400420561E+02 -0.62944771023E+02 -0.13070881042E+03  0.14578823489E+03  0.00000000000E+00 0. -1.
         22    1    3    3    0    0 -0.18000208588E+02  0.27304645825E+02  0.72700581507E+01  0.33502312433E+02  0.00000000000E+00 0. -1.
</event>
<event>
 7    1  0.6262315E-006  0.1370969E+03  0.7818608E-02  0.1316122E+00
          2   -1    0    0  502    0  0.00000000000E+00  0.00000000000E+00  0.40981440135E+04  0.40981440135E+04  0.00000000000E+00 0. -1.
          1   -1    0    0  501    0 -0.00000000000E+00 -0.00000000000E+00 -0.13633072267E+02  0.13633072267E+02  0.00000000000E+00 0. -1.
         25    2    1    2    0    0 -0.40202363546E+02  0.11214305944E+03  0.11531193441E+04  0.11659761219E+04  0.12499519686E+03 0.  0.
          2    1    1    2  501    0 -0.52341326545E+02 -0.18582390268E+01  0.12255462931E+03  0.13327679724E+03  0.00000000000E+00 0. -1.
          1    1    1    2  502    0  0.92543690092E+02 -0.11028482041E+03  0.28088369678E+04  0.28125241666E+04  0.00000000000E+00 0. -1.
         22    1    3    3    0    0 -0.54095689672E+02  0.36634701125E+02  0.21467748400E+03  0.22439890174E+03  0.00000000000E+00 0. -1.
         22    1    3    3    0    0  0.13893326126E+02  0.75508358312E+02  0.93844186011E+03  0.94157722015E+03  0.00000000000E+00 0. -1.
</event>
<event>
 7    1  0.6262315E-006  0.7438067E+02  0.7818608E-02  0.1376694E+00
          2   -1    0    0  502    0  0.00000000000E+00  0.00000000000E+00  0.20436255891E+03  0.20436255891E+03  0.00000000000E+00 0. -1.
          1   -1    0    0  501    0 -0.00000000000E+00 -0.00000000000E+00 -0.44296313040E+03  0.44296313040E+03  0.00000000000E+00 0. -1.
         25    2    1    2    0    0 -0.85092046907E+02 -0.21505959836E+01  0.90648907645E+02  0.17631456016E+03  0.12499727260E+03 0.  0.
          2    1    1    2  501    0  0.29238392691E+02 -0.49394724269E+02 -0.37693921733E+03  0.38128453411E+03  0.00000000000E+00 0. -1.
          1    1    1    2  502    0  0.55853654216E+02  0.51545320253E+02  0.47689738194E+02  0.89726595045E+02  0.00000000000E+00 0. -1.
         22    1    3    3    0    0 -0.38719461021E+02  0.50024469431E+02  0.17469706616E+01  0.63282668323E+02  0.00000000000E+00 0. -1.
         22    1    3    3    0    0 -0.46372585886E+02 -0.52175065415E+02  0.88901936983E+02  0.11303189184E+03  0.00000000000E+00 0. -1.
</event>
<event>
 7    1  0.6262315E-006  0.7478189E+02  0.7818608E-02  0.1347958E+00
          2   -1    0    0  502    0  0.00000000000E+00  0.00000000000E+00  0.31389327085E+04  0.31389327085E+04  0.00000000000E+00 0. -1.
          1   -1    0    0  501    0 -0.00000000000E+00 -0.00000000000E+00 -0.35140980350E+02  0.35140980350E+02  0.00000000000E+00 0. -1.
         25    2    1    2    0    0  0.99941412596E+02 -0.11739191981E+01  0.33510300646E+03  0.37135906171E+03  0.12499545485E+03 0.  0.
          2    1    1    2  501    0 -0.48913311511E+02 -0.53683725259E+02  0.63449202356E+02  0.96437833241E+02  0.00000000000E+00 0. -1.
          1    1    1    2  502    0 -0.51028101086E+02  0.54857644458E+02  0.27052395193E+04  0.27062767939E+04  0.00000000000E+00 0. -1.
         22    1    3    3    0    0  0.84352876308E+02  0.34311611816E+02  0.31459381492E+03  0.32750872177E+03  0.00000000000E+00 0.  1.
         22    1    3    3    0    0  0.15588536288E+02 -0.35485531014E+02  0.20509191538E+02  0.43850339936E+02  0.00000000000E+00 0.  1.
</event>
<event>
 7    1  0.6262315E-006  0.8634073E+02  0.7818608E-02  0.1478013E+00
          2   -1    0    0  502    0  0.00000000000E+00  0.00000000000E+00  0.95050141106E+03  0.95050141106E+03  0.00000000000E+00 0. -1.
          1   -1    0    0  501    0 -0.00000000000E+00 -0.00000000000E+00 -0.52903321477E+03  0.52903321477E+03  0.00000000000E+00 0. -1.
         25    2    1    2    0    0  0.80136347140E+02 -0.15518687393E+02 -0.33148930615E+03  0.36355611974E+03  0.12500091326E+03 0.  0.
          2    1    1    2  501    0 -0.26635699722E+01 -0.22694260348E+02 -0.17878541299E+03  0.18023969584E+03  0.00000000000E+00 0. -1.
          1    1    1    2  502    0 -0.77472777168E+02  0.38212947740E+02  0.93174291542E+03  0.93573881026E+03  0.00000000000E+00 0. -1.
         22    1    3    3    0    0  0.26180135135E+02 -0.68601513222E+02 -0.17199403023E+03  0.18701206786E+03  0.00000000000E+00 0. -1.
         22    1    3    3    0    0  0.53956212005E+02  0.53082825829E+02 -0.15949527592E+03  0.17654405188E+03  0.00000000000E+00 0. -1.
</event>
<event>
 7    1  0.6262315E-006  0.8031430E+02  0.7818608E-02  0.1404651E+00
          2   -1    0    0  502    0  0.00000000000E+00  0.00000000000E+00  0.17457982452E+04  0.17457982452E+04  0.00000000000E+00 0. -1.
          1   -1    0    0  501    0 -0.00000000000E+00 -0.00000000000E+00 -0.32015546644E+03  0.32015546644E+03  0.00000000000E+00 0. -1.
         25    2    1    2    0    0  0.53465246257E+02 -0.64394046981E+02  0.54536473762E+03  0.56573182271E+03  0.12499868939E+03 0.  0.
          2    1    1    2  501    0  0.22581696705E+02  0.35971306690E+02 -0.30712445239E+03  0.31004724992E+03  0.00000000000E+00 0. -1.
          1    1    1    2  502    0 -0.76046942962E+02  0.28422740292E+02  0.11874024936E+04  0.11901746390E+04  0.00000000000E+00 0. -1.
         22    1    3    3    0    0 -0.33102174993E+02 -0.32674901538E+02  0.92018546191E+02  0.10310584864E+03  0.00000000000E+00 0. -1.
         22    1    3    3    0    0  0.86567421250E+02 -0.31719145443E+02  0.45334619143E+03  0.46262597408E+03  0.00000000000E+00 0. -1.
</event>
<event>
 7    1  0.6262315E-006  0.3576110E+02  0.7818608E-02  0.1551310E+00
          2   -1    0    0  502    0  0.00000000000E+00  0.00000000000E+00  0.47922554424E+03  0.47922554424E+03  0.00000000000E+00 0. -1.
          1   -1    0    0  501    0 -0.00000000000E+00 -0.00000000000E+00 -0.83756954567E+03  0.83756954567E+03  0.00000000000E+00 0. -1.
         25    2    1    2    0    0  0.89588592819E+01 -0.45636590663E+02 -0.55724750566E+03  0.57298638845E+03  0.12500263684E+03 0.  0.
          2    1    1    2  501    0 -0.30210399015E+02  0.19528338526E+02 -0.27065999230E+03  0.27304002572E+03  0.00000000000E+00 0. -1.
          1    1    1    2  502    0  0.21251539733E+02  0.26108252137E+02  0.46956349653E+03  0.47076867573E+03  0.00000000000E+00 0. -1.
         22    1    3    3    0    0  0.44314393566E+02 -0.65492990338E+02 -0.22952936333E+03  0.24276907935E+03  0.00000000000E+00 0. -1.
         22    1    3    3    0    0 -0.35355534284E+02  0.19856399674E+02 -0.32771814234E+03  0.33021730910E+03  0.00000000000E+00 0. -1.
</event>
<event>
 7    1  0.6262315E-006  0.2522992E+03  0.7818608E-02  0.1265392E+00
          2   -1    0    0  502    0  0.00000000000E+00  0.00000000000E+00  0.57394026461E+03  0.57394026461E+03  0.00000000000E+00 0. -1.
          1   -1    0    0  501    0 -0.00000000000E+00 -0.00000000000E+00 -0.61881349701E+03  0.61881349701E+03  0.00000000000E+00 0. -1.
         25    2    1    2    0    0  0.67323408775E+01  0.26559394810E+03  0.17121191700E+03  0.33989136390E+03  0.12500859590E+03 0.  0.
          2    1    1    2  501    0 -0.40156283789E+02 -0.21920104640E+02 -0.48573780807E+03  0.48788752423E+03  0.00000000000E+00 0. -1.
          1    1    1    2  502    0  0.33423942912E+02 -0.24367384346E+03  0.26965265867E+03  0.36497487349E+03  0.00000000000E+00 0. -1.
         22    1    3    3    0    0  0.58746114114E+02  0.10886132504E+03  0.43483661525E+02  0.13112102361E+03  0.00000000000E+00 0. -1.
         22    1    3    3    0    0 -0.52013773236E+02  0.15673262307E+03  0.12772825548E+03  0.20877034029E+03  0.00000000000E+00 0. -1.
</event>
<event>
 7    1  0.6262315E-006  0.4415712E+02  0.7818608E-02  0.1480584E+00
          2   -1    0    0  502    0  0.00000000000E+00  0.00000000000E+00  0.28200911373E+03  0.28200911373E+03  0.00000000000E+00 0. -1.
          1   -1    0    0  501    0 -0.00000000000E+00 -0.00000000000E+00 -0.17749147012E+03  0.17749147012E+03  0.00000000000E+00 0. -1.
         25    2    1    2    0    0 -0.18103069901E+02 -0.83186645710E+01 -0.12035320116E+02  0.12714100384E+03  0.12499225819E+03 0.  0.
          2    1    1    2  501    0  0.33801781263E+02 -0.32953624719E+02 -0.10040747408E+03  0.11095117237E+03  0.00000000000E+00 0. -1.
          1    1    1    2  502    0 -0.15698711362E+02  0.41272289290E+02  0.21696043781E+03  0.22140840764E+03  0.00000000000E+00 0. -1.
         22    1    3    3    0    0 -0.69839009475E+02 -0.17216066151E+02  0.45895858446E+01  0.72075963236E+02  0.00000000000E+00 0. -1.
         22    1    3    3    0    0  0.51735939574E+02  0.88974015802E+01 -0.16624905961E+02  0.55065040604E+02  0.00000000000E+00 0. -1.
</event>
<event>
 7    1  0.6262315E-006  0.7655654E+02  0.7818608E-02  0.1370464E+00
          2   -1    0    0  502    0  0.00000000000E+00  0.00000000000E+00  0.16858308637E+04  0.16858308637E+04  0.00000000000E+00 0. -1.
          1   -1    0    0  501    0 -0.00000000000E+00 -0.00000000000E+00 -0.41930254295E+03  0.41930254295E+03  0.00000000000E+00 0. -1.
         25    2    1    2    0    0  0.60053408246E+02 -0.72228777314E+02  0.35726080785E+03  0.38999386312E+03  0.12504607283E+03 0.  0.
          2    1    1    2  501    0  0.15040710736E+02  0.56744140313E+02 -0.39967003756E+03  0.40395823963E+03  0.00000000000E+00 0. -1.
          1    1    1    2  502    0 -0.75094118982E+02  0.15484637001E+02  0.13089375505E+04  0.13111813039E+04  0.00000000000E+00 0. -1.
         22    1    3    3    0    0  0.12689723690E+02  0.27907146383E+02  0.16737576125E+03  0.17016016973E+03  0.00000000000E+00 0. -1.
         22    1    3    3    0    0  0.47363684556E+02 -0.10013592370E+03  0.18988504660E+03  0.21983369339E+03  0.00000000000E+00 0. -1.
</event>
<event>
 7    1  0.6262315E-006  0.6197150E+02  0.7818608E-02  0.1433063E+00
          2   -1    0    0  502    0  0.00000000000E+00  0.00000000000E+00  0.15673151338E+03  0.15673151338E+03  0.00000000000E+00 0. -1.
          1   -1    0    0  501    0 -0.00000000000E+00 -0.00000000000E+00 -0.71522947814E+03  0.71522947814E+03  0.00000000000E+00 0. -1.
         25    2    1    2    0    0  0.43041913904E+02 -0.53634529330E+01 -0.35930318867E+03  0.38288207732E+03  0.12497412036E+03 0.  0.
          2    1    1    2  501    0 -0.49874833542E+02  0.49054659536E+02 -0.33708679289E+03  0.34426931984E+03  0.00000000000E+00 0. -1.
          1    1    1    2  502    0  0.68329196382E+01 -0.43691206603E+02  0.13789201679E+03  0.14480959437E+03  0.00000000000E+00 0. -1.
         22    1    3    3    0    0  0.15185074600E+02  0.16211086278E-01 -0.35362129544E+03  0.35394718157E+03  0.00000000000E+00 0.  1.
         22    1    3    3    0    0  0.27856839304E+02 -0.53796640193E+01 -0.56818932295E+01  0.28934895742E+02  0.00000000000E+00 0.  1.
</event>
<event>
 7    1  0.6262315E-006  0.7957844E+02  0.7818608E-02  0.1380396E+00
          2   -1    0    0  502    0  0.00000000000E+00  0.00000000000E+00  0.61030739370E+03  0.61030739370E+03  0.00000000000E+00 0. -1.
          1   -1    0    0  501    0 -0.00000000000E+00 -0.00000000000E+00 -0.22544422908E+04  0.22544422908E+04  0.00000000000E+00 0. -1.
         25    2    1    2    0    0 -0.41849978030E+02  0.81526570698E+02  0.30810796074E+03  0.34489594201E+03  0.12499877181E+03 0.  0.
          2    1    1    2  501    0 -0.10137413199E+02 -0.78938884324E+02 -0.22329467261E+04  0.22343646068E+04  0.00000000000E+00 0. -1.
          1    1    1    2  502    0  0.51987391230E+02 -0.25876863739E+01  0.28070386823E+03  0.28548913571E+03  0.00000000000E+00 0. -1.
         22    1    3    3    0    0 -0.64734540247E+02  0.10359419126E+03  0.25950444101E+03  0.28681853509E+03  0.00000000000E+00 0.  1.
         22    1    3    3    0    0  0.22884562217E+02 -0.22067620564E+02  0.48603519721E+02  0.58077406920E+02  0.00000000000E+00 0.  1.
</event>
<event>
 7    1  0.6262315E-006  0.9869486E+02  0.7818608E-02  0.1428075E+00
          2   -1    0    0  502    0  0.00000000000E+00  0.00000000000E+00  0.31803257108E+03  0.31803257108E+03  0.00000000000E+00 0. -1.
          1   -1    0    0  501    0 -0.00000000000E+00 -0.00000000000E+00 -0.17463566334E+04  0.17463566334E+04  0.00000000000E+00 0. -1.
         25    2    1    2    0    0 -0.58619901163E+02  0.10902974783E+03 -0.91454857308E+02  0.19827703773E+03  0.12500405610E+03 0.  0.
          2    1    1    2  501    0  0.41642771020E+01 -0.28534586380E+02 -0.15924327282E+04  0.15926938053E+04  0.00000000000E+00 0. -1.
          1    1    1    2  502    0  0.54455624061E+02 -0.80495161449E+02  0.25556352313E+03  0.27341836143E+03  0.00000000000E+00 0. -1.
         22    1    3    3    0    0 -0.95166677122E+01  0.12410065127E+03 -0.61730967883E+02  0.13893254120E+03  0.00000000000E+00 0.  1.
         22    1    3    3    0    0 -0.49103233451E+02 -0.15070903437E+02 -0.29723889425E+02  0.59344496530E+02  0.00000000000E+00 0.  1.
</event>
<event>
 7    1  0.6262315E-006  0.6569964E+02  0.7818608E-02  0.1466551E+00
          2   -1    0    0  502    0  0.00000000000E+00  0.00000000000E+00  0.40295063626E+02  0.40295063626E+02  0.00000000000E+00 0. -1.
          1   -1    0    0  501    0 -0.00000000000E+00 -0.00000000000E+00 -0.81255866206E+03  0.81255866206E+03  0.00000000000E+00 0. -1.
         25    2    1    2    0    0  0.18615137268E+02  0.78223615635E+02 -0.26856092997E+03  0.30694532027E+03  0.12499999661E+03 0.  0.
          2    1    1    2  501    0  0.10631821238E+02 -0.63846306109E+02 -0.50881920675E+03  0.51291945916E+03  0.00000000000E+00 0. -1.
          1    1    1    2  502    0 -0.29246958506E+02 -0.14377309526E+02  0.51165382835E+01  0.32988946256E+02  0.00000000000E+00 0. -1.
         22    1    3    3    0    0  0.38433343079E+02 -0.20784760267E+02 -0.11639421219E+03  0.12432514126E+03  0.00000000000E+00 0. -1.
         22    1    3    3    0    0 -0.19818205811E+02  0.99008375902E+02 -0.15216671778E+03  0.18262017901E+03  0.00000000000E+00 0. -1.
</event>
<event>
 7    1  0.6262315E-006  0.4583334E+02  0.7818608E-02  0.1568320E+00
          2   -1    0    0  502    0  0.00000000000E+00  0.00000000000E+00  0.24200597123E+04  0.24200597123E+04  0.00000000000E+00 0. -1.
          1   -1    0    0  501    0 -0.00000000000E+00 -0.00000000000E+00 -0.10421743096E+02  0.10421743096E+02  0.00000000000E+00 0. -1.
         25    2    1    2    0    0  0.17793859883E+02  0.21288560141E+02  0.74013582564E+03  0.75112898964E+03  0.12499557765E+03 0.  0.
          2    1    1    2  501    0  0.23551191568E+02  0.11814607763E+01  0.25707887302E+02  0.34884809636E+02  0.00000000000E+00 0. -1.
          1    1    1    2  502    0 -0.41345051451E+02 -0.22470020918E+02  0.16437942563E+04  0.16444676561E+04  0.00000000000E+00 0. -1.
         22    1    3    3    0    0  0.45073124524E+02 -0.27755346496E+02  0.16549411747E+03  0.17375341358E+03  0.00000000000E+00 0. -1.
         22    1    3    3    0    0 -0.27279264641E+02  0.49043906637E+02  0.57464170817E+03  0.57737557606E+03  0.00000000000E+00 0. -1.
</event>
<event>
 7    1  0.6262315E-006  0.1613710E+03  0.7818608E-02  0.1347193E+00
          2   -1    0    0  502    0  0.00000000000E+00  0.00000000000E+00  0.16989497059E+04  0.16989497059E+04  0.00000000000E+00 0. -1.
          1   -1    0    0  501    0 -0.00000000000E+00 -0.00000000000E+00 -0.13803323637E+03  0.13803323637E+03  0.00000000000E+00 0. -1.
         25    2    1    2    0    0  0.75480525613E+02 -0.12238013627E+03  0.10226068911E+03  0.21623406173E+03  0.12500285362E+03 0.  0.
          2    1    1    2  501    0 -0.71956855786E+02  0.15607343954E+03  0.10485099757E+02  0.17218201109E+03  0.00000000000E+00 0. -1.
          1    1    1    2  502    0 -0.35236698278E+01 -0.33693303275E+02  0.14481706807E+04  0.14485668694E+04  0.00000000000E+00 0. -1.
         22    1    3    3    0    0 -0.30140689292E+02 -0.30896636609E+02  0.52363636167E+02  0.67860251233E+02  0.00000000000E+00 0. -1.
         22    1    3    3    0    0  0.10562121491E+03 -0.91483499660E+02  0.49897052946E+02  0.14837381050E+03  0.00000000000E+00 0. -1.
</event>
<event>
 7    1  0.6262315E-006  0.1197972E+03  0.7818608E-02  0.1318039E+00
          2   -1    0    0  502    0  0.00000000000E+00  0.00000000000E+00  0.56962202799E+03  0.56962202799E+03  0.00000000000E+00 0. -1.
          1   -1    0    0  501    0 -0.00000000000E+00 -0.00000000000E+00 -0.23659732131E+04  0.23659732131E+04  0.00000000000E+00 0. -1.
         25    2    1    2    0    0  0.37154254535E+02  0.13807853480E+03 -0.18158449234E+03  0.26276270899E+03  0.12500077190E+03 0.  0.
          2    1    1    2  501    0 -0.55405774333E+02 -0.20030052480E+02 -0.21366456255E+04  0.21374577263E+04  0.00000000000E+00 0. -1.
          1    1    1    2  502    0  0.18251519798E+02 -0.11804848232E+03  0.52187893276E+03  0.53537480573E+03  0.00000000000E+00 0. -1.
         22    1    3    3    0    0 -0.14705349454E+02  0.91119686290E+02 -0.16772245391E+03  0.19144154742E+03  0.00000000000E+00 0. -1.
         22    1    3    3    0    0  0.51859603989E+02  0.46958848511E+02 -0.13862038432E+02  0.71321161578E+02  0.00000000000E+00 0. -1.
</event>
<event>
 7    1  0.6262315E-006  0.4979638E+02  0.7818608E-02  0.1532041E+00
          2   -1    0    0  502    0  0.00000000000E+00  0.00000000000E+00  0.11891619175E+04  0.11891619175E+04  0.00000000000E+00 0. -1.
          1   -1    0    0  501    0 -0.00000000000E+00 -0.00000000000E+00 -0.39659929530E+02  0.39659929530E+02  0.00000000000E+00 0. -1.
         25    2    1    2    0    0 -0.71142814044E+02 -0.17848393156E+02  0.42588839274E+03  0.44987156921E+03  0.12499456220E+03 0.  0.
          2    1    1    2  501    0  0.27287374105E+02 -0.24670568750E+01 -0.19902832110E+02  0.33864581515E+02  0.00000000000E+00 0. -1.
          1    1    1    2  502    0  0.43855439939E+02  0.20315450031E+02  0.74351642729E+03  0.74508569626E+03  0.00000000000E+00 0. -1.
         22    1    3    3    0    0 -0.13518038179E+01 -0.62090938016E+02  0.19414069879E+03  0.20383258543E+03  0.00000000000E+00 0. -1.
         22    1    3    3    0    0 -0.69791010226E+02  0.44242544860E+02  0.23174769395E+03  0.24603898377E+03  0.00000000000E+00 0. -1.
</event>
<event>
 7    1  0.6262315E-006  0.1396604E+03  0.7818608E-02  0.1373840E+00
          2   -1    0    0  502    0  0.00000000000E+00  0.00000000000E+00  0.35670872425E+03  0.35670872425E+03  0.00000000000E+00 0. -1.
          1   -1    0    0  501    0 -0.00000000000E+00 -0.00000000000E+00 -0.13844925001E+04  0.13844925001E+04  0.00000000000E+00 0. -1.
         25    2    1    2    0    0 -0.64922870790E+02  0.11239688362E+03 -0.52522480579E+03  0.55527843529E+03  0.12500002193E+03 0.  0.
          2    1    1    2  501    0  0.95920864346E+02 -0.10809461789E+03 -0.83732108923E+03  0.84970104455E+03  0.00000000000E+00 0. -1.
          1    1    1    2  502    0 -0.30997993556E+02 -0.43022657310E+01  0.33476211914E+03  0.33622174454E+03  0.00000000000E+00 0. -1.
         22    1    3    3    0    0  0.33094473701E+02  0.57434385406E+02 -0.16100236246E+03  0.17411408195E+03  0.00000000000E+00 0. -1.
         22    1    3    3    0    0 -0.98017344491E+02  0.54962498218E+02 -0.36422244333E+03  0.38116435334E+03  0.00000000000E+00 0. -1.
</event>
<event>
 7    1  0.6262315E-006  0.7112680E+02  0.7818608E-02  0.1416096E+00
          2   -1    0    0  502    0  0.00000000000E+00  0.00000000000E+00  0.51706281294E+03  0.51706281294E+03  0.00000000000E+00 0. -1.
          1   -1    0    0  501    0 -0.00000000000E+00 -0.00000000000E+00 -0.10608300635E+04  0.10608300635E+04  0.00000000000E+00 0. -1.
         25    2    1    2    0    0 -0.13600112473E+02  0.10765851313E+03 -0.17752737816E+03  0.24272564977E+03  0.12499781018E+03 0.  0.
          2    1    1    2  501    0  0.22693594350E+02 -0.37536256098E+02 -0.84755331705E+03  0.84868757208E+03  0.00000000000E+00 0. -1.
          1    1    1    2  502    0 -0.90934818771E+01 -0.70122257031E+02  0.48131344465E+03  0.48647965461E+03  0.00000000000E+00 0. -1.
         22    1    3    3    0    0  0.52811853374E+02  0.62223669801E+02 -0.11400743231E+03  0.14020902810E+03  0.00000000000E+00 0.  1.
         22    1    3    3    0    0 -0.66411965847E+02  0.45434843328E+02 -0.63519945859E+02  0.10251662167E+03  0.00000000000E+00 0.  1.
</event>
<event>
 7    1  0.6262315E-006  0.1598268E+03  0.7818608E-02  0.1273968E+00
          2   -1    0    0  502    0  0.00000000000E+00  0.00000000000E+00  0.19443968472E+04  0.19443968472E+04  0.00000000000E+00 0. -1.
          1   -1    0    0  501    0 -0.00000000000E+00 -0.00000000000E+00 -0.73467751268E+03  0.73467751268E+03  0.00000000000E+00 0. -1.
         25    2    1    2    0    0  0.14784764206E+03 -0.16411828701E+03  0.16088782502E+03  0.30050521575E+03  0.12499902023E+03 0.  0.
          2    1    1    2  501    0 -0.11709599052E+03  0.10519035121E+03 -0.65489536084E+03  0.67354614885E+03  0.00000000000E+00 0. -1.
          1    1    1    2  502    0 -0.30751651542E+02  0.58927935800E+02  0.17037268704E+04  0.17050229953E+04  0.00000000000E+00 0. -1.
         22    1    3    3    0    0  0.93082871589E+02 -0.15998161953E+02  0.75916679970E+02  0.12117633625E+03  0.00000000000E+00 0.  1.
         22    1    3    3    0    0  0.54764770471E+02 -0.14812012506E+03  0.84971145046E+02  0.17932887950E+03  0.00000000000E+00 0.  1.
</event>
<event>
 7    1  0.6262315E-006  0.1172803E+03  0.7818608E-02  0.1285864E+00
          2   -1    0    0  502    0  0.00000000000E+00  0.00000000000E+00  0.46110549120E+04  0.46110549120E+04  0.00000000000E+00 0. -1.
          1   -1    0    0  501    0 -0.00000000000E+00 -0.00000000000E+00 -0.90199768954E+02  0.90199768954E+02  0.00000000000E+00 0. -1.
         25    2    1    2    0    0  0.71673438410E+02  0.15170508132E+03  0.86683767008E+03  0.89173110283E+03  0.12500120005E+03 0.  0.
          2    1    1    2  501    0  0.17127680311E+02 -0.79052984688E+02 -0.55586472829E+02  0.98145747654E+02  0.00000000000E+00 0. -1.
          1    1    1    2  502    0 -0.88801118721E+02 -0.72652096634E+02  0.37096039458E+04  0.37113778305E+04  0.00000000000E+00 0. -1.
         22    1    3    3    0    0  0.20848510804E+00 -0.12194879262E+00  0.31369758289E+03  0.31369767587E+03  0.00000000000E+00 0.  1.
         22    1    3    3    0    0  0.71464953302E+02  0.15182703011E+03  0.55314008719E+03  0.57803342696E+03  0.00000000000E+00 0.  1.
</event>
<event>
 7    1  0.6262315E-006  0.2365893E+03  0.7818608E-02  0.1140584E+00
          2   -1    0    0  502    0  0.00000000000E+00  0.00000000000E+00  0.32152185991E+03  0.32152185991E+03  0.00000000000E+00 0. -1.
          1   -1    0    0  501    0 -0.00000000000E+00 -0.00000000000E+00 -0.18693436498E+04  0.18693436498E+04  0.00000000000E+00 0. -1.
         25    2    1    2    0    0 -0.78713877705E+02  0.22254123354E+03 -0.10803318472E+04  0.11128621500E+04  0.12499915892E+03 0.  0.
          2    1    1    2  501    0  0.18838608440E+03 -0.92766968193E+01 -0.71138144238E+03  0.73596122891E+03  0.00000000000E+00 0. -1.
          1    1    1    2  502    0 -0.10967220670E+03 -0.21326453672E+03  0.24389149974E+03  0.34204213072E+03  0.00000000000E+00 0. -1.
         22    1    3    3    0    0  0.42150920156E+01  0.16716916736E+03 -0.65756088845E+03  0.67849069230E+03  0.00000000000E+00 0.  1.
         22    1    3    3    0    0 -0.82928969720E+02  0.55372066184E+02 -0.42277095876E+03  0.43437145775E+03  0.00000000000E+00 0.  1.
</event>
<event>
 7    1  0.6262315E-006  0.3156124E+03  0.7818608E-02  0.1129709E+00
          2   -1    0    0  502    0  0.00000000000E+00  0.00000000000E+00  0.14351112900E+04  0.14351112900E+04  0.00000000000E+00 0. -1.
          1   -1    0    0  501    0 -0.00000000000E+00 -0.00000000000E+00 -0.80716163049E+03  0.80716163049E+03  0.00000000000E+00 0. -1.
         25    2    1    2    0    0 -0.27333804434E+03 -0.10720198537E+03 -0.27640660391E+03  0.42216700905E+03  0.12497367999E+03 0.  0.
          2    1    1    2  501    0  0.35188968535E+03 -0.33782675810E+02 -0.38384848862E+03  0.52183070249E+03  0.00000000000E+00 0. -1.
          1    1    1    2  502    0 -0.78551641007E+02  0.14098466118E+03  0.12882047520E+04  0.12982752090E+04  0.00000000000E+00 0. -1.
         22    1    3    3    0    0 -0.17984455256E+03 -0.12887449966E+03 -0.17113401907E+03  0.27971333938E+03  0.00000000000E+00 0. -1.
         22    1    3    3    0    0 -0.93493491786E+02  0.21672514287E+02 -0.10527258484E+03  0.14245366966E+03  0.00000000000E+00 0. -1.
</event>
<event>
 7    1  0.6262315E-006  0.1731742E+03  0.7818608E-02  0.1352557E+00
          2   -1    0    0  502    0  0.00000000000E+00  0.00000000000E+00  0.51138469431E+03  0.51138469431E+03  0.00000000000E+00 0. -1.
          1   -1    0    0  501    0 -0.00000000000E+00 -0.00000000000E+00 -0.64495477123E+03  0.64495477123E+03  0.00000000000E+00 0. -1.
         25    2    1    2    0    0  0.15455756926E+03  0.23704744254E+02  0.66536321793E+01  0.20029823001E+03  0.12500061202E+03 0.  0.
          2    1    1    2  501    0 -0.16820335702E+03 -0.50596363072E+02 -0.53346878681E+03  0.56164161862E+03  0.00000000000E+00 0. -1.
          1    1    1    2  502    0  0.13645787751E+02  0.26891618817E+02  0.39324507771E+03  0.39439961692E+03  0.00000000000E+00 0. -1.
         22    1    3    3    0    0  0.14040846838E+03  0.24655289760E+02 -0.42806774182E+02  0.14884502418E+03  0.00000000000E+00 0. -1.
         22    1    3    3    0    0  0.14149100880E+02 -0.95054550546E+00  0.49460406362E+02  0.51453205828E+02  0.00000000000E+00 0. -1.
</event>
<event>
 7    1  0.6262315E-006  0.5665528E+02  0.7818608E-02  0.1465039E+00
          2   -1    0    0  502    0  0.00000000000E+00  0.00000000000E+00  0.25880993709E+04  0.25880993709E+04  0.00000000000E+00 0. -1.
          1   -1    0    0  501    0 -0.00000000000E+00 -0.00000000000E+00 -0.11244654482E+02  0.11244654482E+02  0.00000000000E+00 0. -1.
         25    2    1    2    0    0  0.83586254795E+01  0.20579520606E+02  0.65780736358E+03  0.66994501981E+03  0.12498967433E+03 0.  0.
          2    1    1    2  501    0  0.26438054358E+02  0.27581907396E+02  0.72982825582E+02  0.82378547959E+02  0.00000000000E+00 0. -1.
          1    1    1    2  502    0 -0.34796679838E+02 -0.48161428003E+02  0.18460645272E+04  0.18470204576E+04  0.00000000000E+00 0. -1.
         22    1    3    3    0    0 -0.16975392956E+02  0.68265045761E+02  0.43735504709E+03  0.44297597864E+03  0.00000000000E+00 0.  1.
         22    1    3    3    0    0  0.25334018435E+02 -0.47685525155E+02  0.22045231650E+03  0.22696904117E+03  0.00000000000E+00 0.  1.
</event>
<event>
 7    1  0.6262315E-006  0.1408527E+03  0.7818608E-02  0.1283497E+00
          2   -1    0    0  502    0  0.00000000000E+00  0.00000000000E+00  0.19157745614E+04  0.19157745614E+04  0.00000000000E+00 0. -1.
          1   -1    0    0  501    0 -0.00000000000E+00 -0.00000000000E+00 -0.57973019093E+02  0.57973019093E+02  0.00000000000E+00 0. -1.
         25    2    1    2    0    0  0.11173238181E+02  0.79327505450E+02  0.12759027461E+03  0.19575888361E+03  0.12499827184E+03 0.  0.
          2    1    1    2  501    0  0.33004974733E+02  0.60449606188E+02  0.36503012721E+02  0.77948400774E+02  0.00000000000E+00 0. -1.
          1    1    1    2  502    0 -0.44178212914E+02 -0.13977711164E+03  0.16937082550E+04  0.17000402961E+04  0.00000000000E+00 0. -1.
         22    1    3    3    0    0 -0.54957208982E+02  0.34612934211E+02  0.79134043048E+02  0.10237454177E+03  0.00000000000E+00 0. -1.
         22    1    3    3    0    0  0.66130447163E+02  0.44714571239E+02  0.48456231564E+02  0.93384341837E+02  0.00000000000E+00 0. -1.
</event>
<event>
 7    1  0.6262315E-006  0.6873659E+02  0.7818608E-02  0.1422870E+00
          2   -1    0    0  502    0  0.00000000000E+00  0.00000000000E+00  0.41548948525E+03  0.41548948525E+03  0.00000000000E+00 0. -1.
          1   -1    0    0  501    0 -0.00000000000E+00 -0.00000000000E+00 -0.11344868642E+04  0.11344868642E+04  0.00000000000E+00 0. -1.
         25    2    1    2    0    0 -0.84430392239E+01  0.25669420193E+02 -0.40758270849E+03  0.42717259603E+03  0.12499023360E+03 0.  0.
          2    1    1    2  501    0 -0.26997240739E+02  0.33574545029E+02 -0.71351790516E+03  0.71481739071E+03  0.00000000000E+00 0. -1.
          1    1    1    2  502    0  0.35440279963E+02 -0.59243965221E+02  0.40210323466E+03  0.40798636274E+03  0.00000000000E+00 0. -1.
         22    1    3    3    0    0  0.40699153035E+02  0.72489994692E+00 -0.46042428246E+02  0.61456096008E+02  0.00000000000E+00 0. -1.
         22    1    3    3    0    0 -0.49142192259E+02  0.24944520246E+02 -0.36154028024E+03  0.36571650002E+03  0.00000000000E+00 0. -1.
</event>
<event>
 7    1  0.6262315E-006  0.2499777E+03  0.7818608E-02  0.1216594E+00
          2   -1    0    0  502    0  0.00000000000E+00  0.00000000000E+00  0.23235453403E+04  0.23235453403E+04  0.00000000000E+00 0. -1.
          1   -1    0    0  501    0 -0.00000000000E+00 -0.00000000000E+00 -0.67757984491E+03  0.67757984491E+03  0.00000000000E+00 0. -1.
         25    2    1    2    0    0  0.12563587502E+03  0.14035705471E+03  0.55560516259E+03  0.59984300194E+03  0.12502021589E+03 0.  0.
          2    1    1    2  501    0 -0.20006931601E+03 -0.15438085455E+03 -0.63023939617E+03  0.67901610875E+03  0.00000000000E+00 0. -1.
          1    1    1    2  502    0  0.74433440985E+02  0.14023799836E+02  0.17205997290E+04  0.17222660745E+04  0.00000000000E+00 0. -1.
         22    1    3    3    0    0 -0.87123786239E+01  0.52864716950E+02  0.23931574875E+03  0.24523990588E+03  0.00000000000E+00 0.  1.
         22    1    3    3    0    0  0.13434825365E+03  0.87492337759E+02  0.31628941384E+03  0.35460309605E+03  0.00000000000E+00 0.  1.
</event>
<event>
 7    1  0.6262315E-006  0.2355344E+02  0.7818608E-02  0.1692000E+00
          2   -1    0    0  502    0  0.00000000000E+00  0.00000000000E+00  0.34597658249E+03  0.34597658249E+03  0.00000000000E+00 0. -1.
          1   -1    0    0  501    0 -0.00000000000E+00 -0.00000000000E+00 -0.83234601402E+03  0.83234601402E+03  0.00000000000E+00 0. -1.
         25    2    1    2    0    0 -0.34885009139E+02 -0.16633172412E+02 -0.25127164656E+03  0.28329551457E+03  0.12500112769E+03 0.  0.
          2    1    1    2  501    0  0.23273637529E+02 -0.25231058147E+01 -0.56443934439E+03  0.56492459830E+03  0.00000000000E+00 0. -1.
          1    1    1    2  502    0  0.11611371609E+02  0.19156278226E+02  0.32934155942E+03  0.33010248365E+03  0.00000000000E+00 0. -1.
         22    1    3    3    0    0 -0.53781036918E+01 -0.69813767072E+02 -0.13404408051E+03  0.15123062386E+03  0.00000000000E+00 0.  1.
         22    1    3    3    0    0 -0.29506905447E+02  0.53180594660E+02 -0.11722756605E+03  0.13206489072E+03  0.00000000000E+00 0.  1.
</event>
<event>
 7    1  0.6262315E-006  0.9371789E+02  0.7818608E-02  0.1382421E+00
          2   -1    0    0  502    0  0.00000000000E+00  0.00000000000E+00  0.24346244784E+03  0.24346244784E+03  0.00000000000E+00 0. -1.
          1   -1    0    0  501    0 -0.00000000000E+00 -0.00000000000E+00 -0.28676601216E+04  0.28676601216E+04  0.00000000000E+00 0. -1.
         25    2    1    2    0    0 -0.53019447375E+02 -0.27684301368E+02 -0.58426453847E+03  0.60048134452E+03  0.12504124064E+03 0.  0.
          2    1    1    2  501    0  0.96049130078E+02  0.21470471884E+02 -0.22722050107E+04  0.22743355133E+04  0.00000000000E+00 0. -1.
          1    1    1    2  502    0 -0.43029682703E+02  0.62138294845E+01  0.23227187536E+03  0.23630571164E+03  0.00000000000E+00 0. -1.
         22    1    3    3    0    0 -0.71277042749E+02  0.28100834388E+02 -0.39354929406E+03  0.40093780138E+03  0.00000000000E+00 0.  1.
         22    1    3    3    0    0  0.18257595374E+02 -0.55785135756E+02 -0.19071524441E+03  0.19954354314E+03  0.00000000000E+00 0.  1.
</event>
<event>
 7    1  0.6262315E-006  0.6818534E+02  0.7818608E-02  0.1496215E+00
          2   -1    0    0  502    0  0.00000000000E+00  0.00000000000E+00  0.10541458165E+04  0.10541458165E+04  0.00000000000E+00 0. -1.
          1   -1    0    0  501    0 -0.00000000000E+00 -0.00000000000E+00 -0.49263208691E+03  0.49263208691E+03  0.00000000000E+00 0. -1.
         25    2    1    2    0    0 -0.46628215542E+02 -0.22214948500E+02  0.24444126244E+03  0.27934747496E+03  0.12496314082E+03 0.  0.
          2    1    1    2  501    0  0.49101994824E+02  0.47569823240E+02 -0.47251346886E+03  0.47743363123E+03  0.00000000000E+00 0. -1.
          1    1    1    2  502    0 -0.24737792816E+01 -0.25354874739E+02  0.78958593600E+03  0.78999679720E+03  0.00000000000E+00 0. -1.
         22    1    3    3    0    0  0.34206256101E+02 -0.15748600667E+02  0.15099998026E+03  0.15562480656E+03  0.00000000000E+00 0. -1.
         22    1    3    3    0    0 -0.80834471643E+02 -0.64663478336E+01  0.93441282181E+02  0.12372266840E+03  0.00000000000E+00 0. -1.
</event>
<event>
 7    1  0.6262315E-006  0.2484230E+03  0.7818608E-02  0.1213348E+00
          2   -1    0    0  502    0  0.00000000000E+00  0.00000000000E+00  0.14314265894E+04  0.14314265894E+04  0.00000000000E+00 0. -1.
          1   -1    0    0  501    0 -0.00000000000E+00 -0.00000000000E+00 -0.35518828517E+03  0.35518828517E+03  0.00000000000E+00 0. -1.
         25    2    1    2    0    0 -0.26058140150E+03  0.79236874190E+02  0.14322300324E+03  0.33214517998E+03  0.12500577143E+03 0.  0.
          2    1    1    2  501    0  0.20440415411E+03 -0.13461224319E+03 -0.20161763555E+03  0.31709806873E+03  0.00000000000E+00 0. -1.
          1    1    1    2  502    0  0.56177247394E+02  0.55375368998E+02  0.11346329366E+04  0.11373716259E+04  0.00000000000E+00 0. -1.
         22    1    3    3    0    0 -0.15874423631E+03 -0.94313746327E+01  0.10916299094E+03  0.19288660394E+03  0.00000000000E+00 0.  1.
         22    1    3    3    0    0 -0.10183716519E+03  0.88668248823E+02  0.34060012300E+02  0.13925857604E+03  0.00000000000E+00 0.  1.
</event>
<event>
 7    1  0.6262315E-006  0.8534161E+02  0.7818608E-02  0.1450589E+00
          2   -1    0    0  502    0  0.00000000000E+00  0.00000000000E+00  0.27842361193E+04  0.27842361193E+04  0.00000000000E+00 0. -1.
          1   -1    0    0  501    0 -0.00000000000E+00 -0.00000000000E+00 -0.96011138414E+02  0.96011138414E+02  0.00000000000E+00 0. -1.
         25    2    1    2    0    0 -0.69916437398E+02  0.39335522331E+01  0.16734401877E+04  0.16795627110E+04  0.12500022967E+03 0.  0.
          2    1    1    2  501    0 -0.24448172781E+02  0.14014137417E+02 -0.88678505359E+02  0.93048302040E+02  0.00000000000E+00 0. -1.
          1    1    1    2  502    0  0.94364610179E+02 -0.17947689650E+02  0.11034632986E+04  0.11076362447E+04  0.00000000000E+00 0. -1.
         22    1    3    3    0    0 -0.12478549401E+02  0.60706119894E+02  0.65501299561E+03  0.65793842539E+03  0.00000000000E+00 0.  1.
         22    1    3    3    0    0 -0.57437887997E+02 -0.56772567661E+02  0.10184271921E+04  0.10216242856E+04  0.00000000000E+00 0.  1.
</event>
<event>
 7    1  0.6262315E-006  0.3463554E+02  0.7818608E-02  0.1555208E+00
          2   -1    0    0  502    0  0.00000000000E+00  0.00000000000E+00  0.93989849774E+02  0.93989849774E+02  0.00000000000E+00 0. -1.
          1   -1    0    0  501    0 -0.00000000000E+00 -0.00000000000E+00 -0.21081693043E+03  0.21081693043E+03  0.00000000000E+00 0. -1.
         25    2    1    2    0    0 -0.37390120157E+02  0.12474108450E+02  0.13302510138E+02  0.13174167837E+03  0.12500115430E+03 0.  0.
          2    1    1    2  501    0  0.28516379093E+02  0.20246358221E+02 -0.13441749083E+03  0.13889262306E+03  0.00000000000E+00 0. -1.
          1    1    1    2  502    0  0.88737410632E+01 -0.32720466670E+02  0.42879000350E+01  0.34172478785E+02  0.00000000000E+00 0. -1.
         22    1    3    3    0    0  0.11460614756E+02 -0.49305875473E+02 -0.50499551433E+01  0.50871574515E+02  0.00000000000E+00 0.  1.
         22    1    3    3    0    0 -0.48850734912E+02  0.61779983922E+02  0.18352465281E+02  0.80870103851E+02  0.00000000000E+00 0.  1.
</event>
<event>
 7    1  0.6262315E-006  0.1628121E+03  0.7818608E-02  0.1403195E+00
          2   -1    0    0  502    0  0.00000000000E+00  0.00000000000E+00  0.12727305002E+04  0.12727305002E+04  0.00000000000E+00 0. -1.
          1   -1    0    0  501    0 -0.00000000000E+00 -0.00000000000E+00 -0.10297500766E+04  0.10297500766E+04  0.00000000000E+00 0. -1.
         25    2    1    2    0    0  0.15210332790E+03 -0.10063029014E+03 -0.48873111003E+03  0.53642004706E+03  0.12500596515E+03 0.  0.
          2    1    1    2  501    0 -0.12637630875E+02  0.17012467461E+02 -0.51166097190E+03  0.51209968164E+03  0.00000000000E+00 0. -1.
          1    1    1    2  502    0 -0.13946569703E+03  0.83617822680E+02  0.12433725055E+04  0.12539608481E+04  0.00000000000E+00 0. -1.
         22    1    3    3    0    0 -0.39943531791E+00  0.18709648195E+02 -0.10435948534E+03  0.10602411360E+03  0.00000000000E+00 0.  1.
         22    1    3    3    0    0  0.15250276322E+03 -0.11933993834E+03 -0.38437162469E+03  0.43039593346E+03  0.00000000000E+00 0.  1.
</event>
<event>
 7    1  0.6262315E-006  0.1083484E+03  0.7818608E-02  0.1284536E+00
          2   -1    0    0  502    0  0.00000000000E+00  0.00000000000E+00  0.41854411374E+03  0.41854411374E+03  0.00000000000E+00 0. -1.
          1   -1    0    0  501    0 -0.00000000000E+00 -0.00000000000E+00 -0.71854522822E+03  0.71854522822E+03  0.00000000000E+00 0. -1.
         25    2    1    2    0    0 -0.10680886068E+03  0.10418731014E+03 -0.12605254784E+03  0.23189998208E+03  0.12500091423E+03 0.  0.
          2    1    1    2  501    0  0.88636842984E+02  0.19954847152E+01 -0.52785582119E+03  0.53524969861E+03  0.00000000000E+00 0. -1.
          1    1    1    2  502    0  0.18172017695E+02 -0.10618279485E+03  0.35390725456E+03  0.36993966126E+03  0.00000000000E+00 0. -1.
         22    1    3    3    0    0 -0.88551449054E+02  0.39007559398E+02 -0.96432247917E+01  0.97241660846E+02  0.00000000000E+00 0. -1.
         22    1    3    3    0    0 -0.18257411626E+02  0.65179750739E+02 -0.11640932305E+03  0.13465832124E+03  0.00000000000E+00 0. -1.
</event>
<event>
 7    1  0.6262315E-006  0.5539336E+02  0.7818608E-02  0.1432442E+00
          2   -1    0    0  502    0  0.00000000000E+00  0.00000000000E+00  0.94069098493E+03  0.94069098493E+03  0.00000000000E+00 0. -1.
          1   -1    0    0  501    0 -0.00000000000E+00 -0.00000000000E+00 -0.11889625027E+03  0.11889625027E+03  0.00000000000E+00 0. -1.
         25    2    1    2    0    0  0.57397219073E+02  0.85071249354E+02  0.30371106139E+03  0.34408763328E+03  0.12499732933E+03 0.  0.
          2    1    1    2  501    0 -0.22954124848E+02 -0.49232453252E+02 -0.90143168891E+02  0.10524503408E+03  0.00000000000E+00 0. -1.
          1    1    1    2  502    0 -0.34443094224E+02 -0.35838796103E+02  0.60822684217E+03  0.61025456785E+03  0.00000000000E+00 0. -1.
         22    1    3    3    0    0  0.54680972264E+02 -0.18639730853E+02  0.10032677521E+03  0.11577093814E+03  0.00000000000E+00 0.  1.
         22    1    3    3    0    0  0.27162468082E+01  0.10371098021E+03  0.20338428618E+03  0.22831669513E+03  0.00000000000E+00 0.  1.
</event>
<event>
 7    1  0.6262315E-006  0.8694428E+02  0.7818608E-02  0.1465296E+00
          2   -1    0    0  502    0  0.00000000000E+00  0.00000000000E+00  0.74202457282E+02  0.74202457282E+02  0.00000000000E+00 0. -1.
          1   -1    0    0  501    0 -0.00000000000E+00 -0.00000000000E+00 -0.49908702797E+03  0.49908702797E+03  0.00000000000E+00 0. -1.
         25    2    1    2    0    0  0.98243033638E+01 -0.71745062532E+02 -0.93100122570E+02  0.17186227309E+03  0.12500054862E+03 0.  0.
          2    1    1    2  501    0 -0.10406729630E+02 -0.22566175615E+02 -0.30128085881E+03  0.30230396654E+03  0.00000000000E+00 0. -1.
          1    1    1    2  502    0  0.58242626649E+00  0.94311238148E+02 -0.30503589312E+02  0.99123245620E+02  0.00000000000E+00 0. -1.
         22    1    3    3    0    0 -0.46790404550E+02 -0.30451553400E+02 -0.84480496037E+02  0.10126002801E+03  0.00000000000E+00 0. -1.
         22    1    3    3    0    0  0.56614707914E+02 -0.41293509132E+02 -0.86196265327E+01  0.70602245079E+02  0.00000000000E+00 0. -1.
</event>
<event>
 7    1  0.6262315E-006  0.8537904E+02  0.7818608E-02  0.1457591E+00
          2   -1    0    0  502    0  0.00000000000E+00  0.00000000000E+00  0.36799908019E+02  0.36799908019E+02  0.00000000000E+00 0. -1.
          1   -1    0    0  501    0 -0.00000000000E+00 -0.00000000000E+00 -0.90014364861E+03  0.90014364861E+03  0.00000000000E+00 0. -1.
         25    2    1    2    0    0  0.10164194848E+03  0.11394129787E+02 -0.34806597797E+03  0.38371374870E+03  0.12500161612E+03 0.  0.
          2    1    1    2  501    0 -0.23652108845E+02  0.12515772112E+02 -0.44428659780E+03  0.44509172964E+03  0.00000000000E+00 0. -1.
          1    1    1    2  502    0 -0.77989839638E+02 -0.23909901898E+02 -0.70991164820E+02  0.10813807830E+03  0.00000000000E+00 0. -1.
         22    1    3    3    0    0  0.26786429602E+02  0.33686174068E+02 -0.26955667821E+03  0.27297082976E+03  0.00000000000E+00 0. -1.
         22    1    3    3    0    0  0.74855518880E+02 -0.22292044281E+02 -0.78509299761E+02  0.11074291893E+03  0.00000000000E+00 0. -1.
</event>
<event>
 7    1  0.6262315E-006  0.7583317E+02  0.7818608E-02  0.1416909E+00
          2   -1    0    0  502    0  0.00000000000E+00  0.00000000000E+00  0.44307824155E+02  0.44307824155E+02  0.00000000000E+00 0. -1.
          1   -1    0    0  501    0 -0.00000000000E+00 -0.00000000000E+00 -0.42432989644E+03  0.42432989644E+03  0.00000000000E+00 0. -1.
         25    2    1    2    0    0  0.17589368427E+02  0.44066793891E+02 -0.14308434586E+03  0.19583001209E+03  0.12499998159E+03 0.  0.
          2    1    1    2  501    0 -0.12700430871E+02 -0.84656624152E+02 -0.20063102651E+03  0.21813035955E+03  0.00000000000E+00 0. -1.
          1    1    1    2  502    0 -0.48889375556E+01  0.40589830260E+02 -0.36306699908E+02  0.54677348959E+02  0.00000000000E+00 0. -1.
         22    1    3    3    0    0 -0.19483706160E+02 -0.21696566582E+01 -0.13453109288E+03  0.13595196640E+03  0.00000000000E+00 0. -1.
         22    1    3    3    0    0  0.37073074586E+02  0.46236450549E+02 -0.85532529797E+01  0.59878045686E+02  0.00000000000E+00 0. -1.
</event>
<event>
 7    1  0.6262315E-006  0.5841801E+02  0.7818608E-02  0.1439606E+00
          2   -1    0    0  502    0  0.00000000000E+00  0.00000000000E+00  0.39427524582E+03  0.39427524582E+03  0.00000000000E+00 0. -1.
          1   -1    0    0  501    0 -0.00000000000E+00 -0.00000000000E+00 -0.10671245347E+04  0.10671245347E+04  0.00000000000E+00 0. -1.
         25    2    1    2    0    0  0.61751096247E+02 -0.71817334042E+02 -0.12224396106E+03  0.19884621749E+03  0.12500121934E+03 0.  0.
          2    1    1    2  501    0 -0.41008711364E+02  0.17692146594E+02 -0.90366470772E+03  0.90476772181E+03  0.00000000000E+00 0. -1.
          1    1    1    2  502    0 -0.20742384883E+02  0.54125187448E+02  0.35305937989E+03  0.35778584122E+03  0.00000000000E+00 0. -1.
         22    1    3    3    0    0  0.27736593955E+02  0.22412596354E+02 -0.84630627020E+02  0.91836736382E+02  0.00000000000E+00 0. -1.
         22    1    3    3    0    0  0.34014502292E+02 -0.94229930396E+02 -0.37613334038E+02  0.10700948110E+03  0.00000000000E+00 0. -1.
</event>
<event>
 7    1  0.6262315E-006  0.5714146E+02  0.7818608E-02  0.1425823E+00
          2   -1    0    0  502    0  0.00000000000E+00  0.00000000000E+00  0.42100006334E+04  0.42100006334E+04  0.00000000000E+00 0. -1.
          1   -1    0    0  501    0 -0.00000000000E+00 -0.00000000000E+00 -0.16093145552E+04  0.16093145552E+04  0.00000000000E+00 0. -1.
         25    2    1    2    0    0 -0.41786026664E+02 -0.98873723563E+02 -0.61198894446E+03  0.63378026992E+03  0.12499950867E+03 0.  0.
          2    1    1    2  501    0  0.15091287385E+02  0.48368648843E+02 -0.98558485234E+03  0.98688640396E+03  0.00000000000E+00 0. -1.
          1    1    1    2  502    0  0.26694739279E+02  0.50505074720E+02  0.41982598750E+04  0.41986485146E+04  0.00000000000E+00 0. -1.
         22    1    3    3    0    0 -0.42911307096E+02 -0.12830618187E+03 -0.49897852522E+03  0.51699460849E+03  0.00000000000E+00 0. -1.
         22    1    3    3    0    0  0.11252804316E+01  0.29432458312E+02 -0.11301041924E+03  0.11678566143E+03  0.00000000000E+00 0. -1.
</event>
<event>
 7    1  0.6262315E-006  0.8336875E+02  0.7818608E-02  0.1374662E+00
          2   -1    0    0  502    0  0.00000000000E+00  0.00000000000E+00  0.44130347337E+03  0.44130347337E+03  0.00000000000E+00 0. -1.
          1   -1    0    0  501    0 -0.00000000000E+00 -0.00000000000E+00 -0.61289153079E+03  0.61289153079E+03  0.00000000000E+00 0. -1.
         25    2    1    2    0    0 -0.47619993008E+02  0.17438827312E+02 -0.57657831334E+02  0.14669737609E+03  0.12499567275E+03 0.  0.
          2    1    1    2  501    0  0.84560145290E+02  0.19262329181E+02 -0.50529510652E+03  0.51268372333E+03  0.00000000000E+00 0. -1.
          1    1    1    2  502    0 -0.36940152282E+02 -0.36701156493E+02  0.39136488043E+03  0.39481390474E+03  0.00000000000E+00 0. -1.
         22    1    3    3    0    0  0.40100111905E+02 -0.15453450625E+01 -0.20081201318E+00  0.40130379908E+02  0.00000000000E+00 0. -1.
         22    1    3    3    0    0 -0.87720104913E+02  0.18984172375E+02 -0.57457019321E+02  0.10656699619E+03  0.00000000000E+00 0. -1.
</event>
<event>
 7    1  0.6262315E-006  0.2178223E+03  0.7818608E-02  0.1261116E+00
          2   -1    0    0  502    0  0.00000000000E+00  0.00000000000E+00  0.32703980226E+03  0.32703980226E+03  0.00000000000E+00 0. -1.
          1   -1    0    0  501    0 -0.00000000000E+00 -0.00000000000E+00 -0.17454583268E+04  0.17454583268E+04  0.00000000000E+00 0. -1.
         25    2    1    2    0    0 -0.20669023663E+03  0.11349306281E+03 -0.62334714308E+03  0.67807637628E+03  0.12499752820E+03 0.  0.
          2    1    1    2  501    0  0.45275660129E+02  0.31670028152E+02 -0.10546132023E+04  0.10560596018E+04  0.00000000000E+00 0. -1.
          1    1    1    2  502    0  0.16141457650E+03 -0.14516309096E+03  0.25954182082E+03  0.33836215101E+03  0.00000000000E+00 0. -1.
         22    1    3    3    0    0 -0.94099749562E+01  0.58297758432E+02 -0.10102516707E+03  0.11701820649E+03  0.00000000000E+00 0. -1.
         22    1    3    3    0    0 -0.19728026168E+03  0.55195304381E+02 -0.52232197601E+03  0.56105816980E+03  0.00000000000E+00 0. -1.
</event>
<event>
 7    1  0.6262315E-006  0.4616400E+02  0.7818608E-02  0.1564124E+00
          2   -1    0    0  502    0  0.00000000000E+00  0.00000000000E+00  0.78141800177E+03  0.78141800177E+03  0.00000000000E+00 0. -1.
          1   -1    0    0  501    0 -0.00000000000E+00 -0.00000000000E+00 -0.12831900500E+03  0.12831900500E+03  0.00000000000E+00 0. -1.
         25    2    1    2    0    0  0.55803834874E+02  0.32472970992E+02  0.73901936067E+02  0.15895028470E+03  0.12504053351E+03 0.  0.
          2    1    1    2  501    0 -0.24030106366E+02  0.60469032464E+00 -0.83302522041E+02  0.86701337018E+02  0.00000000000E+00 0. -1.
          1    1    1    2  502    0 -0.31773728508E+02 -0.33077661317E+02  0.66249958275E+03  0.66408538505E+03  0.00000000000E+00 0. -1.
         22    1    3    3    0    0  0.88431550547E+02  0.25507423356E+02  0.17896525425E+02  0.93760617536E+02  0.00000000000E+00 0.  1.
         22    1    3    3    0    0 -0.32627715674E+02  0.69655476358E+01  0.56005410641E+02  0.65189667165E+02  0.00000000000E+00 0.  1.
</event>
<event>
 7    1  0.6262315E-006  0.1432915E+03  0.7818608E-02  0.1384711E+00
          2   -1    0    0  502    0  0.00000000000E+00  0.00000000000E+00  0.22804454991E+04  0.22804454991E+04  0.00000000000E+00 0. -1.
          1   -1    0    0  501    0 -0.00000000000E+00 -0.00000000000E+00 -0.50747910058E+03  0.50747910058E+03  0.00000000000E+00 0. -1.
         25    2    1    2    0    0 -0.59205460527E+02  0.14795754978E+03  0.75431087579E+03  0.78102905459E+03  0.12499905475E+03 0.  0.
          2    1    1    2  501    0  0.72462315638E+02 -0.12339518679E+03 -0.48362724061E+03  0.50435351409E+03  0.00000000000E+00 0. -1.
          1    1    1    2  502    0 -0.13256855112E+02 -0.24562362992E+02  0.15022827634E+04  0.15025420310E+04  0.00000000000E+00 0. -1.
         22    1    3    3    0    0  0.16296362758E+02  0.11468892654E+03  0.51589087944E+03  0.52873672163E+03  0.00000000000E+00 0.  1.
         22    1    3    3    0    0 -0.75501823285E+02  0.33268623236E+02  0.23841999635E+03  0.25229233296E+03  0.00000000000E+00 0.  1.
</event>
<event>
 7    1  0.6262315E-006  0.3539284E+02  0.7818608E-02  0.1636967E+00
          2   -1    0    0  502    0  0.00000000000E+00  0.00000000000E+00  0.16188810357E+03  0.16188810357E+03  0.00000000000E+00 0. -1.
          1   -1    0    0  501    0 -0.00000000000E+00 -0.00000000000E+00 -0.94228402300E+03  0.94228402300E+03  0.00000000000E+00 0. -1.
         25    2    1    2    0    0  0.96223983524E+01 -0.14015048074E+02  0.74475131021E+02  0.14649252900E+03  0.12499801515E+03 0.  0.
          2    1    1    2  501    0 -0.28649867075E+02  0.20884252416E+02 -0.90392401416E+03  0.90461903046E+03  0.00000000000E+00 0. -1.
          1    1    1    2  502    0  0.19027468722E+02 -0.68692043414E+01  0.49052963711E+02  0.53060567120E+02  0.00000000000E+00 0. -1.
         22    1    3    3    0    0  0.18753616948E+02  0.24209921631E+02 -0.25001851770E+02  0.39533669775E+02  0.00000000000E+00 0.  1.
         22    1    3    3    0    0 -0.91312185952E+01 -0.38224969705E+02  0.99476982791E+02  0.10695885923E+03  0.00000000000E+00 0.  1.
</event>
<event>
 7    1  0.6262315E-006  0.6069030E+02  0.7818608E-02  0.1409982E+00
          2   -1    0    0  502    0  0.00000000000E+00  0.00000000000E+00  0.26610368067E+03  0.26610368067E+03  0.00000000000E+00 0. -1.
          1   -1    0    0  501    0 -0.00000000000E+00 -0.00000000000E+00 -0.27242456174E+03  0.27242456174E+03  0.00000000000E+00 0. -1.
         25    2    1    2    0    0  0.58497812047E+02  0.45455985513E+02 -0.17642708849E+03  0.22855914725E+03  0.12499810240E+03 0.  0.
          2    1    1    2  501    0 -0.51768115020E+02  0.15032637326E+02 -0.54861795777E+02  0.76913812502E+02  0.00000000000E+00 0. -1.
          1    1    1    2  502    0 -0.67296970263E+01 -0.60488622839E+02  0.22496800320E+03  0.23305528267E+03  0.00000000000E+00 0. -1.
         22    1    3    3    0    0 -0.37232985178E+02  0.30141958928E+02 -0.50071942550E+02  0.69296697642E+02  0.00000000000E+00 0.  1.
         22    1    3    3    0    0  0.95730797225E+02  0.15314026584E+02 -0.12635514594E+03  0.15926244960E+03  0.00000000000E+00 0.  1.
</event>
<event>
 7    1  0.6262315E-006  0.1059714E+03  0.7818608E-02  0.1464753E+00
          2   -1    0    0  502    0  0.00000000000E+00  0.00000000000E+00  0.69144996612E+03  0.69144996612E+03  0.00000000000E+00 0. -1.
          1   -1    0    0  501    0 -0.00000000000E+00 -0.00000000000E+00 -0.12207026829E+04  0.12207026829E+04  0.00000000000E+00 0. -1.
         25    2    1    2    0    0 -0.25795247676E+02 -0.91617825388E+02  0.12088879461E+03  0.19823818540E+03  0.12500022703E+03 0.  0.
          2    1    1    2  501    0  0.13562936109E+02 -0.15329650415E+02 -0.11764916917E+04  0.11766697294E+04  0.00000000000E+00 0. -1.
          1    1    1    2  502    0  0.12232311566E+02  0.10694747580E+03  0.52635018037E+03  0.53724473418E+03  0.00000000000E+00 0. -1.
         22    1    3    3    0    0 -0.73728453695E+01 -0.12004896789E+03  0.77065105846E+02  0.14284657532E+03  0.00000000000E+00 0.  1.
         22    1    3    3    0    0 -0.18422402306E+02  0.28431142505E+02  0.43823688765E+02  0.55391610085E+02  0.00000000000E+00 0.  1.
</event>
<event>
 7    1  0.6262315E-006  0.7238869E+02  0.7818608E-02  0.1418555E+00
          2   -1    0    0  502    0  0.00000000000E+00  0.00000000000E+00  0.58798653220E+03  0.58798653220E+03  0.00000000000E+00 0. -1.
          1   -1    0    0  501    0 -0.00000000000E+00 -0.00000000000E+00 -0.23194540759E+03  0.23194540759E+03  0.00000000000E+00 0. -1.
         25    2    1    2    0    0  0.32125070817E+01  0.34932638665E+02  0.12766958924E+03  0.18208679869E+03  0.12500187517E+03 0.  0.
          2    1    1    2  501    0 -0.29761924289E+02 -0.67847678999E+02 -0.19695115302E+03  0.21042537004E+03  0.00000000000E+00 0. -1.
          1    1    1    2  502    0  0.26549417208E+02  0.32915040334E+02  0.42532268838E+03  0.42741977105E+03  0.00000000000E+00 0. -1.
         22    1    3    3    0    0 -0.17879332870E+02  0.71479729946E+02  0.37818578702E+02  0.82820693260E+02  0.00000000000E+00 0.  1.
         22    1    3    3    0    0  0.21091839951E+02 -0.36547091281E+02  0.89851010537E+02  0.99266105435E+02  0.00000000000E+00 0.  1.
</event>
<event>
 7    1  0.6262315E-006  0.6316118E+02  0.7818608E-02  0.1385550E+00
          2   -1    0    0  502    0  0.00000000000E+00  0.00000000000E+00  0.49422089934E+03  0.49422089934E+03  0.00000000000E+00 0. -1.
          1   -1    0    0  501    0 -0.00000000000E+00 -0.00000000000E+00 -0.19175260123E+04  0.19175260123E+04  0.00000000000E+00 0. -1.
         25    2    1    2    0    0  0.70212653210E+02 -0.29286904034E+00 -0.93060224542E+02  0.17095070884E+03  0.12503614285E+03 0.  0.
          2    1    1    2  501    0 -0.34949790873E+02  0.52693873222E+02 -0.17827667427E+04  0.17838877181E+04  0.00000000000E+00 0. -1.
          1    1    1    2  502    0 -0.35262862337E+02 -0.52401004181E+02  0.45252185430E+03  0.45690848462E+03  0.00000000000E+00 0. -1.
         22    1    3    3    0    0 -0.36060642350E+02 -0.32517866755E+01 -0.15674249214E+02  0.39454101582E+02  0.00000000000E+00 0. -1.
         22    1    3    3    0    0  0.10627329556E+03  0.29589176351E+01 -0.77385975328E+02  0.13149660726E+03  0.00000000000E+00 0. -1.
</event>
<event>
 7    1  0.6262315E-006  0.7652609E+02  0.7818608E-02  0.1440773E+00
          2   -1    0    0  502    0  0.00000000000E+00  0.00000000000E+00  0.36534284684E+03  0.36534284684E+03  0.00000000000E+00 0. -1.
          1   -1    0    0  501    0 -0.00000000000E+00 -0.00000000000E+00 -0.37673161515E+03  0.37673161515E+03  0.00000000000E+00 0. -1.
         25    2    1    2    0    0  0.16298420803E+02 -0.49439687272E+02 -0.68893310353E+02  0.15192277294E+03  0.12499727808E+03 0.  0.
          2    1    1    2  501    0 -0.18603934670E+02 -0.28217099849E+02 -0.26055656067E+03  0.26273947632E+03  0.00000000000E+00 0. -1.
          1    1    1    2  502    0  0.23055138672E+01  0.77656787121E+02  0.31806110272E+03  0.32741221273E+03  0.00000000000E+00 0. -1.
         22    1    3    3    0    0 -0.17848702155E+02 -0.61695983869E+02  0.10082343750E+02  0.65012493028E+02  0.00000000000E+00 0. -1.
         22    1    3    3    0    0  0.34147122958E+02  0.12256296598E+02 -0.78975654103E+02  0.86910279908E+02  0.00000000000E+00 0. -1.
</event>
<event>
 7    1  0.6262315E-006  0.1494068E+03  0.7818608E-02  0.1365933E+00
          2   -1    0    0  502    0  0.00000000000E+00  0.00000000000E+00  0.10564925198E+04  0.10564925198E+04  0.00000000000E+00 0. -1.
          1   -1    0    0  501    0 -0.00000000000E+00 -0.00000000000E+00 -0.11368951845E+04  0.11368951845E+04  0.00000000000E+00 0. -1.
         25    2    1    2    0    0  0.10685098985E+03 -0.93975201017E+02  0.26296057330E+03  0.32406911553E+03  0.12499622431E+03 0.  0.
          2    1    1    2  501    0 -0.15437457404E+02 -0.27150819272E+02 -0.10985713544E+04  0.10990152423E+04  0.00000000000E+00 0. -1.
          1    1    1    2  502    0 -0.91413532448E+02  0.12112602029E+03  0.75520811637E+03  0.77030334657E+03  0.00000000000E+00 0. -1.
         22    1    3    3    0    0  0.70769989142E+02 -0.25280666451E+02  0.22591377386E+03  0.23808514586E+03  0.00000000000E+00 0.  1.
         22    1    3    3    0    0  0.36081000711E+02 -0.68694534566E+02  0.37046799440E+02  0.85983969671E+02  0.00000000000E+00 0.  1.
</event>
<event>
 7    1  0.6262315E-006  0.1865062E+03  0.7818608E-02  0.1242180E+00
          2   -1    0    0  502    0  0.00000000000E+00  0.00000000000E+00  0.32550346125E+03  0.32550346125E+03  0.00000000000E+00 0. -1.
          1   -1    0    0  501    0 -0.00000000000E+00 -0.00000000000E+00 -0.26115297924E+03  0.26115297924E+03  0.00000000000E+00 0. -1.
         25    2    1    2    0    0  0.98720455475E+02  0.15954622197E+03 -0.10742304804E+03  0.24973651516E+03  0.12501156138E+03 0.  0.
          2    1    1    2  501    0 -0.72747181050E+02  0.27940143847E+02 -0.47903276199E+01  0.78075292043E+02  0.00000000000E+00 0. -1.
          1    1    1    2  502    0 -0.25973274426E+02 -0.18748636581E+03  0.17656385767E+03  0.25884463329E+03  0.00000000000E+00 0. -1.
         22    1    3    3    0    0  0.14484497216E+02  0.56329791431E+02 -0.10076190618E+03  0.11634349057E+03  0.00000000000E+00 0. -1.
         22    1    3    3    0    0  0.84235958260E+02  0.10321643053E+03 -0.66611418583E+01  0.13339302458E+03  0.00000000000E+00 0. -1.
</event>
<event>
 7    1  0.6262315E-006  0.8181269E+02  0.7818608E-02  0.1389066E+00
          2   -1    0    0  502    0  0.00000000000E+00  0.00000000000E+00  0.17955066658E+04  0.17955066658E+04  0.00000000000E+00 0. -1.
          1   -1    0    0  501    0 -0.00000000000E+00 -0.00000000000E+00 -0.66663699268E+02  0.66663699268E+02  0.00000000000E+00 0. -1.
         25    2    1    2    0    0 -0.11195467612E+03  0.37457090426E+02  0.74683133239E+03  0.76636697588E+03  0.12499767817E+03 0.  0.
          2    1    1    2  501    0  0.47045906471E+02  0.37773432009E+01 -0.45417409594E+02  0.65500585735E+02  0.00000000000E+00 0. -1.
          1    1    1    2  502    0  0.64908769649E+02 -0.41234433627E+02  0.10274290437E+04  0.10303028034E+04  0.00000000000E+00 0. -1.
         22    1    3    3    0    0 -0.28492438386E+02 -0.45786420025E+02  0.24830941931E+03  0.25409797918E+03  0.00000000000E+00 0. -1.
         22    1    3    3    0    0 -0.83462237734E+02  0.83243510451E+02  0.49852191308E+03  0.51226899670E+03  0.00000000000E+00 0. -1.
</event>
<event>
 7    1  0.6262315E-006  0.6824852E+02  0.7818608E-02  0.1456905E+00
          2   -1    0    0  502    0  0.00000000000E+00  0.00000000000E+00  0.49745168245E+03  0.49745168245E+03  0.00000000000E+00 0. -1.
          1   -1    0    0  501    0 -0.00000000000E+00 -0.00000000000E+00 -0.54330345860E+03  0.54330345860E+03  0.00000000000E+00 0. -1.
         25    2    1    2    0    0  0.41747835017E+02 -0.36729144171E+02 -0.40801542727E+02  0.14276553164E+03  0.12500127750E+03 0.  0.
          2    1    1    2  501    0 -0.23646333032E+02  0.65088363082E+02 -0.44822327983E+03  0.45354134613E+03  0.00000000000E+00 0. -1.
          1    1    1    2  502    0 -0.18101501985E+02 -0.28359218911E+02  0.44317304640E+03  0.44444826328E+03  0.00000000000E+00 0. -1.
         22    1    3    3    0    0  0.12160544720E+02  0.41380176764E+02 -0.40610129076E+02  0.59240024143E+02  0.00000000000E+00 0. -1.
         22    1    3    3    0    0  0.29587290297E+02 -0.78109320935E+02 -0.19141365072E+00  0.83525507500E+02  0.00000000000E+00 0. -1.
</event>
<event>
 7    1  0.6262315E-006  0.1240433E+03  0.7818608E-02  0.1254123E+00
          2   -1    0    0  502    0  0.00000000000E+00  0.00000000000E+00  0.23665615950E+04  0.23665615950E+04  0.00000000000E+00 0. -1.
          1   -1    0    0  501    0 -0.00000000000E+00 -0.00000000000E+00 -0.46174795351E+03  0.46174795351E+03  0.00000000000E+00 0. -1.
         25    2    1    2    0    0 -0.14304388527E+03  0.52935712739E+01  0.71348148912E+01  0.19017099432E+03  0.12499810593E+03 0.  0.
          2    1    1    2  501    0  0.58431822752E+02  0.85978519789E+02 -0.36118569543E+03  0.37584796176E+03  0.00000000000E+00 0. -1.
          1    1    1    2  502    0  0.84612062514E+02 -0.91272091062E+02  0.22588645220E+04  0.22622905924E+04  0.00000000000E+00 0. -1.
         22    1    3    3    0    0 -0.10225264407E+03  0.60288969348E+02  0.20352173036E+02  0.12043493675E+03  0.00000000000E+00 0.  1.
         22    1    3    3    0    0 -0.40791241200E+02 -0.54995398074E+02 -0.13217358144E+02  0.69736057562E+02  0.00000000000E+00 0.  1.
</event>
<event>
 7    1  0.6262315E-006  0.5036609E+02  0.7818608E-02  0.1466877E+00
          2   -1    0    0  502    0  0.00000000000E+00  0.00000000000E+00  0.16576301670E+04  0.16576301670E+04  0.00000000000E+00 0. -1.
          1   -1    0    0  501    0 -0.00000000000E+00 -0.00000000000E+00 -0.78987081598E+02  0.78987081598E+02  0.00000000000E+00 0. -1.
         25    2    1    2    0    0 -0.30362793123E+02  0.37015644873E+01 -0.10116175484E+02  0.12907715376E+03  0.12499189506E+03 0.  0.
          2    1    1    2  501    0  0.71857798142E+02 -0.32248147291E+02  0.16442738512E+03  0.18231799455E+03  0.00000000000E+00 0. -1.
          1    1    1    2  502    0 -0.41495005019E+02  0.28546582803E+02  0.14243318758E+04  0.14252221003E+04  0.00000000000E+00 0. -1.
         22    1    3    3    0    0  0.16413067835E+02  0.40033143957E+02 -0.43278585122E+02  0.61197037028E+02  0.00000000000E+00 0. -1.
         22    1    3    3    0    0 -0.46775860958E+02 -0.36331579470E+02  0.33162409638E+02  0.67880116736E+02  0.00000000000E+00 0. -1.
</event>
<event>
 7    1  0.6262315E-006  0.7977304E+02  0.7818608E-02  0.1381783E+00
          2   -1    0    0  502    0  0.00000000000E+00  0.00000000000E+00  0.16761415795E+04  0.16761415795E+04  0.00000000000E+00 0. -1.
          1   -1    0    0  501    0 -0.00000000000E+00 -0.00000000000E+00 -0.21185925344E+04  0.21185925344E+04  0.00000000000E+00 0. -1.
         25    2    1    2    0    0 -0.70694189647E+00  0.36779863395E+02  0.14857122624E+03  0.19761572109E+03  0.12500122335E+03 0.  0.
          2    1    1    2  501    0  0.40883140439E+02 -0.68745916117E+02 -0.20928677134E+04  0.20943955447E+04  0.00000000000E+00 0. -1.
          1    1    1    2  502    0 -0.40176198543E+02  0.31966052721E+02  0.15018455322E+04  0.15027228481E+04  0.00000000000E+00 0. -1.
         22    1    3    3    0    0  0.13030158457E+02  0.81988308468E+02  0.96876221703E+02  0.12758083746E+03  0.00000000000E+00 0.  1.
         22    1    3    3    0    0 -0.13737100354E+02 -0.45208445073E+02  0.51695004533E+02  0.70034883635E+02  0.00000000000E+00 0.  1.
</event>
<event>
 7    1  0.6262315E-006  0.1425204E+03  0.7818608E-02  0.1391267E+00
          2   -1    0    0  502    0  0.00000000000E+00  0.00000000000E+00  0.45915581211E+03  0.45915581211E+03  0.00000000000E+00 0. -1.
          1   -1    0    0  501    0 -0.00000000000E+00 -0.00000000000E+00 -0.12714573979E+04  0.12714573979E+04  0.00000000000E+00 0. -1.
         25    2    1    2    0    0  0.12421075780E+03  0.34789805390E+02 -0.12256022777E+03  0.21744437390E+03  0.12498961316E+03 0.  0.
          2    1    1    2  501    0  0.18563907989E+02 -0.19076534787E+02 -0.10887596512E+04  0.10890849879E+04  0.00000000000E+00 0. -1.
          1    1    1    2  502    0 -0.14277466579E+03 -0.15713270603E+02  0.39901829313E+03  0.42408384822E+03  0.00000000000E+00 0. -1.
         22    1    3    3    0    0  0.89907060186E+02 -0.34707543010E+02 -0.94622132409E+02  0.13506013829E+03  0.00000000000E+00 0.  1.
         22    1    3    3    0    0  0.34303697616E+02  0.69497348400E+02 -0.27938095362E+02  0.82384235611E+02  0.00000000000E+00 0.  1.
</event>
<event>
 7    1  0.6262315E-006  0.1572412E+03  0.7818608E-02  0.1355347E+00
          2   -1    0    0  502    0  0.00000000000E+00  0.00000000000E+00  0.18085966149E+04  0.18085966149E+04  0.00000000000E+00 0. -1.
          1   -1    0    0  501    0 -0.00000000000E+00 -0.00000000000E+00 -0.76640324328E+03  0.76640324328E+03  0.00000000000E+00 0. -1.
         25    2    1    2    0    0 -0.42675407850E+02  0.15411839567E+03 -0.36316525740E+03  0.41603510814E+03  0.12499014644E+03 0.  0.
          2    1    1    2  501    0  0.32314733316E+02  0.27865564574E+01 -0.37262860778E+03  0.37403754654E+03  0.00000000000E+00 0. -1.
          1    1    1    2  502    0  0.10360674534E+02 -0.15690495212E+03  0.17779872368E+04  0.17849272035E+04  0.00000000000E+00 0. -1.
         22    1    3    3    0    0 -0.15399821881E+02 -0.20824060232E+02 -0.47919189812E+02  0.54470586106E+02  0.00000000000E+00 0. -1.
         22    1    3    3    0    0 -0.27275585969E+02  0.17494245590E+03 -0.31524606758E+03  0.36156452203E+03  0.00000000000E+00 0. -1.
</event>
<event>
 7    1  0.6262315E-006  0.1077309E+03  0.7818608E-02  0.1373322E+00
          2   -1    0    0  502    0  0.00000000000E+00  0.00000000000E+00  0.69487322255E+03  0.69487322255E+03  0.00000000000E+00 0. -1.
          1   -1    0    0  501    0 -0.00000000000E+00 -0.00000000000E+00 -0.20204464010E+04  0.20204464010E+04  0.00000000000E+00 0. -1.
         25    2    1    2    0    0 -0.79077193044E+02 -0.93716302208E+01  0.13679993431E+03  0.20169401612E+03  0.12500089679E+03 0.  0.
          2    1    1    2  501    0 -0.33488458670E+02  0.23207088048E+02 -0.19816698422E+04  0.19820886482E+04  0.00000000000E+00 0. -1.
          1    1    1    2  502    0  0.11256565171E+03 -0.13835457827E+02  0.51929672943E+03  0.53153695924E+03  0.00000000000E+00 0. -1.
         22    1    3    3    0    0  0.18599847024E+01 -0.54688095761E+02  0.41265375504E+02  0.68535236022E+02  0.00000000000E+00 0.  1.
         22    1    3    3    0    0 -0.80937177747E+02  0.45316465541E+02  0.95534558810E+02  0.13315878010E+03  0.00000000000E+00 0.  1.
</event>
<event>
 7    1  0.6262315E-006  0.1104991E+03  0.7818608E-02  0.1365170E+00
          2   -1    0    0  502    0  0.00000000000E+00  0.00000000000E+00  0.20984916202E+04  0.20984916202E+04  0.00000000000E+00 0. -1.
          1   -1    0    0  501    0 -0.00000000000E+00 -0.00000000000E+00 -0.20894552978E+03  0.20894552978E+03  0.00000000000E+00 0. -1.
         25    2    1    2    0    0  0.10836404550E+03  0.10436349143E+03  0.16548851152E+04  0.16664045679E+04  0.12499973902E+03 0.  0.
          2    1    1    2  501    0 -0.70904763407E+02 -0.84288440783E+02 -0.18711177806E+03  0.21712402956E+03  0.00000000000E+00 0. -1.
          1    1    1    2  502    0 -0.37459282092E+02 -0.20075050648E+02  0.42177275322E+03  0.42390855244E+03  0.00000000000E+00 0. -1.
         22    1    3    3    0    0  0.77164402269E+02  0.11013470641E+03  0.15705766983E+04  0.15763233056E+04  0.00000000000E+00 0. -1.
         22    1    3    3    0    0  0.31199643229E+02 -0.57712149779E+01  0.84308416889E+02  0.90081262304E+02  0.00000000000E+00 0. -1.
</event>
<event>
 7    1  0.6262315E-006  0.1328901E+03  0.7818608E-02  0.1311180E+00
          2   -1    0    0  502    0  0.00000000000E+00  0.00000000000E+00  0.11853420080E+04  0.11853420080E+04  0.00000000000E+00 0. -1.
          1   -1    0    0  501    0 -0.00000000000E+00 -0.00000000000E+00 -0.40165202797E+03  0.40165202797E+03  0.00000000000E+00 0. -1.
         25    2    1    2    0    0 -0.37204262834E+02  0.15098816518E+03 -0.29200530194E+03  0.35365769842E+03  0.12500035239E+03 0.  0.
          2    1    1    2  501    0  0.10816810119E+01 -0.10754904660E+03 -0.41080195550E+02  0.11513274914E+03  0.00000000000E+00 0. -1.
          1    1    1    2  502    0  0.36122581822E+02 -0.43439118577E+02  0.11167754775E+04  0.11182035884E+04  0.00000000000E+00 0. -1.
         22    1    3    3    0    0  0.40981872669E+02  0.76672645750E+02 -0.16902510843E+03  0.19007286964E+03  0.00000000000E+00 0.  1.
         22    1    3    3    0    0 -0.78186135503E+02  0.74315519428E+02 -0.12298019351E+03  0.16358482878E+03  0.00000000000E+00 0.  1.
</event>
<event>
 7    1  0.6262315E-006  0.1048947E+03  0.7818608E-02  0.1286583E+00
          2   -1    0    0  502    0  0.00000000000E+00  0.00000000000E+00  0.20078003378E+04  0.20078003378E+04  0.00000000000E+00 0. -1.
          1   -1    0    0  501    0 -0.00000000000E+00 -0.00000000000E+00 -0.52971064933E+03  0.52971064933E+03  0.00000000000E+00 0. -1.
         25    2    1    2    0    0  0.55225517031E+02 -0.20418492744E+02  0.91103006129E+01  0.13847633709E+03  0.12500370306E+03 0.  0.
          2    1    1    2  501    0 -0.30652242607E+02  0.10681912990E+03 -0.45732669295E+03  0.47063530528E+03  0.00000000000E+00 0. -1.
          1    1    1    2  502    0 -0.24573274424E+02 -0.86400637159E+02  0.19263060808E+04  0.19283993448E+04  0.00000000000E+00 0. -1.
         22    1    3    3    0    0  0.92036978283E+02 -0.35144676475E+02  0.57504665206E+01  0.98686480945E+02  0.00000000000E+00 0. -1.
         22    1    3    3    0    0 -0.36811461252E+02  0.14726183731E+02  0.33598340923E+01  0.39789856144E+02  0.00000000000E+00 0. -1.
</event>
<event>
 7    1  0.6262315E-006  0.7997869E+02  0.7818608E-02  0.1437811E+00
          2   -1    0    0  502    0  0.00000000000E+00  0.00000000000E+00  0.10840741264E+04  0.10840741264E+04  0.00000000000E+00 0. -1.
          1   -1    0    0  501    0 -0.00000000000E+00 -0.00000000000E+00 -0.78951370419E+02  0.78951370419E+02  0.00000000000E+00 0. -1.
         25    2    1    2    0    0  0.52799178738E+02  0.80239241156E+02  0.41628876620E+03  0.44513885211E+03  0.12500468672E+03 0.  0.
          2    1    1    2  501    0 -0.32708202095E+02 -0.48355176949E+01 -0.57785225615E+02  0.66575829060E+02  0.00000000000E+00 0. -1.
          1    1    1    2  502    0 -0.20090976642E+02 -0.75403723461E+02  0.64661921541E+03  0.65131081565E+03  0.00000000000E+00 0. -1.
         22    1    3    3    0    0  0.71770596067E+02  0.11685201603E+01  0.14292273531E+03  0.15993527494E+03  0.00000000000E+00 0.  1.
         22    1    3    3    0    0 -0.18971417330E+02  0.79070720996E+02  0.27336603088E+03  0.28520357718E+03  0.00000000000E+00 0.  1.
</event>
<event>
 7    1  0.6262315E-006  0.9385595E+02  0.7818608E-02  0.1459619E+00
          2   -1    0    0  502    0  0.00000000000E+00  0.00000000000E+00  0.13135113790E+03  0.13135113790E+03  0.00000000000E+00 0. -1.
          1   -1    0    0  501    0 -0.00000000000E+00 -0.00000000000E+00 -0.31445602111E+03  0.31445602111E+03  0.00000000000E+00 0. -1.
         25    2    1    2    0    0 -0.41248614551E+02  0.90758634320E+02 -0.96962448042E+01  0.16017874718E+03  0.12499854391E+03 0.  0.
          2    1    1    2  501    0  0.17286099399E+02 -0.91819134324E+02 -0.21678492759E+03  0.23606199925E+03  0.00000000000E+00 0. -1.
          1    1    1    2  502    0  0.23962515152E+02  0.10605000046E+01  0.43376289180E+02  0.49566412577E+02  0.00000000000E+00 0. -1.
         22    1    3    3    0    0  0.13427494126E+02  0.58602799002E+02  0.46051397626E+02  0.75731874879E+02  0.00000000000E+00 0.  1.
         22    1    3    3    0    0 -0.54676108677E+02  0.32155835317E+02 -0.55747642430E+02  0.84446872302E+02  0.00000000000E+00 0.  1.
</event>
<event>
 7    1  0.6262315E-006  0.3259841E+02  0.7818608E-02  0.1646765E+00
          2   -1    0    0  502    0  0.00000000000E+00  0.00000000000E+00  0.84698467208E+03  0.84698467208E+03  0.00000000000E+00 0. -1.
          1   -1    0    0  501    0 -0.00000000000E+00 -0.00000000000E+00 -0.10998535711E+04  0.10998535711E+04  0.00000000000E+00 0. -1.
         25    2    1    2    0    0  0.20196515922E+02 -0.93285629469E+00  0.77630790500E+02  0.14852555145E+03  0.12499812128E+03 0.  0.
          2    1    1    2  501    0  0.48519569323E+01 -0.20194983734E+02 -0.10639389999E+04  0.10641417078E+04  0.00000000000E+00 0. -1.
          1    1    1    2  502    0 -0.25048472854E+02  0.21127840029E+02  0.73343931037E+03  0.73417098390E+03  0.00000000000E+00 0. -1.
         22    1    3    3    0    0 -0.43699789698E+02 -0.10304282089E+02  0.70459477711E+02  0.83548715420E+02  0.00000000000E+00 0. -1.
         22    1    3    3    0    0  0.63896305619E+02  0.93714257939E+01  0.71713127886E+01  0.64976836029E+02  0.00000000000E+00 0. -1.
</event>
<event>
 7    1  0.6262315E-006  0.4987705E+02  0.7818608E-02  0.1558809E+00
          2   -1    0    0  502    0  0.00000000000E+00  0.00000000000E+00  0.15879839691E+04  0.15879839691E+04  0.00000000000E+00 0. -1.
          1   -1    0    0  501    0 -0.00000000000E+00 -0.00000000000E+00 -0.89715588880E+03  0.89715588880E+03  0.00000000000E+00 0. -1.
         25    2    1    2    0    0  0.30192433834E+02 -0.24134057535E+01 -0.44201002422E+03  0.46033886985E+03  0.12498642324E+03 0.  0.
          2    1    1    2  501    0 -0.53192569409E+02  0.30546384646E+01 -0.44430591572E+03  0.44748913618E+03  0.00000000000E+00 0. -1.
          1    1    1    2  502    0  0.23000135575E+02 -0.64123271108E+00  0.15771440202E+04  0.15773118518E+04  0.00000000000E+00 0. -1.
         22    1    3    3    0    0 -0.26383604212E+02 -0.86143702487E+01 -0.35674735655E+03  0.35782534616E+03  0.00000000000E+00 0.  1.
         22    1    3    3    0    0  0.56576038046E+02  0.62009644952E+01 -0.85262667669E+02  0.10251352369E+03  0.00000000000E+00 0.  1.
</event>
<event>
 7    1  0.6262315E-006  0.3901365E+02  0.7818608E-02  0.1546822E+00
          2   -1    0    0  502    0  0.00000000000E+00  0.00000000000E+00  0.18767095867E+04  0.18767095867E+04  0.00000000000E+00 0. -1.
          1   -1    0    0  501    0 -0.00000000000E+00 -0.00000000000E+00 -0.14666070397E+02  0.14666070397E+02  0.00000000000E+00 0. -1.
         25    2    1    2    0    0 -0.60812431009E+02  0.23511288195E+02  0.61547338707E+03  0.63141592521E+03  0.12501059149E+03 0.  0.
          2    1    1    2  501    0  0.29056847394E+02 -0.22921650279E+02  0.46320252066E+02  0.59289697110E+02  0.00000000000E+00 0. -1.
          1    1    1    2  502    0  0.31755583616E+02 -0.58963791562E+00  0.12002498772E+04  0.12006700348E+04  0.00000000000E+00 0. -1.
         22    1    3    3    0    0 -0.16855389428E+02  0.12422043922E+02  0.82537600508E+01  0.22506352058E+02  0.00000000000E+00 0.  1.
         22    1    3    3    0    0 -0.43957041581E+02  0.11089244273E+02  0.60721962702E+03  0.60890957316E+03  0.00000000000E+00 0.  1.
</event>
<event>
 7    1  0.6262315E-006  0.6772557E+02  0.7818608E-02  0.1418916E+00
          2   -1    0    0  502    0  0.00000000000E+00  0.00000000000E+00  0.30619046424E+04  0.30619046424E+04  0.00000000000E+00 0. -1.
          1   -1    0    0  501    0 -0.00000000000E+00 -0.00000000000E+00 -0.15308970401E+04  0.15308970401E+04  0.00000000000E+00 0. -1.
         25    2    1    2    0    0 -0.86240495752E+02 -0.18900760234E+02  0.11989056682E+04  0.12086322839E+04  0.12499013810E+03 0.  0.
          2    1    1    2  501    0  0.22852978405E+02  0.38851191301E+02 -0.15251065170E+04  0.15257724476E+04  0.00000000000E+00 0. -1.
          1    1    1    2  502    0  0.63387517347E+02 -0.19950431067E+02  0.18572084510E+04  0.18583969510E+04  0.00000000000E+00 0. -1.
         22    1    3    3    0    0  0.69698995010E+01 -0.52292992492E+02  0.34597313523E+03  0.34997220870E+03  0.00000000000E+00 0.  1.
         22    1    3    3    0    0 -0.93210395253E+02  0.33392232258E+02  0.85293253299E+03  0.85866007523E+03  0.00000000000E+00 0.  1.
</event>
<event>
 7    1  0.6262315E-006  0.9805250E+02  0.7818608E-02  0.1304572E+00
          2   -1    0    0  502    0  0.00000000000E+00  0.00000000000E+00  0.28418268193E+03  0.28418268193E+03  0.00000000000E+00 0. -1.
          1   -1    0    0  501    0 -0.00000000000E+00 -0.00000000000E+00 -0.83439850736E+03  0.83439850736E+03  0.00000000000E+00 0. -1.
         25    2    1    2    0    0  0.17320599120E+02  0.11660088193E+03 -0.34330075071E+03  0.38389600706E+03  0.12499987990E+03 0.  0.
          2    1    1    2  501    0 -0.73100777895E+02 -0.35618204258E+02 -0.45793134117E+03  0.46509514449E+03  0.00000000000E+00 0. -1.
          1    1    1    2  502    0  0.55780178775E+02 -0.80982677677E+02  0.25101626645E+03  0.26959003774E+03  0.00000000000E+00 0. -1.
         22    1    3    3    0    0  0.59363044538E+02  0.10477215898E+03 -0.29577843026E+03  0.31935255779E+03  0.00000000000E+00 0. -1.
         22    1    3    3    0    0 -0.42042445418E+02  0.11828722951E+02 -0.47522320443E+02  0.64543449270E+02  0.00000000000E+00 0. -1.
</event>
<event>
 7    1  0.6262315E-006  0.1274769E+03  0.7818608E-02  0.1258465E+00
          2   -1    0    0  502    0  0.00000000000E+00  0.00000000000E+00  0.64393908626E+03  0.64393908626E+03  0.00000000000E+00 0. -1.
          1   -1    0    0  501    0 -0.00000000000E+00 -0.00000000000E+00 -0.16032680928E+03  0.16032680928E+03  0.00000000000E+00 0. -1.
         25    2    1    2    0    0  0.41442193198E+02  0.29817620810E+02  0.72458117756E+02  0.15323803733E+03  0.12500068547E+03 0.  0.
          2    1    1    2  501    0  0.72339362747E+02  0.64478301384E+02 -0.87729886933E+02  0.13071712900E+03  0.00000000000E+00 0. -1.
          1    1    1    2  502    0 -0.11378155594E+03 -0.94295922194E+02  0.49888404616E+03  0.52031072921E+03  0.00000000000E+00 0. -1.
         22    1    3    3    0    0  0.61868360486E+02 -0.19100758639E+02  0.16322984624E+01  0.64770343585E+02  0.00000000000E+00 0. -1.
         22    1    3    3    0    0 -0.20426167289E+02  0.48918379449E+02  0.70825819294E+02  0.88467693745E+02  0.00000000000E+00 0. -1.
</event>
<event>
 7    1  0.6262315E-006  0.1475272E+03  0.7818608E-02  0.1305325E+00
          2   -1    0    0  502    0  0.00000000000E+00  0.00000000000E+00  0.44973550831E+03  0.44973550831E+03  0.00000000000E+00 0. -1.
          1   -1    0    0  501    0 -0.00000000000E+00 -0.00000000000E+00 -0.27230377107E+04  0.27230377107E+04  0.00000000000E+00 0. -1.
         25    2    1    2    0    0  0.12778557792E+03 -0.94405286276E+02 -0.67212582573E+03  0.70186872103E+03  0.12500025575E+03 0.  0.
          2    1    1    2  501    0 -0.14067978985E+03  0.42301469768E+02 -0.20317220224E+04  0.20370259188E+04  0.00000000000E+00 0. -1.
          1    1    1    2  502    0  0.12894211926E+02  0.52103816508E+02  0.43054564574E+03  0.43387857917E+03  0.00000000000E+00 0. -1.
         22    1    3    3    0    0  0.15041043446E+03 -0.65323065043E+02 -0.51483611261E+03  0.54032085326E+03  0.00000000000E+00 0. -1.
         22    1    3    3    0    0 -0.22624856540E+02 -0.29082221233E+02 -0.15728971312E+03  0.16154786777E+03  0.00000000000E+00 0. -1.
</event>
<event>
 7    1  0.6262315E-006  0.6684067E+02  0.7818608E-02  0.1489880E+00
          2   -1    0    0  502    0  0.00000000000E+00  0.00000000000E+00  0.16147590990E+04  0.16147590990E+04  0.00000000000E+00 0. -1.
          1   -1    0    0  501    0 -0.00000000000E+00 -0.00000000000E+00 -0.34787986175E+03  0.34787986175E+03  0.00000000000E+00 0. -1.
         25    2    1    2    0    0 -0.71404062245E+02 -0.12619646532E+02  0.13645527900E+04  0.13721834188E+04  0.12500089034E+03 0.  0.
          2    1    1    2  501    0  0.94359755044E+01  0.25463303558E+02 -0.33944968664E+03  0.34053414986E+03  0.00000000000E+00 0. -1.
          1    1    1    2  502    0  0.61968086740E+02 -0.12843657027E+02  0.24177613386E+03  0.24992139205E+03  0.00000000000E+00 0. -1.
         22    1    3    3    0    0  0.35009099975E+02 -0.88037628374E+01  0.25683450050E+03  0.25935902523E+03  0.00000000000E+00 0.  1.
         22    1    3    3    0    0 -0.10641316222E+03 -0.38158836942E+01  0.11077182895E+04  0.11128243936E+04  0.00000000000E+00 0.  1.
</event>
<event>
 7    1  0.6262315E-006  0.2079094E+03  0.7818608E-02  0.1268758E+00
          2   -1    0    0  502    0  0.00000000000E+00  0.00000000000E+00  0.36696217076E+03  0.36696217076E+03  0.00000000000E+00 0. -1.
          1   -1    0    0  501    0 -0.00000000000E+00 -0.00000000000E+00 -0.13055330980E+04  0.13055330980E+04  0.00000000000E+00 0. -1.
         25    2    1    2    0    0  0.94088142812E+02  0.17305970469E+03  0.15711058901E+03  0.28126592612E+03  0.12499817605E+03 0.  0.
          2    1    1    2  501    0 -0.49271852148E+02 -0.20269974759E+03 -0.12294770175E+04  0.12470479700E+04  0.00000000000E+00 0. -1.
          1    1    1    2  502    0 -0.44816290664E+02  0.29640042900E+02  0.13379550123E+03  0.14418137259E+03  0.00000000000E+00 0. -1.
         22    1    3    3    0    0  0.45964010841E+02  0.59132671688E+02 -0.76140144181E+01  0.75281713378E+02  0.00000000000E+00 0.  1.
         22    1    3    3    0    0  0.48124131971E+02  0.11392703300E+03  0.16472460343E+03  0.20598421274E+03  0.00000000000E+00 0.  1.
</event>
<event>
 7    1  0.8971352E-006  0.6808276E+02  0.7818608E-02  0.1432381E+00
          2   -1    0    0  502    0  0.00000000000E+00  0.00000000000E+00  0.16717358322E+04  0.16717358322E+04  0.00000000000E+00 0. -1.
          1   -1    0    0  501    0 -0.00000000000E+00 -0.00000000000E+00 -0.48419286074E+03  0.48419286074E+03  0.00000000000E+00 0. -1.
         25    2    1    2    0    0  0.75196508409E+01 -0.49636775680E+02 -0.25873508766E+03  0.29170031427E+03  0.12499949243E+03 0.  0.
          2    1    1    2  501    0  0.40442389964E+02  0.12170594227E+01 -0.20630774515E+03  0.21023785066E+03  0.00000000000E+00 0. -1.
          1    1    1    2  502    0 -0.47962040805E+02  0.48419716257E+02  0.16525858043E+04  0.16539905281E+04  0.00000000000E+00 0. -1.
         22    1    3    3    0    0  0.19524513132E+02 -0.43182652537E+02 -0.26993226157E+03  0.27406089456E+03  0.00000000000E+00 0. -1.
         22    1    3    3    0    0 -0.12004862292E+02 -0.64541231434E+01  0.11197173903E+02  0.17639419707E+02  0.00000000000E+00 0. -1.
</event>
<event>
 7    1  0.6262315E-006  0.4404153E+02  0.7818608E-02  0.1556564E+00
          2   -1    0    0  502    0  0.00000000000E+00  0.00000000000E+00  0.78890567048E+03  0.78890567048E+03  0.00000000000E+00 0. -1.
          1   -1    0    0  501    0 -0.00000000000E+00 -0.00000000000E+00 -0.15092131097E+04  0.15092131097E+04  0.00000000000E+00 0. -1.
         25    2    1    2    0    0 -0.19602498404E+02 -0.42524903499E+01 -0.12711722308E+03  0.17938014667E+03  0.12496442293E+03 0.  0.
          2    1    1    2  501    0  0.37579795493E+02  0.23629976760E+02 -0.13553719406E+04  0.13560987111E+04  0.00000000000E+00 0. -1.
          1    1    1    2  502    0 -0.17977297089E+02 -0.19377486410E+02  0.76218172446E+03  0.76263992244E+03  0.00000000000E+00 0. -1.
         22    1    3    3    0    0  0.83058268246E+00 -0.63855337252E+01 -0.14913058221E+03  0.14926953962E+03  0.00000000000E+00 0. -1.
         22    1    3    3    0    0 -0.20433081086E+02  0.21330433753E+01  0.22013359130E+02  0.30110607049E+02  0.00000000000E+00 0. -1.
</event>
<event>
 7    1  0.6262315E-006  0.6432298E+02  0.7818608E-02  0.1447474E+00
          2   -1    0    0  502    0  0.00000000000E+00  0.00000000000E+00  0.73960718537E+03  0.73960718537E+03  0.00000000000E+00 0. -1.
          1   -1    0    0  501    0 -0.00000000000E+00 -0.00000000000E+00 -0.90594663100E+03  0.90594663100E+03  0.00000000000E+00 0. -1.
         25    2    1    2    0    0 -0.19599960661E+02  0.41954473147E+02 -0.53013540879E+02  0.14346842515E+03  0.12501366815E+03 0.  0.
          2    1    1    2  501    0  0.56584307037E+02 -0.32167568779E+02 -0.80586555124E+03  0.80848984097E+03  0.00000000000E+00 0. -1.
          1    1    1    2  502    0 -0.36984346376E+02 -0.97869043679E+01  0.69253964648E+03  0.69359555025E+03  0.00000000000E+00 0. -1.
         22    1    3    3    0    0  0.45784496466E+02  0.28859274973E+02 -0.54447846284E+02  0.76770084236E+02  0.00000000000E+00 0. -1.
         22    1    3    3    0    0 -0.65384457128E+02  0.13095198174E+02  0.14343054048E+01  0.66698340917E+02  0.00000000000E+00 0. -1.
</event>
<event>
 7    1  0.6262315E-006  0.6408591E+02  0.7818608E-02  0.1417924E+00
          2   -1    0    0  502    0  0.00000000000E+00  0.00000000000E+00  0.10122959289E+04  0.10122959289E+04  0.00000000000E+00 0. -1.
          1   -1    0    0  501    0 -0.00000000000E+00 -0.00000000000E+00 -0.16456964343E+03  0.16456964343E+03  0.00000000000E+00 0. -1.
         25    2    1    2    0    0  0.64196549078E+02  0.48901856801E+02 -0.41813229380E+00  0.14878466684E+03  0.12499645491E+03 0.  0.
          2    1    1    2  501    0 -0.63593612414E+02 -0.90595372538E+00 -0.78028581383E+02  0.10066492837E+03  0.00000000000E+00 0. -1.
          1    1    1    2  502    0 -0.60293666395E+00 -0.47995903076E+02  0.92617299910E+03  0.92741597706E+03  0.00000000000E+00 0. -1.
         22    1    3    3    0    0 -0.53663726282E+01  0.58365331035E+02  0.36918845993E+02  0.69269842006E+02  0.00000000000E+00 0. -1.
         22    1    3    3    0    0  0.69562921706E+02 -0.94634742338E+01 -0.37336978287E+02  0.79514824834E+02  0.00000000000E+00 0. -1.
</event>
<event>
 7    1  0.6262315E-006  0.7839168E+02  0.7818608E-02  0.1467450E+00
          2   -1    0    0  502    0  0.00000000000E+00  0.00000000000E+00  0.71316404004E+02  0.71316404004E+02  0.00000000000E+00 0. -1.
          1   -1    0    0  501    0 -0.00000000000E+00 -0.00000000000E+00 -0.94904473169E+03  0.94904473169E+03  0.00000000000E+00 0. -1.
         25    2    1    2    0    0  0.18471168414E+02  0.50116382609E+02 -0.39773638012E+02  0.14163178452E+03  0.12499913695E+03 0.  0.
          2    1    1    2  501    0 -0.17986352481E+02 -0.77249278025E+02 -0.84655455226E+03  0.85026205948E+03  0.00000000000E+00 0. -1.
          1    1    1    2  502    0 -0.48481593332E+00  0.27132895415E+02  0.85998625848E+01  0.28467291697E+02  0.00000000000E+00 0. -1.
         22    1    3    3    0    0  0.48105239771E+02 -0.25327216558E+02 -0.22018685020E+02  0.58654961274E+02  0.00000000000E+00 0. -1.
         22    1    3    3    0    0 -0.29634071358E+02  0.75443599167E+02 -0.17754952992E+02  0.82976823248E+02  0.00000000000E+00 0. -1.
</event>
<event>
 7    1  0.6262315E-006  0.1168354E+03  0.7818608E-02  0.1267461E+00
          2   -1    0    0  502    0  0.00000000000E+00  0.00000000000E+00  0.97449197512E+03  0.97449197512E+03  0.00000000000E+00 0. -1.
          1   -1    0    0  501    0 -0.00000000000E+00 -0.00000000000E+00 -0.62906744163E+03  0.62906744163E+03  0.00000000000E+00 0. -1.
         25    2    1    2    0    0 -0.25801906300E+02  0.13518533424E+02  0.30702593392E+02  0.13196768262E+03  0.12499732357E+03 0.  0.
          2    1    1    2  501    0  0.12230612997E+03 -0.21406529530E+02 -0.56909703302E+03  0.58248473107E+03  0.00000000000E+00 0. -1.
          1    1    1    2  502    0 -0.96504223668E+02  0.78879961059E+01  0.88381897312E+03  0.88910700307E+03  0.00000000000E+00 0. -1.
         22    1    3    3    0    0 -0.42304002048E+02  0.42700942045E+02  0.61821475963E+02  0.86225830997E+02  0.00000000000E+00 0.  1.
         22    1    3    3    0    0  0.16502095748E+02 -0.29182408621E+02 -0.31118882571E+02  0.45741851618E+02  0.00000000000E+00 0.  1.
</event>
<event>
 7    1  0.6262315E-006  0.8737807E+02  0.7818608E-02  0.1329883E+00
          2   -1    0    0  502    0  0.00000000000E+00  0.00000000000E+00  0.58019580423E+03  0.58019580423E+03  0.00000000000E+00 0. -1.
          1   -1    0    0  501    0 -0.00000000000E+00 -0.00000000000E+00 -0.17050193021E+03  0.17050193021E+03  0.00000000000E+00 0. -1.
         25    2    1    2    0    0  0.44679402890E+01  0.10087867886E+03  0.13090586950E+03  0.20726369091E+03  0.12500168223E+03 0.  0.
          2    1    1    2  501    0  0.59232018892E+02 -0.65819835641E+02 -0.11378773608E+03  0.14418159282E+03  0.00000000000E+00 0. -1.
          1    1    1    2  502    0 -0.63699959181E+02 -0.35058843218E+02  0.39257574060E+03  0.39925245071E+03  0.00000000000E+00 0. -1.
         22    1    3    3    0    0 -0.33029264337E+01  0.17079079025E+02 -0.24786150528E+02  0.30281306467E+02  0.00000000000E+00 0.  1.
         22    1    3    3    0    0  0.77708667227E+01  0.83799599834E+02  0.15569202003E+03  0.17698238444E+03  0.00000000000E+00 0.  1.
</event>
<event>
 7    1  0.6262315E-006  0.9600295E+02  0.7818608E-02  0.1290785E+00
          2   -1    0    0  502    0  0.00000000000E+00  0.00000000000E+00  0.64735872672E+03  0.64735872672E+03  0.00000000000E+00 0. -1.
          1   -1    0    0  501    0 -0.00000000000E+00 -0.00000000000E+00 -0.14356244117E+03  0.14356244117E+03  0.00000000000E+00 0. -1.
         25    2    1    2    0    0 -0.19431767180E+00  0.68489270864E+01 -0.35636234433E+02  0.13016400758E+03  0.12500312838E+03 0.  0.
          2    1    1    2  501    0 -0.87574733388E+02  0.39334876637E+02 -0.15312297510E+02  0.97216423011E+02  0.00000000000E+00 0. -1.
          1    1    1    2  502    0  0.87769051060E+02 -0.46183803724E+02  0.55474481749E+03  0.56354073729E+03  0.00000000000E+00 0. -1.
         22    1    3    3    0    0 -0.14037188081E+02  0.63683780850E+02 -0.87928727992E+01  0.65802592689E+02  0.00000000000E+00 0.  1.
         22    1    3    3    0    0  0.13842870409E+02 -0.56834853763E+02 -0.26843361634E+02  0.64361414895E+02  0.00000000000E+00 0.  1.
</event>
<event>
 7    1  0.6262315E-006  0.6087417E+02  0.7818608E-02  0.1440926E+00
          2   -1    0    0  502    0  0.00000000000E+00  0.00000000000E+00  0.60994903760E+03  0.60994903760E+03  0.00000000000E+00 0. -1.
          1   -1    0    0  501    0 -0.00000000000E+00 -0.00000000000E+00 -0.10535659021E+04  0.10535659021E+04  0.00000000000E+00 0. -1.
         25    2    1    2    0    0  0.77138968009E+01 -0.18289107839E+02  0.18987483105E+03  0.22819048224E+03  0.12499779617E+03 0.  0.
          2    1    1    2  501    0 -0.38959676932E+02  0.47008874077E+02 -0.10323805098E+04  0.10341843200E+04  0.00000000000E+00 0. -1.
          1    1    1    2  502    0  0.31245780131E+02 -0.28719766238E+02  0.39888881426E+03  0.40114013747E+03  0.00000000000E+00 0. -1.
         22    1    3    3    0    0 -0.40343237899E+02 -0.12106916845E+02  0.17113068492E+03  0.17623809350E+03  0.00000000000E+00 0.  1.
         22    1    3    3    0    0  0.48057134700E+02 -0.61821909944E+01  0.18744146126E+02  0.51952388733E+02  0.00000000000E+00 0.  1.
</event>
<event>
 7    1  0.6262315E-006  0.1286446E+03  0.7818608E-02  0.1332428E+00
          2   -1    0    0  502    0  0.00000000000E+00  0.00000000000E+00  0.70668440180E+03  0.70668440180E+03  0.00000000000E+00 0. -1.
          1   -1    0    0  501    0 -0.00000000000E+00 -0.00000000000E+00 -0.89285168086E+03  0.89285168086E+03  0.00000000000E+00 0. -1.
         25    2    1    2    0    0  0.73537711165E-01 -0.88114666718E+02  0.71936531873E+02  0.16899481947E+03  0.12498073648E+03 0.  0.
          2    1    1    2  501    0 -0.28268107018E+02  0.12732568470E+03 -0.83827636406E+03  0.84836205620E+03  0.00000000000E+00 0. -1.
          1    1    1    2  502    0  0.28194569307E+02 -0.39211017985E+02  0.58017255312E+03  0.58217920700E+03  0.00000000000E+00 0. -1.
         22    1    3    3    0    0 -0.10946051784E+02 -0.76167088297E+02 -0.16816577317E+02  0.78765720094E+02  0.00000000000E+00 0.  1.
         22    1    3    3    0    0  0.11019589495E+02 -0.11947578421E+02  0.88753109190E+02  0.90229099373E+02  0.00000000000E+00 0.  1.
</event>
<event>
 7    1  0.6262315E-006  0.1335344E+03  0.7818608E-02  0.1352611E+00
          2   -1    0    0  502    0  0.00000000000E+00  0.00000000000E+00  0.27272072704E+04  0.27272072704E+04  0.00000000000E+00 0. -1.
          1   -1    0    0  501    0 -0.00000000000E+00 -0.00000000000E+00 -0.30520005032E+04  0.30520005032E+04  0.00000000000E+00 0. -1.
         25    2    1    2    0    0 -0.88097949147E+00  0.14801058506E+03 -0.34832572022E+03  0.39857656359E+03  0.12499824103E+03 0.  0.
          2    1    1    2  501    0 -0.33102468857E+02 -0.12869468155E+03 -0.26767597150E+04  0.26800560939E+04  0.00000000000E+00 0. -1.
          1    1    1    2  502    0  0.33983448349E+02 -0.19315903511E+02  0.27002922025E+04  0.27005751161E+04  0.00000000000E+00 0. -1.
         22    1    3    3    0    0  0.29861718952E+02  0.14532887089E+03 -0.21172638487E+03  0.25853484296E+03  0.00000000000E+00 0. -1.
         22    1    3    3    0    0 -0.30742698443E+02  0.26817141696E+01 -0.13659933536E+03  0.14004172064E+03  0.00000000000E+00 0. -1.
</event>
<event>
 7    1  0.6262315E-006  0.4275562E+02  0.7818608E-02  0.1499445E+00
          2   -1    0    0  502    0  0.00000000000E+00  0.00000000000E+00  0.16978703630E+04  0.16978703630E+04  0.00000000000E+00 0. -1.
          1   -1    0    0  501    0 -0.00000000000E+00 -0.00000000000E+00 -0.14234926966E+04  0.14234926966E+04  0.00000000000E+00 0. -1.
         25    2    1    2    0    0  0.75951437284E+02  0.13345800489E+02  0.59388975770E+02  0.15842522026E+03  0.12499907502E+03 0.  0.
          2    1    1    2  501    0 -0.42028650448E+02  0.73413257899E+01 -0.13733948643E+04  0.13740574063E+04  0.00000000000E+00 0. -1.
          1    1    1    2  502    0 -0.33922786835E+02 -0.20687126279E+02  0.15883835550E+04  0.15888804330E+04  0.00000000000E+00 0. -1.
         22    1    3    3    0    0  0.91767388575E+02  0.49349222114E+02  0.27411413325E+02  0.10774035878E+03  0.00000000000E+00 0. -1.
         22    1    3    3    0    0 -0.15815951291E+02 -0.36003421624E+02  0.31977562446E+02  0.50684861486E+02  0.00000000000E+00 0. -1.
</event>
<event>
 7    1  0.6262315E-006  0.1433891E+03  0.7818608E-02  0.1313016E+00
          2   -1    0    0  502    0  0.00000000000E+00  0.00000000000E+00  0.76509827739E+03  0.76509827739E+03  0.00000000000E+00 0. -1.
          1   -1    0    0  501    0 -0.00000000000E+00 -0.00000000000E+00 -0.27410984888E+03  0.27410984888E+03  0.00000000000E+00 0. -1.
         25    2    1    2    0    0 -0.10253981544E+03 -0.13725440199E+03  0.20264912639E+03  0.29333439095E+03  0.12500084749E+03 0.  0.
          2    1    1    2  501    0 -0.60294174719E+01  0.51142880838E+02 -0.21640761988E+03  0.22245045758E+03  0.00000000000E+00 0. -1.
          1    1    1    2  502    0  0.10856923291E+03  0.86111521150E+02  0.50474692200E+03  0.52342327773E+03  0.00000000000E+00 0. -1.
         22    1    3    3    0    0 -0.78409207716E+02 -0.56939208507E+02  0.18319593223E+03  0.20724581275E+03  0.00000000000E+00 0. -1.
         22    1    3    3    0    0 -0.24130607721E+02 -0.80315193481E+02  0.19453194168E+02  0.86088578198E+02  0.00000000000E+00 0. -1.
</event>
<event>
 7    1  0.6262315E-006  0.1191495E+03  0.7818608E-02  0.1360433E+00
          2   -1    0    0  502    0  0.00000000000E+00  0.00000000000E+00  0.10253155676E+04  0.10253155676E+04  0.00000000000E+00 0. -1.
          1   -1    0    0  501    0 -0.00000000000E+00 -0.00000000000E+00 -0.19978049767E+04  0.19978049767E+04  0.00000000000E+00 0. -1.
         25    2    1    2    0    0 -0.96611169207E+02 -0.19678928563E+02  0.28554231548E+02  0.16174471524E+03  0.12500012210E+03 0.  0.
          2    1    1    2  501    0  0.11872331461E+03 -0.14856010657E+02 -0.19289032000E+04  0.19326105353E+04  0.00000000000E+00 0. -1.
          1    1    1    2  502    0 -0.22112145401E+02  0.34534939220E+02  0.92785955934E+03  0.92876529374E+03  0.00000000000E+00 0. -1.
         22    1    3    3    0    0 -0.10435288877E+03 -0.46948215755E+02 -0.88995440925E+01  0.11477309024E+03  0.00000000000E+00 0.  1.
         22    1    3    3    0    0  0.77417195657E+01  0.27269287192E+02  0.37453775640E+02  0.46971625004E+02  0.00000000000E+00 0.  1.
</event>
<event>
 7    1  0.6262315E-006  0.1909187E+03  0.7818608E-02  0.1377200E+00
          2   -1    0    0  502    0  0.00000000000E+00  0.00000000000E+00  0.12006743231E+04  0.12006743231E+04  0.00000000000E+00 0. -1.
          1   -1    0    0  501    0 -0.00000000000E+00 -0.00000000000E+00 -0.41083376944E+03  0.41083376944E+03  0.00000000000E+00 0. -1.
         25    2    1    2    0    0  0.19487999854E+03  0.72931772815E+02  0.17055664452E+03  0.29666612255E+03  0.12499584779E+03 0.  0.
          2    1    1    2  501    0 -0.18064068555E+03 -0.55808895184E+02 -0.32194189253E+03  0.37335274504E+03  0.00000000000E+00 0. -1.
          1    1    1    2  502    0 -0.14239312990E+02 -0.17122877631E+02  0.94122580170E+03  0.94148922498E+03  0.00000000000E+00 0. -1.
         22    1    3    3    0    0 -0.10736872123E+02 -0.36222474919E+01  0.39512472878E+02  0.41105189609E+02  0.00000000000E+00 0. -1.
         22    1    3    3    0    0  0.20561687066E+03  0.76554020307E+02  0.13104417164E+03  0.25556093294E+03  0.00000000000E+00 0. -1.
</event>
<event>
 7    1  0.6262315E-006  0.4534601E+02  0.7818608E-02  0.1479163E+00
          2   -1    0    0  502    0  0.00000000000E+00  0.00000000000E+00  0.15971534455E+04  0.15971534455E+04  0.00000000000E+00 0. -1.
          1   -1    0    0  501    0 -0.00000000000E+00 -0.00000000000E+00 -0.15510264777E+04  0.15510264777E+04  0.00000000000E+00 0. -1.
         25    2    1    2    0    0 -0.15698666105E+02  0.14325466584E+02 -0.37935893714E+02  0.13234709005E+03  0.12499981241E+03 0.  0.
          2    1    1    2  501    0 -0.24586738483E+02 -0.35465838144E+02 -0.14652333779E+04  0.14658687476E+04  0.00000000000E+00 0. -1.
          1    1    1    2  502    0  0.40285404588E+02  0.21140371560E+02  0.15492962395E+04  0.15499640856E+04  0.00000000000E+00 0. -1.
         22    1    3    3    0    0  0.31487196377E+02  0.47962271859E+02 -0.46394424984E+02  0.73785267684E+02  0.00000000000E+00 0.  1.
         22    1    3    3    0    0 -0.47185862483E+02 -0.33636805275E+02  0.84585312701E+01  0.58561822364E+02  0.00000000000E+00 0.  1.
</event>
<event>
 7    1  0.6262315E-006  0.1020834E+03  0.7818608E-02  0.1284504E+00
          2   -1    0    0  502    0  0.00000000000E+00  0.00000000000E+00  0.12037277122E+04  0.12037277122E+04  0.00000000000E+00 0. -1.
          1   -1    0    0  501    0 -0.00000000000E+00 -0.00000000000E+00 -0.10092810555E+04  0.10092810555E+04  0.00000000000E+00 0. -1.
         25    2    1    2    0    0  0.39827089366E+02  0.17168703275E+03 -0.97977795777E+01  0.21629588741E+03  0.12500112066E+03 0.  0.
          2    1    1    2  501    0  0.21546169265E+02 -0.91629345984E+02 -0.89143939756E+03  0.89639521082E+03  0.00000000000E+00 0. -1.
          1    1    1    2  502    0 -0.61373258631E+02 -0.80057686763E+02  0.10956838338E+04  0.11003176695E+04  0.00000000000E+00 0. -1.
         22    1    3    3    0    0 -0.11331761741E+02  0.13240296803E+03  0.35416237109E+02  0.13752550534E+03  0.00000000000E+00 0.  1.
         22    1    3    3    0    0  0.51158851107E+02  0.39284064718E+02 -0.45214016687E+02  0.78770382076E+02  0.00000000000E+00 0.  1.
</event>
<event>
 7    1  0.6262315E-006  0.1550228E+03  0.7818608E-02  0.1310243E+00
          2   -1    0    0  502    0  0.00000000000E+00  0.00000000000E+00  0.24939014564E+04  0.24939014564E+04  0.00000000000E+00 0. -1.
          1   -1    0    0  501    0 -0.00000000000E+00 -0.00000000000E+00 -0.59204733959E+03  0.59204733959E+03  0.00000000000E+00 0. -1.
         25    2    1    2    0    0  0.14286393729E+03  0.34878322273E+02  0.49336301591E+03  0.52977237243E+03  0.12500039673E+03 0.  0.
          2    1    1    2  501    0 -0.13166773597E+03 -0.82420900149E+02 -0.56302236050E+03  0.58405802443E+03  0.00000000000E+00 0. -1.
          1    1    1    2  502    0 -0.11196201323E+02  0.47542577877E+02  0.19715134614E+04  0.19721183991E+04  0.00000000000E+00 0. -1.
         22    1    3    3    0    0  0.14712137628E+03  0.23830102265E+02  0.49577210490E+03  0.51768963011E+03  0.00000000000E+00 0. -1.
         22    1    3    3    0    0 -0.42574389881E+01  0.11048220007E+02 -0.24090889938E+01  0.12082742315E+02  0.00000000000E+00 0. -1.
</event>
<event>
 7    1  0.6262315E-006  0.2326171E+02  0.7818608E-02  0.1687576E+00
          2   -1    0    0  502    0  0.00000000000E+00  0.00000000000E+00  0.76567253743E+03  0.76567253743E+03  0.00000000000E+00 0. -1.
          1   -1    0    0  501    0 -0.00000000000E+00 -0.00000000000E+00 -0.66946570959E+02  0.66946570959E+02  0.00000000000E+00 0. -1.
         25    2    1    2    0    0  0.33368239894E+01  0.29746545581E+02  0.32122538529E+03  0.34598733963E+03  0.12500199862E+03 0.  0.
          2    1    1    2  501    0 -0.19392488529E+02 -0.12784500141E+02 -0.51761819015E+02  0.56734451288E+02  0.00000000000E+00 0. -1.
          1    1    1    2  502    0  0.16055664539E+02 -0.16962045440E+02  0.42926240019E+03  0.42989731747E+03  0.00000000000E+00 0. -1.
         22    1    3    3    0    0 -0.22086298960E+02  0.20761685737E+02  0.76609308747E+01  0.31265669004E+02  0.00000000000E+00 0.  1.
         22    1    3    3    0    0  0.25423122949E+02  0.89848598439E+01  0.31356445442E+03  0.31472167063E+03  0.00000000000E+00 0.  1.
</event>
<event>
 7    1  0.6262315E-006  0.1496803E+03  0.7818608E-02  0.1305585E+00
          2   -1    0    0  502    0  0.00000000000E+00  0.00000000000E+00  0.23403487222E+04  0.23403487222E+04  0.00000000000E+00 0. -1.
          1   -1    0    0  501    0 -0.00000000000E+00 -0.00000000000E+00 -0.52238549287E+02  0.52238549287E+02  0.00000000000E+00 0. -1.
         25    2    1    2    0    0 -0.39241731897E+02 -0.10741809369E+03  0.40223207539E+03  0.43645875903E+03  0.12500818169E+03 0.  0.
          2    1    1    2  501    0  0.65822716386E+02  0.15301357428E+03  0.16505819679E+03  0.23449945039E+03  0.00000000000E+00 0. -1.
          1    1    1    2  502    0 -0.26580984489E+02 -0.45595480593E+02  0.17208199007E+04  0.17216290621E+04  0.00000000000E+00 0. -1.
         22    1    3    3    0    0 -0.13965199940E+02 -0.81298849320E+02  0.38920037148E+03  0.39784602407E+03  0.00000000000E+00 0.  1.
         22    1    3    3    0    0 -0.25276531957E+02 -0.26119244367E+02  0.13031703909E+02  0.38612734957E+02  0.00000000000E+00 0.  1.
</event>
<event>
 7    1  0.6262315E-006  0.1528065E+03  0.7818608E-02  0.1409049E+00
          2   -1    0    0  502    0  0.00000000000E+00  0.00000000000E+00  0.82976758809E+03  0.82976758809E+03  0.00000000000E+00 0. -1.
          1   -1    0    0  501    0 -0.00000000000E+00 -0.00000000000E+00 -0.51993446037E+02  0.51993446037E+02  0.00000000000E+00 0. -1.
         25    2    1    2    0    0  0.82844292175E+02  0.11343640603E+03  0.23414741417E+03  0.30030099994E+03  0.12499873615E+03 0.  0.
          2    1    1    2  501    0 -0.21802787574E+01  0.21456074054E+02  0.76008256286E+01  0.22866772389E+02  0.00000000000E+00 0. -1.
          1    1    1    2  502    0 -0.80664013417E+02 -0.13489248009E+03  0.53602590225E+03  0.55859326180E+03  0.00000000000E+00 0. -1.
         22    1    3    3    0    0 -0.28360915246E+01  0.47400172395E+02  0.16551162805E+03  0.17218861396E+03  0.00000000000E+00 0.  1.
         22    1    3    3    0    0  0.85680383699E+02  0.66036233637E+02  0.68635786124E+02  0.12811238598E+03  0.00000000000E+00 0.  1.
</event>
<event>
 7    1  0.6262315E-006  0.4140829E+02  0.7818608E-02  0.1559272E+00
          2   -1    0    0  502    0  0.00000000000E+00  0.00000000000E+00  0.31479483625E+03  0.31479483625E+03  0.00000000000E+00 0. -1.
          1   -1    0    0  501    0 -0.00000000000E+00 -0.00000000000E+00 -0.10706129672E+04  0.10706129672E+04  0.00000000000E+00 0. -1.
         25    2    1    2    0    0 -0.12459220128E+02 -0.21066308791E+02 -0.12505322362E+03  0.17849761606E+03  0.12499627461E+03 0.  0.
          2    1    1    2  501    0  0.19021251965E+02 -0.20045119260E+02 -0.91712420951E+03  0.91754042445E+03  0.00000000000E+00 0. -1.
          1    1    1    2  502    0 -0.65620318368E+01  0.41111428050E+02  0.28635930217E+03  0.28936976296E+03  0.00000000000E+00 0. -1.
         22    1    3    3    0    0  0.42158029613E+02 -0.49968538164E+02 -0.69278456891E+02  0.95255754978E+02  0.00000000000E+00 0. -1.
         22    1    3    3    0    0 -0.54617249741E+02  0.28902229373E+02 -0.55774766732E+02  0.83241861080E+02  0.00000000000E+00 0. -1.
</event>
<event>
 7    1  0.6262315E-006  0.1887614E+03  0.7818608E-02  0.1292949E+00
          2   -1    0    0  502    0  0.00000000000E+00  0.00000000000E+00  0.21724145081E+03  0.21724145081E+03  0.00000000000E+00 0. -1.
          1   -1    0    0  501    0 -0.00000000000E+00 -0.00000000000E+00 -0.92051381054E+03  0.92051381054E+03  0.00000000000E+00 0. -1.
         25    2    1    2    0    0 -0.13938765716E+03 -0.50851320057E+02  0.27229243968E+02  0.19590941060E+03  0.12499715883E+03 0.  0.
          2    1    1    2  501    0  0.18639669485E+03  0.49555860685E+02 -0.81912104207E+03  0.84152171258E+03  0.00000000000E+00 0. -1.
          1    1    1    2  502    0 -0.47009037693E+02  0.12954593721E+01  0.88619438375E+02  0.10032413816E+03  0.00000000000E+00 0. -1.
         22    1    3    3    0    0 -0.14974122965E+03 -0.45056123430E+02 -0.10140397165E+02  0.15670136493E+03  0.00000000000E+00 0. -1.
         22    1    3    3    0    0  0.10353572491E+02 -0.57951966270E+01  0.37369641133E+02  0.39208045675E+02  0.00000000000E+00 0. -1.
</event>
<event>
 7    1  0.6262315E-006  0.1068735E+03  0.7818608E-02  0.1325721E+00
          2   -1    0    0  502    0  0.00000000000E+00  0.00000000000E+00  0.21548749487E+02  0.21548749487E+02  0.00000000000E+00 0. -1.
          1   -1    0    0  501    0 -0.00000000000E+00 -0.00000000000E+00 -0.18492120440E+04  0.18492120440E+04  0.00000000000E+00 0. -1.
         25    2    1    2    0    0  0.26922963486E+01  0.93097391931E+02 -0.63935297170E+03  0.65808167669E+03  0.12499959172E+03 0.  0.
          2    1    1    2  501    0  0.58702718114E+02 -0.98932585429E+02 -0.10937633474E+04  0.10997963110E+04  0.00000000000E+00 0. -1.
          1    1    1    2  502    0 -0.61395014463E+02  0.58351934981E+01 -0.94546975402E+02  0.11288280578E+03  0.00000000000E+00 0. -1.
         22    1    3    3    0    0 -0.23975926846E+02 -0.24069419889E+02 -0.18581518762E+03  0.18889538372E+03  0.00000000000E+00 0.  1.
         22    1    3    3    0    0  0.26668223194E+02  0.11716681182E+03 -0.45353778408E+03  0.46918629297E+03  0.00000000000E+00 0.  1.
</event>
<event>
 7    1  0.6262315E-006  0.8927838E+02  0.7818608E-02  0.1437425E+00
          2   -1    0    0  502    0  0.00000000000E+00  0.00000000000E+00  0.15335665900E+04  0.15335665900E+04  0.00000000000E+00 0. -1.
          1   -1    0    0  501    0 -0.00000000000E+00 -0.00000000000E+00 -0.18023122190E+04  0.18023122190E+04  0.00000000000E+00 0. -1.
         25    2    1    2    0    0 -0.14731940625E+02  0.11727526718E+03 -0.89682158317E+02  0.19400416924E+03  0.12499683914E+03 0.  0.
          2    1    1    2  501    0  0.13445889031E+02 -0.87597753866E+02 -0.16591373950E+04  0.16615026494E+04  0.00000000000E+00 0. -1.
          1    1    1    2  502    0  0.12860515945E+01 -0.29677513313E+02  0.14800739243E+04  0.14803719904E+04  0.00000000000E+00 0. -1.
         22    1    3    3    0    0  0.52304475413E+02  0.71178600001E+02 -0.62584301473E+02  0.10825408093E+03  0.00000000000E+00 0.  1.
         22    1    3    3    0    0 -0.67036416038E+02  0.46096667177E+02 -0.27097856844E+02  0.85750088312E+02  0.00000000000E+00 0.  1.
</event>
<event>
 7    1  0.6262315E-006  0.7360532E+02  0.7818608E-02  0.1415167E+00
          2   -1    0    0  502    0  0.00000000000E+00  0.00000000000E+00  0.17055019989E+04  0.17055019989E+04  0.00000000000E+00 0. -1.
          1   -1    0    0  501    0 -0.00000000000E+00 -0.00000000000E+00 -0.11998254697E+03  0.11998254697E+03  0.00000000000E+00 0. -1.
         25    2    1    2    0    0  0.53253145789E+02  0.90118291345E+02  0.91912200807E+03  0.93347060385E+03  0.12499959421E+03 0.  0.
          2    1    1    2  501    0 -0.34598708929E+02 -0.25010555688E+02 -0.10723595680E+03  0.11542161404E+03  0.00000000000E+00 0. -1.
          1    1    1    2  502    0 -0.18654436860E+02 -0.65107735656E+02  0.77363340071E+03  0.77659232803E+03  0.00000000000E+00 0. -1.
         22    1    3    3    0    0  0.41414177666E+02  0.40897279806E+02  0.12666038171E+03  0.13939359347E+03  0.00000000000E+00 0.  1.
         22    1    3    3    0    0  0.11838968123E+02  0.49221011538E+02  0.79246162636E+03  0.79407701037E+03  0.00000000000E+00 0.  1.
</event>
<event>
 7    1  0.6262315E-006  0.9506037E+02  0.7818608E-02  0.1341722E+00
          2   -1    0    0  502    0  0.00000000000E+00  0.00000000000E+00  0.10686671502E+04  0.10686671502E+04  0.00000000000E+00 0. -1.
          1   -1    0    0  501    0 -0.00000000000E+00 -0.00000000000E+00 -0.70554401968E+02  0.70554401968E+02  0.00000000000E+00 0. -1.
         25    2    1    2    0    0  0.45707827286E+02  0.32106410036E+02  0.57957220107E+03  0.59552435043E+03  0.12500115465E+03 0.  0.
          2    1    1    2  501    0 -0.35838405959E+02 -0.91573195537E+02 -0.20573045908E+02  0.10046537563E+03  0.00000000000E+00 0. -1.
          1    1    1    2  502    0 -0.98694213271E+01  0.59466785501E+02  0.43911359310E+03  0.44323182614E+03  0.00000000000E+00 0. -1.
         22    1    3    3    0    0  0.85291147317E+01  0.77464989022E+02  0.30999233177E+03  0.31963857101E+03  0.00000000000E+00 0. -1.
         22    1    3    3    0    0  0.37178712554E+02 -0.45358578986E+02  0.26957986930E+03  0.27588577942E+03  0.00000000000E+00 0. -1.
</event>
<event>
 7    1  0.6262315E-006  0.9154272E+02  0.7818608E-02  0.1458740E+00
          2   -1    0    0  502    0  0.00000000000E+00  0.00000000000E+00  0.45167293109E+03  0.45167293109E+03  0.00000000000E+00 0. -1.
          1   -1    0    0  501    0 -0.00000000000E+00 -0.00000000000E+00 -0.62754955528E+03  0.62754955528E+03  0.00000000000E+00 0. -1.
         25    2    1    2    0    0  0.61290630224E+02 -0.90463715152E+02  0.54221826146E+02  0.17465941623E+03  0.12500272051E+03 0.  0.
          2    1    1    2  501    0 -0.23004236456E+02  0.91296735620E+01 -0.56106237001E+03  0.56160798505E+03  0.00000000000E+00 0. -1.
          1    1    1    2  502    0 -0.38286393767E+02  0.81334041590E+02  0.33096391966E+03  0.34295508509E+03  0.00000000000E+00 0. -1.
         22    1    3    3    0    0  0.20882561533E+02  0.17084077627E+02  0.53331201868E+02  0.59767584669E+02  0.00000000000E+00 0.  1.
         22    1    3    3    0    0  0.40408068691E+02 -0.10754779278E+03  0.89062427868E+00  0.11489183156E+03  0.00000000000E+00 0.  1.
</event>
<event>
 7    1  0.6262315E-006  0.8533387E+02  0.7818608E-02  0.1331712E+00
          2   -1    0    0  502    0  0.00000000000E+00  0.00000000000E+00  0.20115692705E+04  0.20115692705E+04  0.00000000000E+00 0. -1.
          1   -1    0    0  501    0 -0.00000000000E+00 -0.00000000000E+00 -0.25750588930E+03  0.25750588930E+03  0.00000000000E+00 0. -1.
         25    2    1    2    0    0  0.11823955097E+03  0.27669655641E+02  0.80340745124E+02  0.19189781846E+03  0.12499574451E+03 0.  0.
          2    1    1    2  501    0 -0.63126340082E+02  0.37187003200E+02 -0.19407386688E+03  0.20744270010E+03  0.00000000000E+00 0. -1.
          1    1    1    2  502    0 -0.55113210889E+02 -0.64856658842E+02  0.18677965030E+04  0.18697346412E+04  0.00000000000E+00 0. -1.
         22    1    3    3    0    0  0.98346300340E+02 -0.30171298973E+02  0.80673346631E+02  0.13073060441E+03  0.00000000000E+00 0. -1.
         22    1    3    3    0    0  0.19893250631E+02  0.57840954614E+02 -0.33260150649E+00  0.61167214054E+02  0.00000000000E+00 0. -1.
</event>
<event>
 7    1  0.6262315E-006  0.1161770E+03  0.7818608E-02  0.1316636E+00
          2   -1    0    0  502    0  0.00000000000E+00  0.00000000000E+00  0.18893947566E+03  0.18893947566E+03  0.00000000000E+00 0. -1.
          1   -1    0    0  501    0 -0.00000000000E+00 -0.00000000000E+00 -0.50044870633E+03  0.50044870633E+03  0.00000000000E+00 0. -1.
         25    2    1    2    0    0 -0.98719429190E+02 -0.68993339917E+02 -0.38321228249E+02  0.17776120122E+03  0.12499968589E+03 0.  0.
          2    1    1    2  501    0 -0.19301386089E+02  0.58414465783E+02 -0.35969323218E+03  0.36491644879E+03  0.00000000000E+00 0. -1.
          1    1    1    2  502    0  0.11802081528E+03  0.10578874134E+02  0.86505229761E+02  0.14671053198E+03  0.00000000000E+00 0. -1.
         22    1    3    3    0    0  0.27344645176E+02 -0.29519348849E+02 -0.82826100142E-01  0.40238395053E+02  0.00000000000E+00 0. -1.
         22    1    3    3    0    0 -0.12606407437E+03 -0.39473991069E+02 -0.38238402149E+02  0.13752280617E+03  0.00000000000E+00 0. -1.
</event>
<event>
 7    1  0.6262315E-006  0.8378209E+02  0.7818608E-02  0.1471529E+00
          2   -1    0    0  502    0  0.00000000000E+00  0.00000000000E+00  0.12810460348E+04  0.12810460348E+04  0.00000000000E+00 0. -1.
          1   -1    0    0  501    0 -0.00000000000E+00 -0.00000000000E+00 -0.22143053179E+03  0.22143053179E+03  0.00000000000E+00 0. -1.
         25    2    1    2    0    0 -0.36130105821E+02  0.55606766140E+02  0.63648435035E+02  0.15515457887E+03  0.12499729227E+03 0.  0.
          2    1    1    2  501    0 -0.24453941229E+02  0.31791860309E+01 -0.17328283894E+03  0.17502869689E+03  0.00000000000E+00 0. -1.
          1    1    1    2  502    0  0.60584047049E+02 -0.58785952171E+02  0.11692499069E+04  0.11722932909E+04  0.00000000000E+00 0. -1.
         22    1    3    3    0    0  0.28302144982E+02  0.39649725068E+02 -0.16182433181E+02  0.51332087939E+02  0.00000000000E+00 0.  1.
         22    1    3    3    0    0 -0.64432250803E+02  0.15957041073E+02  0.79830868216E+02  0.10382249093E+03  0.00000000000E+00 0.  1.
</event>
<event>
 7    1  0.6262315E-006  0.4373580E+02  0.7818608E-02  0.1560466E+00
          2   -1    0    0  502    0  0.00000000000E+00  0.00000000000E+00  0.63226044600E+03  0.63226044600E+03  0.00000000000E+00 0. -1.
          1   -1    0    0  501    0 -0.00000000000E+00 -0.00000000000E+00 -0.31236984570E+02  0.31236984570E+02  0.00000000000E+00 0. -1.
         25    2    1    2    0    0  0.46087479458E+02  0.49471256793E+02  0.31607638956E+03  0.34655525300E+03  0.12499919335E+03 0.  0.
          2    1    1    2  501    0 -0.29374707644E+02 -0.29599188954E+02  0.12888677227E+02  0.43647490610E+02  0.00000000000E+00 0. -1.
          1    1    1    2  502    0 -0.16712771814E+02 -0.19872067839E+02  0.27205839465E+03  0.27329468696E+03  0.00000000000E+00 0. -1.
         22    1    3    3    0    0  0.72311168057E+02 -0.12320469884E+02  0.19106158622E+03  0.20465881055E+03  0.00000000000E+00 0.  1.
         22    1    3    3    0    0 -0.26223688598E+02  0.61791726677E+02  0.12501480333E+03  0.14189644246E+03  0.00000000000E+00 0.  1.
</event>
<event>
 7    1  0.6262315E-006  0.1516124E+03  0.7818608E-02  0.1276502E+00
          2   -1    0    0  502    0  0.00000000000E+00  0.00000000000E+00  0.12149767904E+04  0.12149767904E+04  0.00000000000E+00 0. -1.
          1   -1    0    0  501    0 -0.00000000000E+00 -0.00000000000E+00 -0.31089163533E+04  0.31089163533E+04  0.00000000000E+00 0. -1.
         25    2    1    2    0    0 -0.30735202433E+02  0.13457145087E+03  0.63318043712E+03  0.65999590579E+03  0.12499200633E+03 0.  0.
          2    1    1    2  501    0  0.96777529630E+02 -0.11681241013E+03 -0.30915850865E+04  0.30953044078E+04  0.00000000000E+00 0. -1.
          1    1    1    2  502    0 -0.66042327196E+02 -0.17759040740E+02  0.56446508659E+03  0.56859283014E+03  0.00000000000E+00 0. -1.
         22    1    3    3    0    0  0.18402529790E+00 -0.89893502122E+00  0.28654744983E+03  0.28654891896E+03  0.00000000000E+00 0. -1.
         22    1    3    3    0    0 -0.30919227731E+02  0.13547038589E+03  0.34663298729E+03  0.37344698683E+03  0.00000000000E+00 0. -1.
</event>
<event>
 7    1  0.6262315E-006  0.1159876E+03  0.7818608E-02  0.1412825E+00
          2   -1    0    0  502    0  0.00000000000E+00  0.00000000000E+00  0.14594036373E+04  0.14594036373E+04  0.00000000000E+00 0. -1.
          1   -1    0    0  501    0 -0.00000000000E+00 -0.00000000000E+00 -0.39478399147E+02  0.39478399147E+02  0.00000000000E+00 0. -1.
         25    2    1    2    0    0  0.60626539086E+02 -0.11478439292E+03  0.50203939532E+03  0.53340624927E+03  0.12501055240E+03 0.  0.
          2    1    1    2  501    0 -0.69666275872E+02  0.88718555267E+02  0.11146714079E+03  0.15858529414E+03  0.00000000000E+00 0. -1.
          1    1    1    2  502    0  0.90397367856E+01  0.26065837656E+02  0.80641870207E+03  0.80689049306E+03  0.00000000000E+00 0. -1.
         22    1    3    3    0    0  0.60985457913E+02 -0.13456557860E+03  0.48592999203E+03  0.50789278217E+03  0.00000000000E+00 0.  1.
         22    1    3    3    0    0 -0.35891882657E+00  0.19781185677E+02  0.16109403284E+02  0.25513467104E+02  0.00000000000E+00 0.  1.
</event>
<event>
 7    1  0.6262315E-006  0.1970219E+03  0.7818608E-02  0.1310207E+00
          2   -1    0    0  502    0  0.00000000000E+00  0.00000000000E+00  0.89738154228E+03  0.89738154228E+03  0.00000000000E+00 0. -1.
          1   -1    0    0  501    0 -0.00000000000E+00 -0.00000000000E+00 -0.19812108002E+03  0.19812108002E+03  0.00000000000E+00 0. -1.
         25    2    1    2    0    0 -0.96609497350E+02 -0.17503041859E+03  0.30336202969E+02  0.23772810243E+03  0.12500129225E+03 0.  0.
          2    1    1    2  501    0  0.12620529605E+03  0.15049443034E+03  0.88775098573E+01  0.19660915669E+03  0.00000000000E+00 0. -1.
          1    1    1    2  502    0 -0.29595798701E+02  0.24535988244E+02  0.66004674944E+03  0.66116536318E+03  0.00000000000E+00 0. -1.
         22    1    3    3    0    0 -0.96844782981E+02 -0.19308494038E+03  0.35590119723E+02  0.21892318930E+03  0.00000000000E+00 0.  1.
         22    1    3    3    0    0  0.23528563080E+00  0.18054521792E+02 -0.52539167541E+01  0.18804913127E+02  0.00000000000E+00 0.  1.
</event>
<event>
 7    1  0.6262315E-006  0.8730133E+02  0.7818608E-02  0.1414110E+00
          2   -1    0    0  502    0  0.00000000000E+00  0.00000000000E+00  0.65025537855E+03  0.65025537855E+03  0.00000000000E+00 0. -1.
          1   -1    0    0  501    0 -0.00000000000E+00 -0.00000000000E+00 -0.67068294579E+03  0.67068294579E+03  0.00000000000E+00 0. -1.
         25    2    1    2    0    0  0.47275205177E+02  0.23483587087E+02  0.18078484480E+03  0.22604269595E+03  0.12500286555E+03 0.  0.
          2    1    1    2  501    0 -0.72449331039E+02 -0.49622698613E+02 -0.64433403735E+03  0.65029045009E+03  0.00000000000E+00 0. -1.
          1    1    1    2  502    0  0.25174125862E+02  0.26139111526E+02  0.44312162530E+03  0.44460517830E+03  0.00000000000E+00 0. -1.
         22    1    3    3    0    0  0.22608017416E+02  0.71218014542E+02  0.13961437949E+03  0.15835183298E+03  0.00000000000E+00 0. -1.
         22    1    3    3    0    0  0.24667187761E+02 -0.47734427455E+02  0.41170465314E+02  0.67690862978E+02  0.00000000000E+00 0. -1.
</event>
<event>
 7    1  0.6262315E-006  0.6578262E+02  0.7818608E-02  0.1483010E+00
          2   -1    0    0  502    0  0.00000000000E+00  0.00000000000E+00  0.10368462936E+04  0.10368462936E+04  0.00000000000E+00 0. -1.
          1   -1    0    0  501    0 -0.00000000000E+00 -0.00000000000E+00 -0.43151508431E+03  0.43151508431E+03  0.00000000000E+00 0. -1.
         25    2    1    2    0    0  0.90433590209E+02  0.15312173828E+02  0.59611700374E+03  0.61594910051E+03  0.12500046148E+03 0.  0.
          2    1    1    2  501    0 -0.62115734303E+02 -0.21336633077E+02 -0.41854886206E+03  0.42367058700E+03  0.00000000000E+00 0. -1.
          1    1    1    2  502    0 -0.28317855906E+02  0.60244592495E+01  0.42776306762E+03  0.42874169041E+03  0.00000000000E+00 0. -1.
         22    1    3    3    0    0  0.10617611065E+03  0.36252907624E+02  0.33010564386E+03  0.34865079362E+03  0.00000000000E+00 0.  1.
         22    1    3    3    0    0 -0.15742520444E+02 -0.20940733796E+02  0.26601135988E+03  0.26729830689E+03  0.00000000000E+00 0.  1.
</event>
<event>
 7    1  0.6262315E-006  0.4072754E+02  0.7818608E-02  0.1611875E+00
          2   -1    0    0  502    0  0.00000000000E+00  0.00000000000E+00  0.55442705918E+02  0.55442705918E+02  0.00000000000E+00 0. -1.
          1   -1    0    0  501    0 -0.00000000000E+00 -0.00000000000E+00 -0.25588463645E+04  0.25588463645E+04  0.00000000000E+00 0. -1.
         25    2    1    2    0    0  0.55316804118E+02  0.69355444442E+01 -0.48557026397E+03  0.50449141448E+03  0.12500022175E+03 0.  0.
          2    1    1    2  501    0 -0.37130680559E+02 -0.16066941911E+02 -0.20613557554E+04  0.20617527457E+04  0.00000000000E+00 0. -1.
          1    1    1    2  502    0 -0.18186123559E+02  0.91313974670E+01  0.43522360798E+02  0.48044910233E+02  0.00000000000E+00 0. -1.
         22    1    3    3    0    0  0.13110087355E+02 -0.54222878319E+02 -0.13389553064E+03  0.14505174266E+03  0.00000000000E+00 0. -1.
         22    1    3    3    0    0  0.42206716763E+02  0.61158422763E+02 -0.35167473333E+03  0.35943967182E+03  0.00000000000E+00 0. -1.
</event>
<event>
 7    1  0.6262315E-006  0.9376945E+02  0.7818608E-02  0.1371857E+00
          2   -1    0    0  502    0  0.00000000000E+00  0.00000000000E+00  0.30486817109E+03  0.30486817109E+03  0.00000000000E+00 0. -1.
          1   -1    0    0  501    0 -0.00000000000E+00 -0.00000000000E+00 -0.17739456753E+04  0.17739456753E+04  0.00000000000E+00 0. -1.
         25    2    1    2    0    0  0.86816446310E+02 -0.51678311848E+02 -0.96040945131E+03  0.97376511430E+03  0.12499776158E+03 0.  0.
          2    1    1    2  501    0  0.68632863153E+01  0.46879238176E+02 -0.79876209021E+03  0.80016601054E+03  0.00000000000E+00 0. -1.
          1    1    1    2  502    0 -0.93679732625E+02  0.47990736724E+01  0.29009403731E+03  0.30488272155E+03  0.00000000000E+00 0. -1.
         22    1    3    3    0    0  0.88471312809E+02 -0.59831043577E+02 -0.42246549026E+03  0.43575683291E+03  0.00000000000E+00 0.  1.
         22    1    3    3    0    0 -0.16548664984E+01  0.81527317287E+01 -0.53794396105E+03  0.53800828139E+03  0.00000000000E+00 0.  1.
</event>
<event>
 7    1  0.6262315E-006  0.1119022E+03  0.7818608E-02  0.1401491E+00
          2   -1    0    0  502    0  0.00000000000E+00  0.00000000000E+00  0.36008114058E+03  0.36008114058E+03  0.00000000000E+00 0. -1.
          1   -1    0    0  501    0 -0.00000000000E+00 -0.00000000000E+00 -0.14158877318E+03  0.14158877318E+03  0.00000000000E+00 0. -1.
         25    2    1    2    0    0  0.69935510266E+02  0.10558767098E+03  0.21163922929E+03  0.27650610813E+03  0.12499893039E+03 0.  0.
          2    1    1    2  501    0  0.87934942347E-01 -0.31251698087E+02 -0.83282058160E+02  0.88952670433E+02  0.00000000000E+00 0. -1.
          1    1    1    2  502    0 -0.70023445209E+02 -0.74335972892E+02  0.90135196273E+02  0.13621113520E+03  0.00000000000E+00 0. -1.
         22    1    3    3    0    0  0.71961057901E+02  0.91108125979E+02  0.73096293350E+02  0.13719385035E+03  0.00000000000E+00 0. -1.
         22    1    3    3    0    0 -0.20255476347E+01  0.14479545001E+02  0.13854293594E+03  0.13931225777E+03  0.00000000000E+00 0. -1.
</event>
<event>
 7    1  0.6262315E-006  0.9842162E+02  0.7818608E-02  0.1404435E+00
          2   -1    0    0  502    0  0.00000000000E+00  0.00000000000E+00  0.31854430408E+03  0.31854430408E+03  0.00000000000E+00 0. -1.
          1   -1    0    0  501    0 -0.00000000000E+00 -0.00000000000E+00 -0.11032842118E+04  0.11032842118E+04  0.00000000000E+00 0. -1.
         25    2    1    2    0    0  0.93151204883E+02 -0.79499680116E+02  0.83081259053E+02  0.19371453996E+03  0.12500192510E+03 0.  0.
          2    1    1    2  501    0 -0.12390345963E+02  0.32430740019E+02 -0.10355310884E+04  0.10361128841E+04  0.00000000000E+00 0. -1.
          1    1    1    2  502    0 -0.80760858921E+02  0.47068940098E+02  0.16770992161E+03  0.19200109182E+03  0.00000000000E+00 0. -1.
         22    1    3    3    0    0  0.46825122315E+02 -0.38572053751E+02  0.11052553650E+03  0.12608048870E+03  0.00000000000E+00 0. -1.
         22    1    3    3    0    0  0.46326082569E+02 -0.40927626366E+02 -0.27444277451E+02  0.67634051268E+02  0.00000000000E+00 0. -1.
</event>
<event>
 7    1  0.6262315E-006  0.5362036E+02  0.7818608E-02  0.1484627E+00
          2   -1    0    0  502    0  0.00000000000E+00  0.00000000000E+00  0.58607183968E+03  0.58607183968E+03  0.00000000000E+00 0. -1.
          1   -1    0    0  501    0 -0.00000000000E+00 -0.00000000000E+00 -0.20284807339E+03  0.20284807339E+03  0.00000000000E+00 0. -1.
         25    2    1    2    0    0 -0.34195978337E+02 -0.18510745505E+02  0.29069341783E+03  0.31881054226E+03  0.12500194420E+03 0.  0.
          2    1    1    2  501    0 -0.23509237452E+02  0.26086976458E+02 -0.18410179422E+03  0.18742114401E+03  0.00000000000E+00 0. -1.
          1    1    1    2  502    0  0.57705215788E+02 -0.75762309530E+01  0.27663214269E+03  0.28268822680E+03  0.00000000000E+00 0. -1.
         22    1    3    3    0    0  0.13559813190E+02 -0.34181009232E+02  0.25383079058E+03  0.25648056491E+03  0.00000000000E+00 0. -1.
         22    1    3    3    0    0 -0.47755791526E+02  0.15670263727E+02  0.36862627241E+02  0.62329977352E+02  0.00000000000E+00 0. -1.
</event>
<event>
 7    1  0.6262315E-006  0.1246921E+03  0.7818608E-02  0.1293310E+00
          2   -1    0    0  502    0  0.00000000000E+00  0.00000000000E+00  0.50511855904E+03  0.50511855904E+03  0.00000000000E+00 0. -1.
          1   -1    0    0  501    0 -0.00000000000E+00 -0.00000000000E+00 -0.10387918458E+04  0.10387918458E+04  0.00000000000E+00 0. -1.
         25    2    1    2    0    0  0.33377476824E+02  0.13380488707E+03  0.85195727211E+02  0.20469608651E+03  0.12499748851E+03 0.  0.
          2    1    1    2  501    0 -0.88018421408E+02 -0.88545364761E+02 -0.97151356109E+03  0.97950299821E+03  0.00000000000E+00 0. -1.
          1    1    1    2  502    0  0.54640944584E+02 -0.45259522307E+02  0.35264454714E+03  0.35971132010E+03  0.00000000000E+00 0. -1.
         22    1    3    3    0    0  0.73129379030E+02  0.62807616725E+02  0.15658347344E+02  0.97662104409E+02  0.00000000000E+00 0. -1.
         22    1    3    3    0    0 -0.39751902206E+02  0.70997270343E+02  0.69537379867E+02  0.10703398210E+03  0.00000000000E+00 0. -1.
</event>
<event>
 7    1  0.6262315E-006  0.1507843E+03  0.7818608E-02  0.1397797E+00
          2   -1    0    0  502    0  0.00000000000E+00  0.00000000000E+00  0.84117945566E+02  0.84117945566E+02  0.00000000000E+00 0. -1.
          1   -1    0    0  501    0 -0.00000000000E+00 -0.00000000000E+00 -0.75304854235E+03  0.75304854235E+03  0.00000000000E+00 0. -1.
         25    2    1    2    0    0 -0.13096977025E+00  0.13833573432E+03 -0.37341034590E+03  0.41736901247E+03  0.12499925442E+03 0.  0.
          2    1    1    2  501    0  0.18947791630E+02  0.14536975308E+02 -0.26081946012E+03  0.26191054434E+03  0.00000000000E+00 0. -1.
          1    1    1    2  502    0 -0.18816821860E+02 -0.15287270963E+03 -0.34700790769E+02  0.15788693111E+03  0.00000000000E+00 0. -1.
         22    1    3    3    0    0  0.41438037817E+02  0.57825484928E+02 -0.66566835264E+02  0.97427107328E+02  0.00000000000E+00 0. -1.
         22    1    3    3    0    0 -0.41569007588E+02  0.80510249394E+02 -0.30684351063E+03  0.31994190514E+03  0.00000000000E+00 0. -1.
</event>
<event>
 7    1  0.6262315E-006  0.7572131E+02  0.7818608E-02  0.1406349E+00
          2   -1    0    0  502    0  0.00000000000E+00  0.00000000000E+00  0.29725309848E+04  0.29725309848E+04  0.00000000000E+00 0. -1.
          1   -1    0    0  501    0 -0.00000000000E+00 -0.00000000000E+00 -0.25951954103E+02  0.25951954103E+02  0.00000000000E+00 0. -1.
         25    2    1    2    0    0  0.64348095726E+02 -0.94031180068E+02  0.20634078440E+04  0.20703282275E+04  0.12499799439E+03 0.  0.
          2    1    1    2  501    0 -0.27308468147E+02  0.69454899445E+02  0.41661346457E+02  0.85471651897E+02  0.00000000000E+00 0. -1.
          1    1    1    2  502    0 -0.37039627579E+02  0.24576280623E+02  0.84150984025E+03  0.84268305953E+03  0.00000000000E+00 0. -1.
         22    1    3    3    0    0 -0.10294308158E+02  0.98723307835E+01  0.86378772756E+03  0.86390547746E+03  0.00000000000E+00 0. -1.
         22    1    3    3    0    0  0.74642403884E+02 -0.10390351085E+03  0.11996201165E+04  0.12064227501E+04  0.00000000000E+00 0. -1.
</event>
<event>
 7    1  0.6262315E-006  0.9079193E+02  0.7818608E-02  0.1343251E+00
          2   -1    0    0  502    0  0.00000000000E+00  0.00000000000E+00  0.75248700163E+03  0.75248700163E+03  0.00000000000E+00 0. -1.
          1   -1    0    0  501    0 -0.00000000000E+00 -0.00000000000E+00 -0.27571752317E+03  0.27571752317E+03  0.00000000000E+00 0. -1.
         25    2    1    2    0    0  0.13776422159E+03 -0.23939924729E+02  0.29226593083E+03  0.34726990927E+03  0.12499965926E+03 0.  0.
          2    1    1    2  501    0 -0.61326396643E+02 -0.10894556066E+02 -0.24012772849E+03  0.24807447323E+03  0.00000000000E+00 0. -1.
          1    1    1    2  502    0 -0.76437824949E+02  0.34834480795E+02  0.42463127612E+03  0.43286014230E+03  0.00000000000E+00 0. -1.
         22    1    3    3    0    0  0.35659623413E+02 -0.61405053458E+02  0.69443288983E+02  0.99320489915E+02  0.00000000000E+00 0. -1.
         22    1    3    3    0    0  0.10210459818E+03  0.37465128729E+02  0.22282264184E+03  0.24794941936E+03  0.00000000000E+00 0. -1.
</event>
<event>
 7    1  0.6262315E-006  0.6982557E+02  0.7818608E-02  0.1458861E+00
          2   -1    0    0  502    0  0.00000000000E+00  0.00000000000E+00  0.11429956009E+04  0.11429956009E+04  0.00000000000E+00 0. -1.
          1   -1    0    0  501    0 -0.00000000000E+00 -0.00000000000E+00 -0.73189170773E+03  0.73189170773E+03  0.00000000000E+00 0. -1.
         25    2    1    2    0    0 -0.45875629781E+02  0.90865996467E+02  0.18302221170E+03  0.24389165308E+03  0.12499922298E+03 0.  0.
          2    1    1    2  501    0  0.33956271811E+02 -0.60717911143E+02 -0.69944823182E+03  0.70289936842E+03  0.00000000000E+00 0. -1.
          1    1    1    2  502    0  0.11919357970E+02 -0.30148085324E+02  0.92752991325E+03  0.92809628709E+03  0.00000000000E+00 0. -1.
         22    1    3    3    0    0 -0.52460268339E+01 -0.30294596813E+02  0.54962557273E+02  0.62977504679E+02  0.00000000000E+00 0. -1.
         22    1    3    3    0    0 -0.40629602947E+02  0.12116059328E+03  0.12805965442E+03  0.18091414840E+03  0.00000000000E+00 0. -1.
</event>
<event>
 7    1  0.6262315E-006  0.3667591E+02  0.7818608E-02  0.1541008E+00
          2   -1    0    0  502    0  0.00000000000E+00  0.00000000000E+00  0.24313856117E+04  0.24313856117E+04  0.00000000000E+00 0. -1.
          1   -1    0    0  501    0 -0.00000000000E+00 -0.00000000000E+00 -0.26180309034E+04  0.26180309034E+04  0.00000000000E+00 0. -1.
         25    2    1    2    0    0 -0.51299187472E+01 -0.16724426192E+02  0.19832591933E+04  0.19872716896E+04  0.12500287255E+03 0.  0.
          2    1    1    2  501    0 -0.34917060223E+02 -0.11221475040E+02 -0.26145592835E+04  0.26148165078E+04  0.00000000000E+00 0. -1.
          1    1    1    2  502    0  0.40046978970E+02  0.27945901231E+02  0.44465479853E+03  0.44732831765E+03  0.00000000000E+00 0. -1.
         22    1    3    3    0    0 -0.39407563978E+02  0.15239559657E+02  0.26284933729E+03  0.26622354214E+03  0.00000000000E+00 0. -1.
         22    1    3    3    0    0  0.34277645230E+02 -0.31963985848E+02  0.17204098560E+04  0.17210481475E+04  0.00000000000E+00 0. -1.
</event>
<event>
 7    1  0.6262315E-006  0.6290137E+02  0.7818608E-02  0.1413823E+00
          2   -1    0    0  502    0  0.00000000000E+00  0.00000000000E+00  0.84720475224E+03  0.84720475224E+03  0.00000000000E+00 0. -1.
          1   -1    0    0  501    0 -0.00000000000E+00 -0.00000000000E+00 -0.22336157267E+03  0.22336157267E+03  0.00000000000E+00 0. -1.
         25    2    1    2    0    0  0.46325383469E+02 -0.85398662661E+02  0.28866303524E+03  0.32923783038E+03  0.12502890986E+03 0.  0.
          2    1    1    2  501    0 -0.13298598791E+01  0.62515695240E+02 -0.19703790597E+03  0.20672183501E+03  0.00000000000E+00 0. -1.
          1    1    1    2  502    0 -0.44995523590E+02  0.22882967421E+02  0.53221805030E+03  0.53460665952E+03  0.00000000000E+00 0. -1.
         22    1    3    3    0    0  0.17242805399E+02  0.16724544790E+01 -0.77182469994E+01  0.18965304604E+02  0.00000000000E+00 0. -1.
         22    1    3    3    0    0  0.29082578071E+02 -0.87071117140E+02  0.29638128224E+03  0.31027252578E+03  0.00000000000E+00 0. -1.
</event>
<event>
 7    1  0.6262315E-006  0.1493397E+03  0.7818608E-02  0.1259168E+00
          2   -1    0    0  502    0  0.00000000000E+00  0.00000000000E+00  0.43434814894E+03  0.43434814894E+03  0.00000000000E+00 0. -1.
          1   -1    0    0  501    0 -0.00000000000E+00 -0.00000000000E+00 -0.48749544438E+03  0.48749544438E+03  0.00000000000E+00 0. -1.
         25    2    1    2    0    0  0.15458194477E+03  0.15312750255E+03  0.76860964216E+02  0.26244198097E+03  0.12499830348E+03 0.  0.
          2    1    1    2  501    0 -0.51415460619E+02 -0.64068053416E+02 -0.37238290416E+03  0.38133619337E+03  0.00000000000E+00 0. -1.
          1    1    1    2  502    0 -0.10316648415E+03 -0.89059449129E+02  0.24237464450E+03  0.27806541897E+03  0.00000000000E+00 0. -1.
         22    1    3    3    0    0  0.10577425130E+03  0.45067742026E+02  0.85909578448E+02  0.14352612751E+03  0.00000000000E+00 0. -1.
         22    1    3    3    0    0  0.48807693474E+02  0.10805976052E+03 -0.90486142318E+01  0.11891585346E+03  0.00000000000E+00 0. -1.
</event>
<event>
 7    1  0.6262315E-006  0.4708622E+03  0.7818608E-02  0.1093734E+00
          2   -1    0    0  502    0  0.00000000000E+00  0.00000000000E+00  0.94135225059E+03  0.94135225059E+03  0.00000000000E+00 0. -1.
          1   -1    0    0  501    0 -0.00000000000E+00 -0.00000000000E+00 -0.76051694445E+03  0.76051694445E+03  0.00000000000E+00 0. -1.
         25    2    1    2    0    0  0.48388126593E+03 -0.15900265470E+03  0.42137883171E+01  0.52446707113E+03  0.12500011584E+03 0.  0.
          2    1    1    2  501    0 -0.11553715675E+03 -0.12582294164E+03 -0.40077086126E+03  0.43565758397E+03  0.00000000000E+00 0. -1.
          1    1    1    2  502    0 -0.36834410919E+03  0.28482559634E+03  0.57739237909E+03  0.74174453995E+03  0.00000000000E+00 0. -1.
         22    1    3    3    0    0  0.84434958234E+02 -0.81899900518E+02  0.68285185735E+00  0.11763214766E+03  0.00000000000E+00 0. -1.
         22    1    3    3    0    0  0.39944630770E+03 -0.77102754184E+02  0.35309364598E+01  0.40683492346E+03  0.00000000000E+00 0. -1.
</event>
<event>
 7    1  0.6262315E-006  0.9746070E+02  0.7818608E-02  0.1360582E+00
          2   -1    0    0  502    0  0.00000000000E+00  0.00000000000E+00  0.22413219028E+04  0.22413219028E+04  0.00000000000E+00 0. -1.
          1   -1    0    0  501    0 -0.00000000000E+00 -0.00000000000E+00 -0.36677501627E+02  0.36677501627E+02  0.00000000000E+00 0. -1.
         25    2    1    2    0    0 -0.50620946562E+02  0.31355819882E+02  0.56479547987E+03  0.58151937780E+03  0.12500074002E+03 0.  0.
          2    1    1    2  501    0 -0.50070824274E+02  0.33478873696E-01 -0.30834514037E+01  0.50165687845E+02  0.00000000000E+00 0. -1.
          1    1    1    2  502    0  0.10069177084E+03 -0.31389298755E+02  0.16429323728E+04  0.16463143388E+04  0.00000000000E+00 0. -1.
         22    1    3    3    0    0 -0.86337444857E+02  0.31986220442E+02  0.28626101304E+03  0.30070357542E+03  0.00000000000E+00 0.  1.
         22    1    3    3    0    0  0.35716498295E+02 -0.63040056053E+00  0.27853446683E+03  0.28081580238E+03  0.00000000000E+00 0.  1.
</event>
<event>
 7    1  0.6262315E-006  0.5860223E+02  0.7818608E-02  0.1405955E+00
          2   -1    0    0  502    0  0.00000000000E+00  0.00000000000E+00  0.28096115264E+04  0.28096115264E+04  0.00000000000E+00 0. -1.
          1   -1    0    0  501    0 -0.00000000000E+00 -0.00000000000E+00 -0.67831000426E+03  0.67831000426E+03  0.00000000000E+00 0. -1.
         25    2    1    2    0    0  0.61016001119E+01 -0.35814048906E+02  0.13097450599E+03  0.18468382820E+03  0.12503567313E+03 0.  0.
          2    1    1    2  501    0 -0.57996771858E+02  0.10787004714E+02 -0.64980613126E+03  0.65247834695E+03  0.00000000000E+00 0. -1.
          1    1    1    2  502    0  0.51895171746E+02  0.25027044192E+02  0.26501331474E+04  0.26507593555E+04  0.00000000000E+00 0. -1.
         22    1    3    3    0    0  0.22227955254E+02 -0.74327026150E+02  0.11751851723E+03  0.14081615924E+03  0.00000000000E+00 0.  1.
         22    1    3    3    0    0 -0.16126355142E+02  0.38512977244E+02  0.13455988763E+02  0.43867668959E+02  0.00000000000E+00 0.  1.
</event>
<event>
 7    1  0.6262315E-006  0.1229585E+03  0.7818608E-02  0.1440016E+00
          2   -1    0    0  502    0  0.00000000000E+00  0.00000000000E+00  0.30010151966E+03  0.30010151966E+03  0.00000000000E+00 0. -1.
          1   -1    0    0  501    0 -0.00000000000E+00 -0.00000000000E+00 -0.31913206123E+03  0.31913206123E+03  0.00000000000E+00 0. -1.
         25    2    1    2    0    0  0.10723526989E+03 -0.13280224865E+02  0.10673935501E+03  0.19670794827E+03  0.12499983809E+03 0.  0.
          2    1    1    2  501    0 -0.12440822478E+03  0.92741713335E+00 -0.25915630036E+03  0.28747218042E+03  0.00000000000E+00 0. -1.
          1    1    1    2  502    0  0.17172954897E+02  0.12352807731E+02  0.13338640378E+03  0.13505345220E+03  0.00000000000E+00 0. -1.
         22    1    3    3    0    0  0.98057691151E+02  0.36262876797E+02  0.10206092658E+03  0.14610523523E+03  0.00000000000E+00 0. -1.
         22    1    3    3    0    0  0.91775787368E+01 -0.49543101662E+02  0.46784284289E+01  0.50602713033E+02  0.00000000000E+00 0. -1.
</event>
<event>
 7    1  0.6262315E-006  0.1202977E+03  0.7818608E-02  0.1324698E+00
          2   -1    0    0  502    0  0.00000000000E+00  0.00000000000E+00  0.13318627768E+04  0.13318627768E+04  0.00000000000E+00 0. -1.
          1   -1    0    0  501    0 -0.00000000000E+00 -0.00000000000E+00 -0.57631996787E+02  0.57631996787E+02  0.00000000000E+00 0. -1.
         25    2    1    2    0    0  0.67301290370E+02 -0.63897785445E+02  0.45374610101E+03  0.47970862353E+03  0.12498979415E+03 0.  0.
          2    1    1    2  501    0 -0.11902758031E+03  0.44373687055E+02  0.48733588405E+02  0.13605716305E+03  0.00000000000E+00 0. -1.
          1    1    1    2  502    0  0.51726289943E+02  0.19524098390E+02  0.77175109062E+03  0.77372898703E+03  0.00000000000E+00 0. -1.
         22    1    3    3    0    0 -0.12182804392E+02 -0.50641734814E+02  0.68111839451E+02  0.85745138062E+02  0.00000000000E+00 0.  1.
         22    1    3    3    0    0  0.79484094762E+02 -0.13256050631E+02  0.38563426156E+03  0.39396348547E+03  0.00000000000E+00 0.  1.
</event>
<event>
 7    1  0.6262315E-006  0.9865374E+02  0.7818608E-02  0.1425483E+00
          2   -1    0    0  502    0  0.00000000000E+00  0.00000000000E+00  0.63446604888E+03  0.63446604888E+03  0.00000000000E+00 0. -1.
          1   -1    0    0  501    0 -0.00000000000E+00 -0.00000000000E+00 -0.74864058402E+03  0.74864058402E+03  0.00000000000E+00 0. -1.
         25    2    1    2    0    0  0.11517040477E+03 -0.40673749939E+02  0.70061097364E+00  0.17476480312E+03  0.12499467782E+03 0.  0.
          2    1    1    2  501    0 -0.19410766414E+02  0.22113113794E+02 -0.65692598465E+03  0.65758460822E+03  0.00000000000E+00 0. -1.
          1    1    1    2  502    0 -0.95759638360E+02  0.18560636145E+02  0.54205083853E+03  0.55075722157E+03  0.00000000000E+00 0. -1.
         22    1    3    3    0    0  0.92873052889E+02 -0.59801448544E+02  0.46908870055E+02  0.12000858007E+03  0.00000000000E+00 0. -1.
         22    1    3    3    0    0  0.22297351885E+02  0.19127698605E+02 -0.46208259082E+02  0.54756223047E+02  0.00000000000E+00 0. -1.
</event>
<event>
 7    1  0.6262315E-006  0.6430709E+02  0.7818608E-02  0.1418496E+00
          2   -1    0    0  502    0  0.00000000000E+00  0.00000000000E+00  0.32927555966E+03  0.32927555966E+03  0.00000000000E+00 0. -1.
          1   -1    0    0  501    0 -0.00000000000E+00 -0.00000000000E+00 -0.16911936388E+04  0.16911936388E+04  0.00000000000E+00 0. -1.
         25    2    1    2    0    0 -0.65230875347E+02  0.67261520916E+02  0.23165932258E+03  0.27941030705E+03  0.12499959462E+03 0.  0.
          2    1    1    2  501    0  0.61130950432E+02 -0.19814441282E+02 -0.16589414165E+04  0.16601856006E+04  0.00000000000E+00 0. -1.
          1    1    1    2  502    0  0.40999249147E+01 -0.47447079633E+02  0.65364014713E+02  0.80873290829E+02  0.00000000000E+00 0. -1.
         22    1    3    3    0    0 -0.21939982123E+02 -0.29746720063E+02  0.11881278239E+03  0.12442952797E+03  0.00000000000E+00 0.  1.
         22    1    3    3    0    0 -0.43290893224E+02  0.97008240979E+02  0.11284654019E+03  0.15498077909E+03  0.00000000000E+00 0.  1.
</event>
<event>
 7    1  0.6262315E-006  0.2577945E+03  0.7818608E-02  0.1169649E+00
          2   -1    0    0  502    0  0.00000000000E+00  0.00000000000E+00  0.12076377727E+04  0.12076377727E+04  0.00000000000E+00 0. -1.
          1   -1    0    0  501    0 -0.00000000000E+00 -0.00000000000E+00 -0.26243009892E+03  0.26243009892E+03  0.00000000000E+00 0. -1.
         25    2    1    2    0    0  0.21187849919E+03 -0.33613444299E+02  0.36840078991E+03  0.44426026152E+03  0.12500270358E+03 0.  0.
          2    1    1    2  501    0  0.78544794425E+02  0.94721687131E+02 -0.17706343432E+03  0.21562222176E+03  0.00000000000E+00 0. -1.
          1    1    1    2  502    0 -0.29042329362E+03 -0.61108242832E+02  0.75387031816E+03  0.81018538830E+03  0.00000000000E+00 0. -1.
         22    1    3    3    0    0  0.20903635423E+02 -0.64108201432E+01  0.15524342620E+03  0.15677557835E+03  0.00000000000E+00 0.  1.
         22    1    3    3    0    0  0.19097486377E+03 -0.27202624156E+02  0.21315736371E+03  0.28748468316E+03  0.00000000000E+00 0.  1.
</event>
<event>
 7    1  0.6262315E-006  0.8669854E+02  0.7818608E-02  0.1338895E+00
          2   -1    0    0  502    0  0.00000000000E+00  0.00000000000E+00  0.13281934753E+04  0.13281934753E+04  0.00000000000E+00 0. -1.
          1   -1    0    0  501    0 -0.00000000000E+00 -0.00000000000E+00 -0.52659365118E+03  0.52659365118E+03  0.00000000000E+00 0. -1.
         25    2    1    2    0    0 -0.10502546564E+02 -0.10534288138E+03 -0.35670987818E+03  0.39252036302E+03  0.12499148791E+03 0.  0.
          2    1    1    2  501    0 -0.46667054889E+02  0.69022058732E+02 -0.13960961327E+03  0.16258137261E+03  0.00000000000E+00 0. -1.
          1    1    1    2  502    0  0.57169601452E+02  0.36320822651E+02  0.12979193156E+04  0.12996853909E+04  0.00000000000E+00 0. -1.
         22    1    3    3    0    0  0.12491016506E+01 -0.95130110785E+02 -0.11047790775E+03  0.14579666092E+03  0.00000000000E+00 0. -1.
         22    1    3    3    0    0 -0.11751648214E+02 -0.10212770598E+02 -0.24623197043E+03  0.24672370210E+03  0.00000000000E+00 0. -1.
</event>
<event>
 7    1  0.6262315E-006  0.3679221E+02  0.7818608E-02  0.1545195E+00
          2   -1    0    0  502    0  0.00000000000E+00  0.00000000000E+00  0.29748225808E+03  0.29748225808E+03  0.00000000000E+00 0. -1.
          1   -1    0    0  501    0 -0.00000000000E+00 -0.00000000000E+00 -0.26704142311E+03  0.26704142311E+03  0.00000000000E+00 0. -1.
         25    2    1    2    0    0 -0.50162623284E+02  0.86383438386E+01 -0.76726343985E+02  0.15524931938E+03  0.12499803818E+03 0.  0.
          2    1    1    2  501    0  0.27371798739E+02  0.20226841782E+02 -0.14780015574E+03  0.15166814607E+03  0.00000000000E+00 0. -1.
          1    1    1    2  502    0  0.22790824545E+02 -0.28865185620E+02  0.25496733469E+03  0.25760621573E+03  0.00000000000E+00 0. -1.
         22    1    3    3    0    0  0.15565542696E+02 -0.19720273650E+02 -0.79736878635E+02  0.83601107209E+02  0.00000000000E+00 0. -1.
         22    1    3    3    0    0 -0.65728165980E+02  0.28358617488E+02  0.30105346501E+01  0.71648212174E+02  0.00000000000E+00 0. -1.
</event>
<event>
 7    1  0.6262315E-006  0.1659597E+03  0.7818608E-02  0.1242608E+00
          2   -1    0    0  502    0  0.00000000000E+00  0.00000000000E+00  0.60765417835E+03  0.60765417835E+03  0.00000000000E+00 0. -1.
          1   -1    0    0  501    0 -0.00000000000E+00 -0.00000000000E+00 -0.12234069132E+04  0.12234069132E+04  0.00000000000E+00 0. -1.
         25    2    1    2    0    0  0.83525876763E+02  0.72965517181E+02 -0.39666431664E+03  0.43042689875E+03  0.12499678508E+03 0.  0.
          2    1    1    2  501    0 -0.23663977495E+02  0.83925632072E+02 -0.79549779239E+03  0.80026260268E+03  0.00000000000E+00 0. -1.
          1    1    1    2  502    0 -0.59861899268E+02 -0.15689114925E+03  0.57640937413E+03  0.60037159017E+03  0.00000000000E+00 0. -1.
         22    1    3    3    0    0  0.52225414954E+02  0.61218637631E+02 -0.38749233818E+03  0.39575943161E+03  0.00000000000E+00 0.  1.
         22    1    3    3    0    0  0.31300461810E+02  0.11746879550E+02 -0.91719784634E+01  0.34667467135E+02  0.00000000000E+00 0.  1.
</event>
<event>
 7    1  0.6262315E-006  0.8239695E+02  0.7818608E-02  0.1433903E+00
          2   -1    0    0  502    0  0.00000000000E+00  0.00000000000E+00  0.20322702754E+03  0.20322702754E+03  0.00000000000E+00 0. -1.
          1   -1    0    0  501    0 -0.00000000000E+00 -0.00000000000E+00 -0.69120620862E+03  0.69120620862E+03  0.00000000000E+00 0. -1.
         25    2    1    2    0    0 -0.50990311055E+02 -0.66955381695E+01 -0.12545410544E+03  0.18441847971E+03  0.12500640398E+03 0.  0.
          2    1    1    2  501    0 -0.32526359410E+02 -0.58593852520E+01 -0.52545685497E+03  0.52649520690E+03  0.00000000000E+00 0. -1.
          1    1    1    2  502    0  0.83516670465E+02  0.12554923421E+02  0.16293177933E+03  0.18351954954E+03  0.00000000000E+00 0. -1.
         22    1    3    3    0    0  0.30073574061E+02 -0.17998214832E+02 -0.87382566647E+02  0.94149182407E+02  0.00000000000E+00 0. -1.
         22    1    3    3    0    0 -0.81063885117E+02  0.11302676663E+02 -0.38071538789E+02  0.90269297304E+02  0.00000000000E+00 0. -1.
</event>
<event>
 7    1  0.6262315E-006  0.5414305E+02  0.7818608E-02  0.1464151E+00
          2   -1    0    0  502    0  0.00000000000E+00  0.00000000000E+00  0.42348330820E+03  0.42348330820E+03  0.00000000000E+00 0. -1.
          1   -1    0    0  501    0 -0.00000000000E+00 -0.00000000000E+00 -0.23448885486E+04  0.23448885486E+04  0.00000000000E+00 0. -1.
         25    2    1    2    0    0  0.30116436372E+02 -0.22688067966E+01  0.97875375207E+02  0.16161075265E+03  0.12500519619E+03 0.  0.
          2    1    1    2  501    0 -0.39852593976E+02 -0.36771567656E+02 -0.23113234998E+04  0.23119594932E+04  0.00000000000E+00 0. -1.
          1    1    1    2  502    0  0.97361576034E+01  0.39040374453E+02  0.29204288421E+03  0.29480161095E+03  0.00000000000E+00 0. -1.
         22    1    3    3    0    0  0.49518300256E+02  0.21880882147E+02 -0.48137748014E+01  0.54350781886E+02  0.00000000000E+00 0. -1.
         22    1    3    3    0    0 -0.19401863883E+02 -0.24149688944E+02  0.10268915001E+03  0.10725997076E+03  0.00000000000E+00 0. -1.
</event>
<event>
 7    1  0.6262315E-006  0.7095262E+02  0.7818608E-02  0.1435309E+00
          2   -1    0    0  502    0  0.00000000000E+00  0.00000000000E+00  0.16392993645E+04  0.16392993645E+04  0.00000000000E+00 0. -1.
          1   -1    0    0  501    0 -0.00000000000E+00 -0.00000000000E+00 -0.53000723382E+02  0.53000723382E+02  0.00000000000E+00 0. -1.
         25    2    1    2    0    0 -0.43541691553E+02 -0.53784151474E+01  0.27518907942E+03  0.30541608869E+03  0.12500060618E+03 0.  0.
          2    1    1    2  501    0 -0.18415176011E+02 -0.33213054014E+02 -0.27119490138E+02  0.46665752000E+02  0.00000000000E+00 0. -1.
          1    1    1    2  502    0  0.61956867564E+02  0.38591469161E+02  0.13382290518E+04  0.13402182472E+04  0.00000000000E+00 0. -1.
         22    1    3    3    0    0 -0.59340289967E+02 -0.37217625026E+02  0.77115772062E+02  0.10417899945E+03  0.00000000000E+00 0. -1.
         22    1    3    3    0    0  0.15798598414E+02  0.31839209879E+02  0.19807330736E+03  0.20123708924E+03  0.00000000000E+00 0. -1.
</event>
<event>
 7    1  0.6262315E-006  0.4437325E+02  0.7818608E-02  0.1502739E+00
          2   -1    0    0  502    0  0.00000000000E+00  0.00000000000E+00  0.10798037268E+03  0.10798037268E+03  0.00000000000E+00 0. -1.
          1   -1    0    0  501    0 -0.00000000000E+00 -0.00000000000E+00 -0.82187953761E+03  0.82187953761E+03  0.00000000000E+00 0. -1.
         25    2    1    2    0    0 -0.55746763180E+01  0.34142680904E+02 -0.45593268620E+03  0.47402272547E+03  0.12500452089E+03 0.  0.
          2    1    1    2  501    0 -0.34507840466E+02 -0.14496239741E+02 -0.35082006850E+03  0.35281107194E+03  0.00000000000E+00 0. -1.
          1    1    1    2  502    0  0.40082516784E+02 -0.19646441163E+02  0.92853589775E+02  0.10302611288E+03  0.00000000000E+00 0. -1.
         22    1    3    3    0    0 -0.32362226065E+01 -0.14474676899E+02  0.65644588832E+00  0.14846559511E+02  0.00000000000E+00 0. -1.
         22    1    3    3    0    0 -0.23384537114E+01  0.48617357804E+02 -0.45658913209E+03  0.45917616596E+03  0.00000000000E+00 0. -1.
</event>
<event>
 7    1  0.6262315E-006  0.7146465E+02  0.7818608E-02  0.1366787E+00
          2   -1    0    0  502    0  0.00000000000E+00  0.00000000000E+00  0.13814603038E+04  0.13814603038E+04  0.00000000000E+00 0. -1.
          1   -1    0    0  501    0 -0.00000000000E+00 -0.00000000000E+00 -0.85954997446E+03  0.85954997446E+03  0.00000000000E+00 0. -1.
         25    2    1    2    0    0  0.17519073511E+01 -0.12078435573E+03  0.35691113950E+03  0.39699044500E+03  0.12499568855E+03 0.  0.
          2    1    1    2  501    0 -0.29781187895E+02  0.57588839441E+02 -0.83706585301E+03  0.83957288895E+03  0.00000000000E+00 0. -1.
          1    1    1    2  502    0  0.28029280544E+02  0.63195516286E+02  0.10020650429E+04  0.10044469443E+04  0.00000000000E+00 0. -1.
         22    1    3    3    0    0  0.23659695103E+02 -0.10763335991E+03  0.13804807403E+03  0.17664085620E+03  0.00000000000E+00 0.  1.
         22    1    3    3    0    0 -0.21907787751E+02 -0.13150995816E+02  0.21886306547E+03  0.22034958880E+03  0.00000000000E+00 0.  1.
</event>
<event>
 7    1  0.6262315E-006  0.6925871E+02  0.7818608E-02  0.1379138E+00
          2   -1    0    0  502    0  0.00000000000E+00  0.00000000000E+00  0.79376893771E+03  0.79376893771E+03  0.00000000000E+00 0. -1.
          1   -1    0    0  501    0 -0.00000000000E+00 -0.00000000000E+00 -0.23863232433E+03  0.23863232433E+03  0.00000000000E+00 0. -1.
         25    2    1    2    0    0  0.40664733733E+01 -0.80680963585E+02 -0.12483285750E+02  0.14935592673E+03  0.12500162533E+03 0.  0.
          2    1    1    2  501    0 -0.52175971653E+02  0.30475330933E+02 -0.15018278476E+03  0.16188250879E+03  0.00000000000E+00 0. -1.
          1    1    1    2  502    0  0.48109498280E+02  0.50205632652E+02  0.71780268389E+03  0.72116282653E+03  0.00000000000E+00 0. -1.
         22    1    3    3    0    0 -0.26808635299E+02 -0.28980824845E+02 -0.60565913189E+02  0.72296756329E+02  0.00000000000E+00 0.  1.
         22    1    3    3    0    0  0.30875108672E+02 -0.51700138739E+02  0.48082627439E+02  0.77059170399E+02  0.00000000000E+00 0.  1.
</event>
<event>
 7    1  0.6262315E-006  0.8690365E+02  0.7818608E-02  0.1359871E+00
          2   -1    0    0  502    0  0.00000000000E+00  0.00000000000E+00  0.32419149934E+04  0.32419149934E+04  0.00000000000E+00 0. -1.
          1   -1    0    0  501    0 -0.00000000000E+00 -0.00000000000E+00 -0.16760227492E+02  0.16760227492E+02  0.00000000000E+00 0. -1.
         25    2    1    2    0    0  0.97689531062E+02 -0.82969584638E+00  0.11151400165E+04  0.11263686743E+04  0.12500080432E+03 0.  0.
          2    1    1    2  501    0 -0.72211591420E+02 -0.49588306651E+02  0.16796472336E+03  0.18943511392E+03  0.00000000000E+00 0. -1.
          1    1    1    2  502    0 -0.25477939642E+02  0.50418002498E+02  0.19420500260E+04  0.19428714327E+04  0.00000000000E+00 0. -1.
         22    1    3    3    0    0 -0.60635740040E+01 -0.45301105515E+02  0.30748489340E+03  0.31086318013E+03  0.00000000000E+00 0. -1.
         22    1    3    3    0    0  0.10375310507E+03  0.44471409669E+02  0.80765512313E+03  0.81550549417E+03  0.00000000000E+00 0. -1.
</event>
<event>
 7    1  0.6262315E-006  0.1277366E+03  0.7818608E-02  0.1404606E+00
          2   -1    0    0  502    0  0.00000000000E+00  0.00000000000E+00  0.67027694852E+03  0.67027694852E+03  0.00000000000E+00 0. -1.
          1   -1    0    0  501    0 -0.00000000000E+00 -0.00000000000E+00 -0.38528625154E+03  0.38528625154E+03  0.00000000000E+00 0. -1.
         25    2    1    2    0    0  0.14768819661E+03  0.21195841073E+02  0.15306608440E+03  0.24761717744E+03  0.12499589302E+03 0.  0.
          2    1    1    2  501    0 -0.12272625832E+03 -0.30710056612E+02 -0.32577006570E+03  0.34947242776E+03  0.00000000000E+00 0. -1.
          1    1    1    2  502    0 -0.24961938293E+02  0.95142155391E+01  0.45769467828E+03  0.45847359486E+03  0.00000000000E+00 0. -1.
         22    1    3    3    0    0  0.14123224526E+03  0.60770885406E+02  0.11198972673E+03  0.19021394930E+03  0.00000000000E+00 0.  1.
         22    1    3    3    0    0  0.64559513536E+01 -0.39575044332E+02  0.41076357677E+02  0.57403228148E+02  0.00000000000E+00 0.  1.
</event>
<event>
 7    1  0.6262315E-006  0.4285545E+02  0.7818608E-02  0.1500833E+00
          2   -1    0    0  502    0  0.00000000000E+00  0.00000000000E+00  0.48078227518E+03  0.48078227518E+03  0.00000000000E+00 0. -1.
          1   -1    0    0  501    0 -0.00000000000E+00 -0.00000000000E+00 -0.21214579371E+03  0.21214579371E+03  0.00000000000E+00 0. -1.
         25    2    1    2    0    0  0.37860492033E+02  0.20457833294E+02  0.42203503151E+02  0.13876647663E+03  0.12499223799E+03 0.  0.
          2    1    1    2  501    0  0.11364811437E+01 -0.39247724811E+02 -0.16028719817E+03  0.16502624455E+03  0.00000000000E+00 0. -1.
          1    1    1    2  502    0 -0.38996973177E+02  0.18789891517E+02  0.38672017649E+03  0.38913534772E+03  0.00000000000E+00 0. -1.
         22    1    3    3    0    0  0.10189129175E+02  0.21408925825E+02 -0.43040282299E+02  0.49138847755E+02  0.00000000000E+00 0.  1.
         22    1    3    3    0    0  0.27671362858E+02 -0.95109253165E+00  0.85243785450E+02  0.89627628872E+02  0.00000000000E+00 0.  1.
</event>
<event>
 7    1  0.6262315E-006  0.4890581E+02  0.7818608E-02  0.1514549E+00
          2   -1    0    0  502    0  0.00000000000E+00  0.00000000000E+00  0.21750035762E+03  0.21750035762E+03  0.00000000000E+00 0. -1.
          1   -1    0    0  501    0 -0.00000000000E+00 -0.00000000000E+00 -0.11712421099E+04  0.11712421099E+04  0.00000000000E+00 0. -1.
         25    2    1    2    0    0  0.60535752975E+02  0.49307227285E+01 -0.16119766443E+03  0.21283371798E+03  0.12499846030E+03 0.  0.
          2    1    1    2  501    0 -0.16713505829E+02 -0.26514885902E+02 -0.98085975943E+03  0.98136040685E+03  0.00000000000E+00 0. -1.
          1    1    1    2  502    0 -0.43822247146E+02  0.21584163173E+02  0.18831567163E+03  0.19454834264E+03  0.00000000000E+00 0. -1.
         22    1    3    3    0    0  0.75868101267E+02 -0.14477333918E+01 -0.31636615032E+02  0.82212773536E+02  0.00000000000E+00 0. -1.
         22    1    3    3    0    0 -0.15332348293E+02  0.63784561203E+01 -0.12956104940E+03  0.13062094445E+03  0.00000000000E+00 0. -1.
</event>
<event>
 7    1  0.6262315E-006  0.1644824E+03  0.7818608E-02  0.1399865E+00
          2   -1    0    0  502    0  0.00000000000E+00  0.00000000000E+00  0.21759234640E+04  0.21759234640E+04  0.00000000000E+00 0. -1.
          1   -1    0    0  501    0 -0.00000000000E+00 -0.00000000000E+00 -0.81876353222E+02  0.81876353222E+02  0.00000000000E+00 0. -1.
         25    2    1    2    0    0 -0.16785745928E+03  0.77203279094E+02  0.17464717878E+04  0.17606605862E+04  0.12500208608E+03 0.  0.
          2    1    1    2  501    0  0.14968265843E+03 -0.65648695338E+02  0.15293407673E+02  0.16416009793E+03  0.00000000000E+00 0. -1.
          1    1    1    2  502    0  0.18174800850E+02 -0.11554583757E+02  0.33228191538E+03  0.33297913310E+03  0.00000000000E+00 0. -1.
         22    1    3    3    0    0 -0.18032263254E+03  0.55391404174E+02  0.13153880191E+04  0.13288454012E+04  0.00000000000E+00 0.  1.
         22    1    3    3    0    0  0.12465173261E+02  0.21811874920E+02  0.43108376869E+03  0.43181518507E+03  0.00000000000E+00 0.  1.
</event>
<event>
 7    1  0.6262315E-006  0.1463852E+03  0.7818608E-02  0.1230758E+00
          2   -1    0    0  502    0  0.00000000000E+00  0.00000000000E+00  0.64898569463E+03  0.64898569463E+03  0.00000000000E+00 0. -1.
          1   -1    0    0  501    0 -0.00000000000E+00 -0.00000000000E+00 -0.46029566712E+03  0.46029566712E+03  0.00000000000E+00 0. -1.
         25    2    1    2    0    0 -0.10935150011E-01  0.13147412971E+03 -0.10175215203E+03  0.20799925106E+03  0.12499896438E+03 0.  0.
          2    1    1    2  501    0  0.11104859606E+03 -0.12055625304E+03 -0.27760462892E+03  0.32238165399E+03  0.00000000000E+00 0. -1.
          1    1    1    2  502    0 -0.11103766091E+03 -0.10917876671E+02  0.56804680846E+03  0.57890045670E+03  0.00000000000E+00 0. -1.
         22    1    3    3    0    0  0.46450439470E+02  0.90264559643E+02 -0.17000086724E+02  0.10292879579E+03  0.00000000000E+00 0.  1.
         22    1    3    3    0    0 -0.46461374620E+02  0.41209570070E+02 -0.84752065301E+02  0.10507045527E+03  0.00000000000E+00 0.  1.
</event>
<event>
 7    1  0.6262315E-006  0.9462684E+02  0.7818608E-02  0.1301062E+00
          2   -1    0    0  502    0  0.00000000000E+00  0.00000000000E+00  0.26928494180E+04  0.26928494180E+04  0.00000000000E+00 0. -1.
          1   -1    0    0  501    0 -0.00000000000E+00 -0.00000000000E+00 -0.12805452817E+03  0.12805452817E+03  0.00000000000E+00 0. -1.
         25    2    1    2    0    0 -0.96709730732E+02  0.18673172495E+02  0.32659975402E+02  0.16245947200E+03  0.12499978663E+03 0.  0.
          2    1    1    2  501    0  0.34243674544E+02 -0.89752217136E+02 -0.25236841125E+02  0.99322645339E+02  0.00000000000E+00 0. -1.
          1    1    1    2  502    0  0.62466056188E+02  0.71079044641E+02  0.25573717555E+04  0.25591218288E+04  0.00000000000E+00 0. -1.
         22    1    3    3    0    0 -0.46166462744E+02 -0.52238341615E+02  0.75856999808E+00  0.69719165553E+02  0.00000000000E+00 0. -1.
         22    1    3    3    0    0 -0.50543267988E+02  0.70911514110E+02  0.31901405404E+02  0.92740306443E+02  0.00000000000E+00 0. -1.
</event>
<event>
 7    1  0.6262315E-006  0.5527441E+02  0.7818608E-02  0.1434090E+00
          2   -1    0    0  502    0  0.00000000000E+00  0.00000000000E+00  0.12475795510E+04  0.12475795510E+04  0.00000000000E+00 0. -1.
          1   -1    0    0  501    0 -0.00000000000E+00 -0.00000000000E+00 -0.65656568386E+03  0.65656568386E+03  0.00000000000E+00 0. -1.
         25    2    1    2    0    0 -0.17248996099E+02  0.45069304513E+02 -0.11506508699E+03  0.17661728946E+03  0.12499969046E+03 0.  0.
          2    1    1    2  501    0 -0.36751141672E+02 -0.32707323303E+02 -0.50890710806E+03  0.51127962999E+03  0.00000000000E+00 0. -1.
          1    1    1    2  502    0  0.54000137771E+02 -0.12361981209E+02  0.12149860622E+04  0.12162483154E+04  0.00000000000E+00 0. -1.
         22    1    3    3    0    0 -0.46054932613E+02  0.16105222380E+02  0.57083409712E+01  0.49122501591E+02  0.00000000000E+00 0.  1.
         22    1    3    3    0    0  0.28805936514E+02  0.28964082132E+02 -0.12077342796E+03  0.12749478787E+03  0.00000000000E+00 0.  1.
</event>
<event>
 7    1  0.6262315E-006  0.8425019E+02  0.7818608E-02  0.1333239E+00
          2   -1    0    0  502    0  0.00000000000E+00  0.00000000000E+00  0.26661410983E+03  0.26661410983E+03  0.00000000000E+00 0. -1.
          1   -1    0    0  501    0 -0.00000000000E+00 -0.00000000000E+00 -0.23611600507E+03  0.23611600507E+03  0.00000000000E+00 0. -1.
         25    2    1    2    0    0 -0.14908202100E+02 -0.26287535806E+02  0.23181441242E+02  0.13067522308E+03  0.12500138271E+03 0.  0.
          2    1    1    2  501    0 -0.67206781215E+02  0.50806926337E+02 -0.16182458421E+03  0.18244256976E+03  0.00000000000E+00 0. -1.
          1    1    1    2  502    0  0.82114983315E+02 -0.24519390530E+02  0.16914124773E+03  0.18961232207E+03  0.00000000000E+00 0. -1.
         22    1    3    3    0    0 -0.14227922424E+02 -0.62116698817E+02  0.53909319735E+02  0.83469352476E+02  0.00000000000E+00 0. -1.
         22    1    3    3    0    0 -0.68027967594E+00  0.35829163010E+02 -0.30727878493E+02  0.47205870600E+02  0.00000000000E+00 0. -1.
</event>
<event>
 7    1  0.6262315E-006  0.1156748E+03  0.7818608E-02  0.1303151E+00
          2   -1    0    0  502    0  0.00000000000E+00  0.00000000000E+00  0.37124613152E+03  0.37124613152E+03  0.00000000000E+00 0. -1.
          1   -1    0    0  501    0 -0.00000000000E+00 -0.00000000000E+00 -0.87679943380E+03  0.87679943380E+03  0.00000000000E+00 0. -1.
         25    2    1    2    0    0  0.23631343462E+02 -0.93742210119E+02 -0.10032666071E+03  0.18717991332E+03  0.12499935499E+03 0.  0.
          2    1    1    2  501    0 -0.67960069746E+02 -0.16060028423E+02 -0.72060991077E+03  0.72398559316E+03  0.00000000000E+00 0. -1.
          1    1    1    2  502    0  0.44328726284E+02  0.10980223854E+03  0.31538326920E+03  0.33688005886E+03  0.00000000000E+00 0. -1.
         22    1    3    3    0    0  0.93785055916E+01 -0.11535253598E+03 -0.10987988019E+03  0.15958618987E+03  0.00000000000E+00 0.  1.
         22    1    3    3    0    0  0.14252837871E+02  0.21610325863E+02  0.95532194878E+01  0.27593723450E+02  0.00000000000E+00 0.  1.
</event>
<event>
 7    1  0.6262315E-006  0.2013520E+03  0.7818608E-02  0.1266692E+00
          2   -1    0    0  502    0  0.00000000000E+00  0.00000000000E+00  0.18235941691E+04  0.18235941691E+04  0.00000000000E+00 0. -1.
          1   -1    0    0  501    0 -0.00000000000E+00 -0.00000000000E+00 -0.23296977530E+03  0.23296977530E+03  0.00000000000E+00 0. -1.
         25    2    1    2    0    0  0.19836878105E+03 -0.84050368124E+02  0.16909885569E+03  0.30105616147E+03  0.12500300670E+03 0.  0.
          2    1    1    2  501    0 -0.15700125927E+03  0.12268723146E+03 -0.10684351546E+03  0.22609088653E+03  0.00000000000E+00 0. -1.
          1    1    1    2  502    0 -0.41367521780E+02 -0.38636863336E+02  0.15283690535E+04  0.15294168964E+04  0.00000000000E+00 0. -1.
         22    1    3    3    0    0  0.14532042127E+03  0.49433001276E+01  0.95226851924E+02  0.17381200874E+03  0.00000000000E+00 0.  1.
         22    1    3    3    0    0  0.53048359789E+02 -0.88993668251E+02  0.73872003761E+02  0.12724415273E+03  0.00000000000E+00 0.  1.
</event>
<event>
 7    1  0.6262315E-006  0.1142067E+03  0.7818608E-02  0.1358951E+00
          2   -1    0    0  502    0  0.00000000000E+00  0.00000000000E+00  0.11078740381E+03  0.11078740381E+03  0.00000000000E+00 0. -1.
          1   -1    0    0  501    0 -0.00000000000E+00 -0.00000000000E+00 -0.46263639915E+03  0.46263639915E+03  0.00000000000E+00 0. -1.
         25    2    1    2    0    0  0.70532807727E+02  0.37097212229E+02 -0.10932810084E+02  0.14864371313E+03  0.12499738795E+03 0.  0.
          2    1    1    2  501    0 -0.93697996116E+02 -0.73701726655E+02 -0.35867160848E+03  0.37796373069E+03  0.00000000000E+00 0. -1.
          1    1    1    2  502    0  0.23165188389E+02  0.36604514426E+02  0.17755423223E+02  0.46816359142E+02  0.00000000000E+00 0. -1.
         22    1    3    3    0    0  0.90139231102E+01 -0.31594419067E+02 -0.40181496296E+02  0.51903860845E+02  0.00000000000E+00 0.  1.
         22    1    3    3    0    0  0.61518884617E+02  0.68691631296E+02  0.29248686212E+02  0.96739852283E+02  0.00000000000E+00 0.  1.
</event>
<event>
 7    1  0.6262315E-006  0.1848818E+03  0.7818608E-02  0.1225503E+00
          2   -1    0    0  502    0  0.00000000000E+00  0.00000000000E+00  0.29885801297E+04  0.29885801297E+04  0.00000000000E+00 0. -1.
          1   -1    0    0  501    0 -0.00000000000E+00 -0.00000000000E+00 -0.40651397092E+03  0.40651397092E+03  0.00000000000E+00 0. -1.
         25    2    1    2    0    0  0.21848844647E+03 -0.12464062305E+03  0.98586836475E+03  0.10251018638E+04  0.12499964956E+03 0.  0.
          2    1    1    2  501    0 -0.51907965630E+02  0.77505800734E+02 -0.37742980853E+03  0.38878637632E+03  0.00000000000E+00 0. -1.
          1    1    1    2  502    0 -0.16658048084E+03  0.47134822318E+02  0.19736276025E+04  0.19812058605E+04  0.00000000000E+00 0. -1.
         22    1    3    3    0    0  0.22746512650E+02 -0.25274321990E+02  0.36477615885E+03  0.36635753200E+03  0.00000000000E+00 0. -1.
         22    1    3    3    0    0  0.19574193382E+03 -0.99366301061E+02  0.62109220590E+03  0.65874433180E+03  0.00000000000E+00 0. -1.
</event>
<event>
 7    1  0.6262315E-006  0.6661477E+02  0.7818608E-02  0.1379662E+00
          2   -1    0    0  502    0  0.00000000000E+00  0.00000000000E+00  0.11569611659E+04  0.11569611659E+04  0.00000000000E+00 0. -1.
          1   -1    0    0  501    0 -0.00000000000E+00 -0.00000000000E+00 -0.21376308690E+03  0.21376308690E+03  0.00000000000E+00 0. -1.
         25    2    1    2    0    0 -0.25142685371E+00  0.33981623288E+02  0.35249553655E+03  0.37554320820E+03  0.12499913599E+03 0.  0.
          2    1    1    2  501    0 -0.61889030496E+02 -0.26798810667E+02 -0.19533933682E+03  0.20665402212E+03  0.00000000000E+00 0. -1.
          1    1    1    2  502    0  0.62140457350E+02 -0.71828126203E+01  0.78604187931E+03  0.78852702254E+03  0.00000000000E+00 0. -1.
         22    1    3    3    0    0  0.90260813087E+01  0.80889365426E+02  0.23471763738E+03  0.24842892119E+03  0.00000000000E+00 0. -1.
         22    1    3    3    0    0 -0.92775081624E+01 -0.46907742138E+02  0.11777789917E+03  0.12711428701E+03  0.00000000000E+00 0. -1.
</event>
<event>
 7    1  0.6262315E-006  0.1168553E+03  0.7818608E-02  0.1362539E+00
          2   -1    0    0  502    0  0.00000000000E+00  0.00000000000E+00  0.86829031942E+03  0.86829031942E+03  0.00000000000E+00 0. -1.
          1   -1    0    0  501    0 -0.00000000000E+00 -0.00000000000E+00 -0.19286737069E+04  0.19286737069E+04  0.00000000000E+00 0. -1.
         25    2    1    2    0    0  0.15458902867E+03 -0.10965727582E+02  0.23520033414E+02  0.20049081278E+03  0.12500143627E+03 0.  0.
          2    1    1    2  501    0 -0.40746187912E+02 -0.52328364690E+01 -0.18355862668E+04  0.18360459083E+04  0.00000000000E+00 0. -1.
          1    1    1    2  502    0 -0.11384284076E+03  0.16198564051E+02  0.75168284587E+03  0.76042730530E+03  0.00000000000E+00 0. -1.
         22    1    3    3    0    0  0.14252609036E+03 -0.27979495204E+02  0.61049867755E+02  0.15755514887E+03  0.00000000000E+00 0. -1.
         22    1    3    3    0    0  0.12062938319E+02  0.17013767622E+02 -0.37529834341E+02  0.42935663909E+02  0.00000000000E+00 0. -1.
</event>
<event>
 7    1  0.6262315E-006  0.5555970E+02  0.7818608E-02  0.1419966E+00
          2   -1    0    0  502    0  0.00000000000E+00  0.00000000000E+00  0.14667294014E+04  0.14667294014E+04  0.00000000000E+00 0. -1.
          1   -1    0    0  501    0 -0.00000000000E+00 -0.00000000000E+00 -0.80453260404E+03  0.80453260404E+03  0.00000000000E+00 0. -1.
         25    2    1    2    0    0  0.29322648953E+02 -0.20206865555E+02  0.18014877251E+03  0.22214009439E+03  0.12499802455E+03 0.  0.
          2    1    1    2  501    0 -0.41525536901E+02 -0.35299403855E+02 -0.78194991566E+03  0.78384698043E+03  0.00000000000E+00 0. -1.
          1    1    1    2  502    0  0.12202887947E+02  0.55506269410E+02  0.12639979405E+04  0.12652749306E+04  0.00000000000E+00 0. -1.
         22    1    3    3    0    0 -0.74872791697E+01  0.48603204530E+02  0.92689182907E+02  0.10492671475E+03  0.00000000000E+00 0. -1.
         22    1    3    3    0    0  0.36809928123E+02 -0.68810070085E+02  0.87459589599E+02  0.11721337964E+03  0.00000000000E+00 0. -1.
</event>
<event>
 7    1  0.6262315E-006  0.9154393E+02  0.7818608E-02  0.1432186E+00
          2   -1    0    0  502    0  0.00000000000E+00  0.00000000000E+00  0.25779283874E+03  0.25779283874E+03  0.00000000000E+00 0. -1.
          1   -1    0    0  501    0 -0.00000000000E+00 -0.00000000000E+00 -0.57676582300E+03  0.57676582300E+03  0.00000000000E+00 0. -1.
         25    2    1    2    0    0  0.61911598598E+02 -0.42459398221E+01  0.15123706787E+03  0.20578747598E+03  0.12499904211E+03 0.  0.
          2    1    1    2  501    0 -0.92019512212E+02  0.55404592329E+01 -0.54259143902E+03  0.55036692943E+03  0.00000000000E+00 0. -1.
          1    1    1    2  502    0  0.30107913614E+02 -0.12945194108E+01  0.72381386883E+02  0.78404256325E+02  0.00000000000E+00 0. -1.
         22    1    3    3    0    0  0.85262989207E+02  0.32090270307E+02  0.12688478013E+03  0.15620278552E+03  0.00000000000E+00 0.  1.
         22    1    3    3    0    0 -0.23351390609E+02 -0.36336210129E+02  0.24352287747E+02  0.49584690464E+02  0.00000000000E+00 0.  1.
</event>
<event>
 7    1  0.6262315E-006  0.1454055E+03  0.7818608E-02  0.1226636E+00
          2   -1    0    0  502    0  0.00000000000E+00  0.00000000000E+00  0.10619994835E+04  0.10619994835E+04  0.00000000000E+00 0. -1.
          1   -1    0    0  501    0 -0.00000000000E+00 -0.00000000000E+00 -0.67361224708E+03  0.67361224708E+03  0.00000000000E+00 0. -1.
         25    2    1    2    0    0 -0.97484473275E+02  0.12567807874E+03 -0.21401693886E+03  0.29449421675E+03  0.12500156630E+03 0.  0.
          2    1    1    2  501    0 -0.47408991402E+02 -0.10720461216E+03 -0.40579820024E+03  0.42238918151E+03  0.00000000000E+00 0. -1.
          1    1    1    2  502    0  0.14489346468E+03 -0.18473466580E+02  0.10082023755E+04  0.10187283323E+04  0.00000000000E+00 0. -1.
         22    1    3    3    0    0 -0.98121586113E+02  0.10226764743E+03 -0.22707969897E+03  0.26767836494E+03  0.00000000000E+00 0.  1.
         22    1    3    3    0    0  0.63711283811E+00  0.23410431302E+02  0.13062760113E+02  0.26815851810E+02  0.00000000000E+00 0.  1.
</event>
<event>
 7    1  0.8537271E-006  0.1552045E+03  0.7818608E-02  0.1347665E+00
          2   -1    0    0  502    0  0.00000000000E+00  0.00000000000E+00  0.12377062486E+04  0.12377062486E+04  0.00000000000E+00 0. -1.
          1   -1    0    0  501    0 -0.00000000000E+00 -0.00000000000E+00 -0.15444010659E+04  0.15444010659E+04  0.00000000000E+00 0. -1.
         25    2    1    2    0    0  0.92533035499E+01 -0.16879921132E+03 -0.29960850571E+03  0.36601584021E+03  0.12499416475E+03 0.  0.
          2    1    1    2  501    0  0.29669824501E+02  0.18718303276E+02 -0.12063433844E+04  0.12068533607E+04  0.00000000000E+00 0. -1.
          1    1    1    2  502    0 -0.38923128051E+02  0.15008090805E+03  0.11992570728E+04  0.12092381136E+04  0.00000000000E+00 0. -1.
         22    1    3    3    0    0  0.35603964630E+02  0.12214527632E+01 -0.32086931687E+02  0.47944816501E+02  0.00000000000E+00 0.  1.
         22    1    3    3    0    0 -0.26350661080E+02 -0.17002066409E+03 -0.26752157402E+03  0.31807102371E+03  0.00000000000E+00 0.  1.
</event>
<event>
 7    1  0.6262315E-006  0.1609675E+03  0.7818608E-02  0.1269088E+00
          2   -1    0    0  502    0  0.00000000000E+00  0.00000000000E+00  0.10912164590E+04  0.10912164590E+04  0.00000000000E+00 0. -1.
          1   -1    0    0  501    0 -0.00000000000E+00 -0.00000000000E+00 -0.63938785490E+03  0.63938785490E+03  0.00000000000E+00 0. -1.
         25    2    1    2    0    0  0.59814798562E+02 -0.19044311526E+03 -0.15452940149E+03  0.28169311499E+03  0.12500113931E+03 0.  0.
          2    1    1    2  501    0 -0.87122239444E+02  0.12688147324E+03 -0.40599864876E+03  0.43419361540E+03  0.00000000000E+00 0. -1.
          1    1    1    2  502    0  0.27307440882E+02  0.63561642027E+02  0.10123566543E+04  0.10147175835E+04  0.00000000000E+00 0. -1.
         22    1    3    3    0    0  0.51475686138E+02 -0.15228507785E+03 -0.17497547593E+03  0.23760662528E+03  0.00000000000E+00 0. -1.
         22    1    3    3    0    0  0.83391124238E+01 -0.38158037414E+02  0.20446074436E+02  0.44086489712E+02  0.00000000000E+00 0. -1.
</event>
<event>
 7    1  0.6262315E-006  0.3480536E+02  0.7818608E-02  0.1552334E+00
          2   -1    0    0  502    0  0.00000000000E+00  0.00000000000E+00  0.33652140861E+02  0.33652140861E+02  0.00000000000E+00 0. -1.
          1   -1    0    0  501    0 -0.00000000000E+00 -0.00000000000E+00 -0.30661538258E+03  0.30661538258E+03  0.00000000000E+00 0. -1.
         25    2    1    2    0    0  0.39200721278E+01  0.33587518839E+02 -0.18849300279E+03  0.22868854361E+03  0.12500139794E+03 0.  0.
          2    1    1    2  501    0  0.30311832893E+02 -0.16185302598E+02 -0.36474164683E+02  0.50111235495E+02  0.00000000000E+00 0. -1.
          1    1    1    2  502    0 -0.34231905020E+02 -0.17402216240E+02 -0.47996074250E+02  0.61467744345E+02  0.00000000000E+00 0. -1.
         22    1    3    3    0    0  0.27302183165E+02  0.75882472135E+02 -0.12760391807E+03  0.15095137856E+03  0.00000000000E+00 0. -1.
         22    1    3    3    0    0 -0.23382111038E+02 -0.42294953296E+02 -0.60889084723E+02  0.77737165046E+02  0.00000000000E+00 0. -1.
</event>
<event>
 7    1  0.6262315E-006  0.1203071E+03  0.7818608E-02  0.1260617E+00
          2   -1    0    0  502    0  0.00000000000E+00  0.00000000000E+00  0.70040346766E+03  0.70040346766E+03  0.00000000000E+00 0. -1.
          1   -1    0    0  501    0 -0.00000000000E+00 -0.00000000000E+00 -0.24015253755E+03  0.24015253755E+03  0.00000000000E+00 0. -1.
         25    2    1    2    0    0  0.40283822627E+02 -0.16876593610E+03  0.61491362951E+02  0.22251823123E+03  0.12501379107E+03 0.  0.
          2    1    1    2  501    0 -0.81992410871E+02  0.58167856630E+02 -0.13670092308E+03  0.16968617315E+03  0.00000000000E+00 0. -1.
          1    1    1    2  502    0  0.41708588245E+02  0.11059807947E+03  0.53546049025E+03  0.54835160083E+03  0.00000000000E+00 0. -1.
         22    1    3    3    0    0 -0.10376368440E+02 -0.38443514538E+02 -0.34688571189E+02  0.52809751024E+02  0.00000000000E+00 0.  1.
         22    1    3    3    0    0  0.50660191067E+02 -0.13032242156E+03  0.96179934140E+02  0.16970848020E+03  0.00000000000E+00 0.  1.
</event>
<event>
 7    1  0.6262315E-006  0.1047197E+03  0.7818608E-02  0.1299890E+00
          2   -1    0    0  502    0  0.00000000000E+00  0.00000000000E+00  0.20992448461E+04  0.20992448461E+04  0.00000000000E+00 0. -1.
          1   -1    0    0  501    0 -0.00000000000E+00 -0.00000000000E+00 -0.35584375459E+03  0.35584375459E+03  0.00000000000E+00 0. -1.
         25    2    1    2    0    0 -0.68222763201E+02  0.77176344129E+02  0.31402717159E+03  0.35333274775E+03  0.12498172915E+03 0.  0.
          2    1    1    2  501    0  0.10526829404E+03 -0.68512619793E+01 -0.32699462362E+03  0.34358963517E+03  0.00000000000E+00 0. -1.
          1    1    1    2  502    0 -0.37045530842E+02 -0.70325082150E+02  0.17563685435E+04  0.17581662178E+04  0.00000000000E+00 0. -1.
         22    1    3    3    0    0 -0.19032837936E+02  0.51879657431E+02  0.28606436317E+03  0.29135299492E+03  0.00000000000E+00 0.  1.
         22    1    3    3    0    0 -0.49189925265E+02  0.25296686699E+02  0.27962808422E+02  0.61979752826E+02  0.00000000000E+00 0.  1.
</event>
<event>
 7    1  0.6262315E-006  0.4222268E+02  0.7818608E-02  0.1506453E+00
          2   -1    0    0  502    0  0.00000000000E+00  0.00000000000E+00  0.31966202353E+03  0.31966202353E+03  0.00000000000E+00 0. -1.
          1   -1    0    0  501    0 -0.00000000000E+00 -0.00000000000E+00 -0.94313467068E+02  0.94313467068E+02  0.00000000000E+00 0. -1.
         25    2    1    2    0    0  0.38977723364E+02 -0.49433903770E+02  0.65568501864E+02  0.15455524622E+03  0.12500048775E+03 0.  0.
          2    1    1    2  501    0 -0.39913047410E+02  0.11094872244E+02 -0.39047132024E+02  0.56928253644E+02  0.00000000000E+00 0. -1.
          1    1    1    2  502    0  0.93532404538E+00  0.38339031525E+02  0.19882718662E+03  0.20249199073E+03  0.00000000000E+00 0. -1.
         22    1    3    3    0    0 -0.35110325985E+02  0.17012617878E+02  0.28666304928E+02  0.48414059901E+02  0.00000000000E+00 0.  1.
         22    1    3    3    0    0  0.74088049349E+02 -0.66446521648E+02  0.36902196935E+02  0.10614118632E+03  0.00000000000E+00 0.  1.
</event>
<event>
 7    1  0.6262315E-006  0.9044864E+02  0.7818608E-02  0.1472736E+00
          2   -1    0    0  502    0  0.00000000000E+00  0.00000000000E+00  0.88507746631E+02  0.88507746631E+02  0.00000000000E+00 0. -1.
          1   -1    0    0  501    0 -0.00000000000E+00 -0.00000000000E+00 -0.14476025606E+04  0.14476025606E+04  0.00000000000E+00 0. -1.
         25    2    1    2    0    0 -0.47603615375E+02  0.95725288674E+02 -0.10966206989E+04  0.11088873533E+04  0.12499907955E+03 0.  0.
          2    1    1    2  501    0  0.20405620765E+02 -0.98210034407E+01 -0.31968620170E+03  0.32048729932E+03  0.00000000000E+00 0. -1.
          1    1    1    2  502    0  0.27197994610E+02 -0.85904285233E+02  0.57212086582E+02  0.10673565470E+03  0.00000000000E+00 0. -1.
         22    1    3    3    0    0 -0.60171191561E+02  0.23358696083E+02 -0.82467854797E+03  0.82720064582E+03  0.00000000000E+00 0. -1.
         22    1    3    3    0    0  0.12567576187E+02  0.72366592591E+02 -0.27194215092E+03  0.28168670743E+03  0.00000000000E+00 0. -1.
</event>
<event>
 7    1  0.6262315E-006  0.1225316E+03  0.7818608E-02  0.1299420E+00
          2   -1    0    0  502    0  0.00000000000E+00  0.00000000000E+00  0.40928933776E+03  0.40928933776E+03  0.00000000000E+00 0. -1.
          1   -1    0    0  501    0 -0.00000000000E+00 -0.00000000000E+00 -0.84411826910E+03  0.84411826910E+03  0.00000000000E+00 0. -1.
         25    2    1    2    0    0 -0.13463911197E+03 -0.81696119891E+02 -0.62583283814E+01  0.20115338790E+03  0.12498628849E+03 0.  0.
          2    1    1    2  501    0  0.15668905894E+02  0.66402605659E+02 -0.72722181127E+03  0.73041521304E+03  0.00000000000E+00 0. -1.
          1    1    1    2  502    0  0.11897020608E+03  0.15293514232E+02  0.29865120831E+03  0.32183900592E+03  0.00000000000E+00 0. -1.
         22    1    3    3    0    0 -0.26651152183E+02 -0.87347695101E+02 -0.15477511048E+02  0.92625358841E+02  0.00000000000E+00 0. -1.
         22    1    3    3    0    0 -0.10798795979E+03  0.56515752100E+01  0.92191826665E+01  0.10852802905E+03  0.00000000000E+00 0. -1.
</event>
<event>
 7    1  0.6262315E-006  0.9028409E+02  0.7818608E-02  0.1314756E+00
          2   -1    0    0  502    0  0.00000000000E+00  0.00000000000E+00  0.52130448719E+03  0.52130448719E+03  0.00000000000E+00 0. -1.
          1   -1    0    0  501    0 -0.00000000000E+00 -0.00000000000E+00 -0.26556824044E+03  0.26556824044E+03  0.00000000000E+00 0. -1.
         25    2    1    2    0    0 -0.13432223335E+02  0.10288456306E+02  0.72203325168E+02  0.14534337968E+03  0.12500040358E+03 0.  0.
          2    1    1    2  501    0  0.73629259933E+02 -0.63756788178E+02 -0.21442489333E+03  0.23550845173E+03  0.00000000000E+00 0. -1.
          1    1    1    2  502    0 -0.60197036598E+02  0.53468331872E+02  0.39795781490E+03  0.40602089622E+03  0.00000000000E+00 0. -1.
         22    1    3    3    0    0  0.34447970393E+02  0.45735973668E+02  0.62882191896E+02  0.85044764737E+02  0.00000000000E+00 0.  1.
         22    1    3    3    0    0 -0.47880193728E+02 -0.35447517362E+02  0.93211332724E+01  0.60298614943E+02  0.00000000000E+00 0.  1.
</event>
<event>
 7    1  0.6262315E-006  0.1141342E+03  0.7818608E-02  0.1302563E+00
          2   -1    0    0  502    0  0.00000000000E+00  0.00000000000E+00  0.45315277750E+03  0.45315277750E+03  0.00000000000E+00 0. -1.
          1   -1    0    0  501    0 -0.00000000000E+00 -0.00000000000E+00 -0.23161697180E+03  0.23161697180E+03  0.00000000000E+00 0. -1.
         25    2    1    2    0    0  0.64354757834E+02  0.78761011415E+02  0.81854445384E+02  0.18074983824E+03  0.12500208805E+03 0.  0.
          2    1    1    2  501    0 -0.53934923078E+01 -0.11859733988E+03 -0.15818055492E+03  0.19777640592E+03  0.00000000000E+00 0. -1.
          1    1    1    2  502    0 -0.58961265526E+02  0.39836328467E+02  0.29786191523E+03  0.30624350515E+03  0.00000000000E+00 0. -1.
         22    1    3    3    0    0  0.33177493890E+01 -0.29925066786E+02 -0.25401196705E+01  0.30215381697E+02  0.00000000000E+00 0.  1.
         22    1    3    3    0    0  0.61037008445E+02  0.10868607820E+03  0.84394565055E+02  0.15053445654E+03  0.00000000000E+00 0.  1.
</event>
<event>
 7    1  0.6262315E-006  0.9027759E+02  0.7818608E-02  0.1392513E+00
          2   -1    0    0  502    0  0.00000000000E+00  0.00000000000E+00  0.30436812368E+03  0.30436812368E+03  0.00000000000E+00 0. -1.
          1   -1    0    0  501    0 -0.00000000000E+00 -0.00000000000E+00 -0.76875181017E+03  0.76875181017E+03  0.00000000000E+00 0. -1.
         25    2    1    2    0    0  0.36154651785E+02 -0.11208905636E+03 -0.30667353274E+01  0.17177116645E+03  0.12499925342E+03 0.  0.
          2    1    1    2  501    0  0.13337420036E+02  0.39408812006E+02 -0.67187804230E+03  0.67316494633E+03  0.00000000000E+00 0. -1.
          1    1    1    2  502    0 -0.49492071821E+02  0.72680244356E+02  0.21056109114E+03  0.22818382106E+03  0.00000000000E+00 0. -1.
         22    1    3    3    0    0  0.65881160501E+02 -0.96317260909E+02 -0.38523403438E+02  0.12288773198E+03  0.00000000000E+00 0.  1.
         22    1    3    3    0    0 -0.29726508715E+02 -0.15771795452E+02  0.35456668111E+02  0.48883434471E+02  0.00000000000E+00 0.  1.
</event>
<event>
 7    1  0.6262315E-006  0.6844245E+02  0.7818608E-02  0.1431216E+00
          2   -1    0    0  502    0  0.00000000000E+00  0.00000000000E+00  0.12822782871E+04  0.12822782871E+04  0.00000000000E+00 0. -1.
          1   -1    0    0  501    0 -0.00000000000E+00 -0.00000000000E+00 -0.90522611084E+03  0.90522611084E+03  0.00000000000E+00 0. -1.
         25    2    1    2    0    0 -0.77653801989E+02 -0.74493804310E+02  0.17420292450E+03  0.23989741698E+03  0.12499868769E+03 0.  0.
          2    1    1    2  501    0  0.31362700161E+02  0.25789335182E+02 -0.87085558284E+03  0.87180167178E+03  0.00000000000E+00 0. -1.
          1    1    1    2  502    0  0.46291101828E+02  0.48704469128E+02  0.10737048345E+04  0.10758053091E+04  0.00000000000E+00 0. -1.
         22    1    3    3    0    0 -0.16104612391E+02 -0.21928459641E+02  0.15411908165E+03  0.15650209970E+03  0.00000000000E+00 0.  1.
         22    1    3    3    0    0 -0.61549189598E+02 -0.52565344669E+02  0.20083842851E+02  0.83395317278E+02  0.00000000000E+00 0.  1.
</event>
<event>
 7    1  0.6262315E-006  0.9335708E+02  0.7818608E-02  0.1426208E+00
          2   -1    0    0  502    0  0.00000000000E+00  0.00000000000E+00  0.11611665028E+04  0.11611665028E+04  0.00000000000E+00 0. -1.
          1   -1    0    0  501    0 -0.00000000000E+00 -0.00000000000E+00 -0.42328032285E+03  0.42328032285E+03  0.00000000000E+00 0. -1.
         25    2    1    2    0    0  0.13152292072E+02  0.11045298089E+03  0.86887852366E+03  0.88484346009E+03  0.12500086482E+03 0.  0.
          2    1    1    2  501    0  0.12019058408E+02 -0.92492632811E+02 -0.40919361372E+03  0.41968888286E+03  0.00000000000E+00 0. -1.
          1    1    1    2  502    0 -0.25171350480E+02 -0.17960348082E+02  0.27820126998E+03  0.27991448267E+03  0.00000000000E+00 0. -1.
         22    1    3    3    0    0  0.64452693979E+02  0.31583715270E+02  0.31911729668E+03  0.32708948297E+03  0.00000000000E+00 0.  1.
         22    1    3    3    0    0 -0.51300401907E+02  0.78869265623E+02  0.54976122699E+03  0.55775397712E+03  0.00000000000E+00 0.  1.
</event>
<event>
 7    1  0.6262315E-006  0.1103572E+03  0.7818608E-02  0.1379077E+00
          2   -1    0    0  502    0  0.00000000000E+00  0.00000000000E+00  0.14822141315E+04  0.14822141315E+04  0.00000000000E+00 0. -1.
          1   -1    0    0  501    0 -0.00000000000E+00 -0.00000000000E+00 -0.29290751990E+03  0.29290751990E+03  0.00000000000E+00 0. -1.
         25    2    1    2    0    0 -0.12627084018E+02 -0.13159257423E+03 -0.27072206351E+02  0.18393844751E+03  0.12499759707E+03 0.  0.
          2    1    1    2  501    0  0.34857948232E+02  0.10084741782E+03 -0.17193370084E+03  0.20235235536E+03  0.00000000000E+00 0. -1.
          1    1    1    2  502    0 -0.22230864214E+02  0.30745156415E+02  0.13883125188E+04  0.13888308485E+04  0.00000000000E+00 0. -1.
         22    1    3    3    0    0 -0.16935199032E+02 -0.64385133788E+02  0.48758125136E+02  0.82520307718E+02  0.00000000000E+00 0. -1.
         22    1    3    3    0    0  0.43081150140E+01 -0.67207440446E+02 -0.75830331487E+02  0.10141813980E+03  0.00000000000E+00 0. -1.
</event>
<event>
 7    1  0.6262315E-006  0.3887819E+02  0.7818608E-02  0.1586799E+00
          2   -1    0    0  502    0  0.00000000000E+00  0.00000000000E+00  0.43059262122E+03  0.43059262122E+03  0.00000000000E+00 0. -1.
          1   -1    0    0  501    0 -0.00000000000E+00 -0.00000000000E+00 -0.91726658982E+03  0.91726658982E+03  0.00000000000E+00 0. -1.
         25    2    1    2    0    0  0.35202713861E+02 -0.15439987077E+02 -0.21440414238E+03  0.25114130520E+03  0.12500077858E+03 0.  0.
          2    1    1    2  501    0  0.26011404879E+01  0.24655858342E+02 -0.68335033397E+03  0.68379993874E+03  0.00000000000E+00 0. -1.
          1    1    1    2  502    0 -0.37803854349E+02 -0.92158712654E+01  0.41108050776E+03  0.41291796709E+03  0.00000000000E+00 0. -1.
         22    1    3    3    0    0  0.53243537031E+02  0.40850216570E+02 -0.80727934337E+02  0.10497911131E+03  0.00000000000E+00 0. -1.
         22    1    3    3    0    0 -0.18040823170E+02 -0.56290203647E+02 -0.13367620804E+03  0.14616219389E+03  0.00000000000E+00 0. -1.
</event>
<event>
 7    1  0.6262315E-006  0.5672591E+02  0.7818608E-02  0.1559609E+00
          2   -1    0    0  502    0  0.00000000000E+00  0.00000000000E+00  0.15181557442E+04  0.15181557442E+04  0.00000000000E+00 0. -1.
          1   -1    0    0  501    0 -0.00000000000E+00 -0.00000000000E+00 -0.25455723198E+02  0.25455723198E+02  0.00000000000E+00 0. -1.
         25    2    1    2    0    0 -0.34305912876E+02  0.21594664418E+02  0.61307783964E+03  0.62700285504E+03  0.12499967032E+03 0.  0.
          2    1    1    2  501    0 -0.20075866499E+02  0.14569556721E+01 -0.11732962712E+02  0.23298616901E+02  0.00000000000E+00 0. -1.
          1    1    1    2  502    0  0.54381779374E+02 -0.23051620090E+02  0.89135514408E+03  0.89330999546E+03  0.00000000000E+00 0. -1.
         22    1    3    3    0    0  0.43738619484E+02 -0.45016557253E+01  0.30374690463E+03  0.30691287658E+03  0.00000000000E+00 0. -1.
         22    1    3    3    0    0 -0.78044532359E+02  0.26096320143E+02  0.30933093501E+03  0.32008997846E+03  0.00000000000E+00 0. -1.
</event>
<event>
 7    1  0.6262315E-006  0.6461037E+02  0.7818608E-02  0.1383754E+00
          2   -1    0    0  502    0  0.00000000000E+00  0.00000000000E+00  0.24285968684E+03  0.24285968684E+03  0.00000000000E+00 0. -1.
          1   -1    0    0  501    0 -0.00000000000E+00 -0.00000000000E+00 -0.40562562027E+03  0.40562562027E+03  0.00000000000E+00 0. -1.
         25    2    1    2    0    0 -0.84331949311E+01 -0.54673941906E+01  0.20691730014E+02  0.12710249323E+03  0.12500353963E+03 0.  0.
          2    1    1    2  501    0 -0.57751601372E+02  0.28969843984E+02 -0.34196343521E+03  0.34801363528E+03  0.00000000000E+00 0. -1.
          1    1    1    2  502    0  0.66184796303E+02 -0.23502449793E+02  0.15850577176E+03  0.17336917860E+03  0.00000000000E+00 0. -1.
         22    1    3    3    0    0  0.25164639069E+02  0.94652767183E+00  0.65822035575E+02  0.70474785146E+02  0.00000000000E+00 0. -1.
         22    1    3    3    0    0 -0.33597834001E+02 -0.64139218624E+01 -0.45130305561E+02  0.56627708087E+02  0.00000000000E+00 0. -1.
</event>
<event>
 7    1  0.6262315E-006  0.1534883E+03  0.7818608E-02  0.1244087E+00
          2   -1    0    0  502    0  0.00000000000E+00  0.00000000000E+00  0.38641234750E+03  0.38641234750E+03  0.00000000000E+00 0. -1.
          1   -1    0    0  501    0 -0.00000000000E+00 -0.00000000000E+00 -0.13119538754E+04  0.13119538754E+04  0.00000000000E+00 0. -1.
         25    2    1    2    0    0 -0.95696690444E+02  0.21474684002E+03 -0.13319529321E+03  0.29772472121E+03  0.12499984650E+03 0.  0.
          2    1    1    2  501    0  0.84124230171E+02 -0.12258504283E+03 -0.10842087930E+04  0.10943549176E+04  0.00000000000E+00 0. -1.
          1    1    1    2  502    0  0.11572460274E+02 -0.92161797195E+02  0.29186255827E+03  0.30628658413E+03  0.00000000000E+00 0. -1.
         22    1    3    3    0    0 -0.10779888783E+03  0.21180174950E+03 -0.92259631747E+02  0.25493611152E+03  0.00000000000E+00 0. -1.
         22    1    3    3    0    0  0.12102197386E+02  0.29450905262E+01 -0.40935661464E+02  0.42788609691E+02  0.00000000000E+00 0. -1.
</event>
<event>
 7    1  0.6262315E-006  0.1626246E+03  0.7818608E-02  0.1271527E+00
          2   -1    0    0  502    0  0.00000000000E+00  0.00000000000E+00  0.51172808302E+03  0.51172808302E+03  0.00000000000E+00 0. -1.
          1   -1    0    0  501    0 -0.00000000000E+00 -0.00000000000E+00 -0.11447789816E+04  0.11447789816E+04  0.00000000000E+00 0. -1.
         25    2    1    2    0    0  0.68343344645E+02 -0.87069571524E+02 -0.16301427825E+01  0.16697163520E+03  0.12499978621E+03 0.  0.
          2    1    1    2  501    0  0.59428015560E+02 -0.30677802677E+02 -0.10417708874E+04  0.10439154173E+04  0.00000000000E+00 0. -1.
          1    1    1    2  502    0 -0.12777136020E+03  0.11774737420E+03  0.41035013166E+03  0.44562001208E+03  0.00000000000E+00 0. -1.
         22    1    3    3    0    0  0.74245346136E+02  0.23123551396E+01  0.15218521397E+02  0.75824282408E+02  0.00000000000E+00 0.  1.
         22    1    3    3    0    0 -0.59020014908E+01 -0.89381926664E+02 -0.16848664179E+02  0.91147352789E+02  0.00000000000E+00 0.  1.
</event>
<event>
 7    1  0.6262315E-006  0.2981330E+02  0.7818608E-02  0.1651178E+00
          2   -1    0    0  502    0  0.00000000000E+00  0.00000000000E+00  0.16429241598E+03  0.16429241598E+03  0.00000000000E+00 0. -1.
          1   -1    0    0  501    0 -0.00000000000E+00 -0.00000000000E+00 -0.29134638475E+03  0.29134638475E+03  0.00000000000E+00 0. -1.
         25    2    1    2    0    0  0.14879227706E+02 -0.46848012137E+02 -0.63521295441E+01  0.13447042808E+03  0.12500327523E+03 0.  0.
          2    1    1    2  501    0 -0.16151182180E+02  0.24734313799E+02 -0.21870612971E+03  0.22069213429E+03  0.00000000000E+00 0. -1.
          1    1    1    2  502    0  0.12719544741E+01  0.22113698339E+02  0.98004290481E+02  0.10047623836E+03  0.00000000000E+00 0. -1.
         22    1    3    3    0    0 -0.81460701947E+01 -0.64960922191E+02 -0.49668086224E+02  0.82177847750E+02  0.00000000000E+00 0.  1.
         22    1    3    3    0    0  0.23025297901E+02  0.18112910054E+02  0.43315956680E+02  0.52292580326E+02  0.00000000000E+00 0.  1.
</event>
<event>
 7    1  0.6262315E-006  0.1896453E+03  0.7818608E-02  0.1235708E+00
          2   -1    0    0  502    0  0.00000000000E+00  0.00000000000E+00  0.60265045751E+03  0.60265045751E+03  0.00000000000E+00 0. -1.
          1   -1    0    0  501    0 -0.00000000000E+00 -0.00000000000E+00 -0.13214683166E+04  0.13214683166E+04  0.00000000000E+00 0. -1.
         25    2    1    2    0    0 -0.20034867317E+03 -0.24492780380E+02 -0.86775511489E+02  0.25277282042E+03  0.12499848885E+03 0.  0.
          2    1    1    2  501    0  0.18555980341E+02  0.79723013768E+02 -0.11328010292E+04  0.11357544872E+04  0.00000000000E+00 0. -1.
          1    1    1    2  502    0  0.18179269283E+03 -0.55230233388E+02  0.50075868160E+03  0.53559146655E+03  0.00000000000E+00 0. -1.
         22    1    3    3    0    0 -0.19792931944E+03 -0.19766216299E+01 -0.10467021380E+03  0.22391019669E+03  0.00000000000E+00 0. -1.
         22    1    3    3    0    0 -0.24193537341E+01 -0.22516158750E+02  0.17894702314E+02  0.28862623725E+02  0.00000000000E+00 0. -1.
</event>
<event>
 7    1  0.6262315E-006  0.3955779E+02  0.7818608E-02  0.1528385E+00
          2   -1    0    0  502    0  0.00000000000E+00  0.00000000000E+00  0.12238030608E+04  0.12238030608E+04  0.00000000000E+00 0. -1.
          1   -1    0    0  501    0 -0.00000000000E+00 -0.00000000000E+00 -0.81533598921E+03  0.81533598921E+03  0.00000000000E+00 0. -1.
         25    2    1    2    0    0  0.38999921403E+01 -0.41467175650E+01  0.38120545670E+03  0.40121440111E+03  0.12499196070E+03 0.  0.
          2    1    1    2  501    0 -0.32011874151E+01  0.39471902131E+02 -0.80446938814E+03  0.80544352695E+03  0.00000000000E+00 0. -1.
          1    1    1    2  502    0 -0.69880472518E+00 -0.35325184566E+02  0.83173100307E+03  0.83248112198E+03  0.00000000000E+00 0. -1.
         22    1    3    3    0    0  0.18816457687E+00 -0.64511098843E+02  0.18754089400E+03  0.19832625696E+03  0.00000000000E+00 0.  1.
         22    1    3    3    0    0  0.37118275634E+01  0.60364381278E+02  0.19366456270E+03  0.20288814415E+03  0.00000000000E+00 0.  1.
</event>
<event>
 7    1  0.6262315E-006  0.7309687E+02  0.7818608E-02  0.1444583E+00
          2   -1    0    0  502    0  0.00000000000E+00  0.00000000000E+00  0.22027296211E+04  0.22027296211E+04  0.00000000000E+00 0. -1.
          1   -1    0    0  501    0 -0.00000000000E+00 -0.00000000000E+00 -0.94626824187E+03  0.94626824187E+03  0.00000000000E+00 0. -1.
         25    2    1    2    0    0  0.73712450063E+02 -0.77229130601E+02 -0.18850938773E+02  0.16546668883E+03  0.12500401319E+03 0.  0.
          2    1    1    2  501    0 -0.49179891057E+02  0.53122739752E+02 -0.85243623252E+03  0.85550465673E+03  0.00000000000E+00 0. -1.
          1    1    1    2  502    0 -0.24532559006E+02  0.24106390849E+02  0.21277485506E+04  0.21280265175E+04  0.00000000000E+00 0. -1.
         22    1    3    3    0    0 -0.31346941118E+02  0.15059783401E+01  0.57159452059E+01  0.31899384286E+02  0.00000000000E+00 0.  1.
         22    1    3    3    0    0  0.10505939118E+03 -0.78735108941E+02 -0.24566883979E+02  0.13356730455E+03  0.00000000000E+00 0.  1.
</event>
<event>
 7    1  0.6262315E-006  0.2468380E+03  0.7818608E-02  0.1127679E+00
          2   -1    0    0  502    0  0.00000000000E+00  0.00000000000E+00  0.12196076814E+04  0.12196076814E+04  0.00000000000E+00 0. -1.
          1   -1    0    0  501    0 -0.00000000000E+00 -0.00000000000E+00 -0.54247592941E+03  0.54247592941E+03  0.00000000000E+00 0. -1.
         25    2    1    2    0    0  0.13722585599E+03  0.75388369897E+02  0.32984644759E+03  0.38592422499E+03  0.12499794628E+03 0.  0.
          2    1    1    2  501    0 -0.23631581691E+03  0.11155350499E+03 -0.46683251626E+03  0.53499714769E+03  0.00000000000E+00 0. -1.
          1    1    1    2  502    0  0.99089960922E+02 -0.18694187488E+03  0.81411782071E+03  0.84116223818E+03  0.00000000000E+00 0. -1.
         22    1    3    3    0    0 -0.59829931753E+01  0.55785377881E+01  0.13040565935E+03  0.13066197718E+03  0.00000000000E+00 0.  1.
         22    1    3    3    0    0  0.14320884916E+03  0.69809832109E+02  0.19944078824E+03  0.25526224780E+03  0.00000000000E+00 0.  1.
</event>
<event>
 7    1  0.6262315E-006  0.1797314E+03  0.7818608E-02  0.1261802E+00
          2   -1    0    0  502    0  0.00000000000E+00  0.00000000000E+00  0.62639022708E+03  0.62639022708E+03  0.00000000000E+00 0. -1.
          1   -1    0    0  501    0 -0.00000000000E+00 -0.00000000000E+00 -0.25096053575E+04  0.25096053575E+04  0.00000000000E+00 0. -1.
         25    2    1    2    0    0  0.20694867809E+03 -0.43563333486E+02 -0.19055002747E+03  0.31090240295E+03  0.12500188720E+03 0.  0.
          2    1    1    2  501    0 -0.29242152219E+02  0.59740916968E+02 -0.22443153243E+04  0.22453007271E+04  0.00000000000E+00 0. -1.
          1    1    1    2  502    0 -0.17770652587E+03 -0.16177583483E+02  0.55165022134E+03  0.57979245446E+03  0.00000000000E+00 0. -1.
         22    1    3    3    0    0 -0.86349479596E+01 -0.26386731510E+02 -0.34132770349E+02  0.43998499267E+02  0.00000000000E+00 0. -1.
         22    1    3    3    0    0  0.21558362605E+03 -0.17176601975E+02 -0.15641725712E+03  0.26690390368E+03  0.00000000000E+00 0. -1.
</event>
<event>
 7    1  0.6262315E-006  0.3645472E+02  0.7818608E-02  0.1603431E+00
          2   -1    0    0  502    0  0.00000000000E+00  0.00000000000E+00  0.11008825451E+04  0.11008825451E+04  0.00000000000E+00 0. -1.
          1   -1    0    0  501    0 -0.00000000000E+00 -0.00000000000E+00 -0.23950430269E+03  0.23950430269E+03  0.00000000000E+00 0. -1.
         25    2    1    2    0    0 -0.16439805683E+02 -0.12370892722E+01 -0.78986206855E+02  0.14878058809E+03  0.12500017967E+03 0.  0.
          2    1    1    2  501    0  0.34007704848E+02  0.17453174785E+02 -0.12257554000E+03  0.12839743107E+03  0.00000000000E+00 0. -1.
          1    1    1    2  502    0 -0.17567899165E+02 -0.16216085513E+02  0.10629399892E+04  0.10632088286E+04  0.00000000000E+00 0. -1.
         22    1    3    3    0    0 -0.51088082586E+02 -0.21663357098E+02 -0.91191657032E+02  0.10674835612E+03  0.00000000000E+00 0. -1.
         22    1    3    3    0    0  0.34648276903E+02  0.20426267826E+02  0.12205450177E+02  0.42032231961E+02  0.00000000000E+00 0. -1.
</event>
<event>
 7    1  0.6262315E-006  0.7420908E+02  0.7818608E-02  0.1423492E+00
          2   -1    0    0  502    0  0.00000000000E+00  0.00000000000E+00  0.23794573468E+03  0.23794573468E+03  0.00000000000E+00 0. -1.
          1   -1    0    0  501    0 -0.00000000000E+00 -0.00000000000E+00 -0.11241119481E+04  0.11241119481E+04  0.00000000000E+00 0. -1.
         25    2    1    2    0    0  0.31181743433E+02  0.34489453816E+02  0.11724686061E+03  0.17757824485E+03  0.12500153269E+03 0.  0.
          2    1    1    2  501    0 -0.18557758789E+02 -0.72145691507E+02 -0.10882550281E+04  0.10908017223E+04  0.00000000000E+00 0. -1.
          1    1    1    2  502    0 -0.12623984644E+02  0.37656237691E+02  0.84841954090E+02  0.93677715595E+02  0.00000000000E+00 0. -1.
         22    1    3    3    0    0  0.59216658684E+02  0.49599181564E+02  0.26919076170E+02  0.81800538747E+02  0.00000000000E+00 0.  1.
         22    1    3    3    0    0 -0.28034915250E+02 -0.15109727748E+02  0.90327784438E+02  0.95777706108E+02  0.00000000000E+00 0.  1.
</event>
<event>
 7    1  0.6262315E-006  0.5822633E+02  0.7818608E-02  0.1467922E+00
          2   -1    0    0  502    0  0.00000000000E+00  0.00000000000E+00  0.44163351703E+03  0.44163351703E+03  0.00000000000E+00 0. -1.
          1   -1    0    0  501    0 -0.00000000000E+00 -0.00000000000E+00 -0.46911761867E+03  0.46911761867E+03  0.00000000000E+00 0. -1.
         25    2    1    2    0    0 -0.33534824810E+02  0.65508571543E+02  0.22446930585E+03  0.26725967573E+03  0.12500123031E+03 0.  0.
          2    1    1    2  501    0  0.35322119525E+02 -0.88419940808E+01 -0.44285480605E+03  0.44434920078E+03  0.00000000000E+00 0. -1.
          1    1    1    2  502    0 -0.17872947153E+01 -0.56666577462E+02  0.19090139856E+03  0.19914225919E+03  0.00000000000E+00 0. -1.
         22    1    3    3    0    0 -0.10809377456E+02  0.10111084935E+03  0.17307250997E+03  0.20073450178E+03  0.00000000000E+00 0.  1.
         22    1    3    3    0    0 -0.22725447355E+02 -0.35602277802E+02  0.51396795881E+02  0.66525173949E+02  0.00000000000E+00 0.  1.
</event>
<event>
 7    1  0.6262315E-006  0.7721477E+02  0.7818608E-02  0.1339695E+00
          2   -1    0    0  502    0  0.00000000000E+00  0.00000000000E+00  0.10308851786E+04  0.10308851786E+04  0.00000000000E+00 0. -1.
          1   -1    0    0  501    0 -0.00000000000E+00 -0.00000000000E+00 -0.27503739599E+03  0.27503739599E+03  0.00000000000E+00 0. -1.
         25    2    1    2    0    0  0.23693167556E+02  0.74689248501E+02  0.65073914436E+02  0.16124098786E+03  0.12499676714E+03 0.  0.
          2    1    1    2  501    0 -0.76507855710E+02 -0.20702429900E+02 -0.21842011532E+03  0.23235616920E+03  0.00000000000E+00 0. -1.
          1    1    1    2  502    0  0.52814688153E+02 -0.53986818601E+02  0.90919398351E+03  0.91232541755E+03  0.00000000000E+00 0. -1.
         22    1    3    3    0    0 -0.32731179432E+02  0.53940279658E+02  0.77414168241E+02  0.99869100933E+02  0.00000000000E+00 0. -1.
         22    1    3    3    0    0  0.56424346988E+02  0.20748968843E+02 -0.12340253806E+02  0.61371886928E+02  0.00000000000E+00 0. -1.
</event>
<event>
 7    1  0.6262315E-006  0.3449105E+03  0.7818608E-02  0.1240648E+00
          2   -1    0    0  502    0  0.00000000000E+00  0.00000000000E+00  0.26035447255E+04  0.26035447255E+04  0.00000000000E+00 0. -1.
          1   -1    0    0  501    0 -0.00000000000E+00 -0.00000000000E+00 -0.10031597259E+03  0.10031597259E+03  0.00000000000E+00 0. -1.
         25    2    1    2    0    0 -0.63008627968E+02 -0.35935873074E+03  0.15869899933E+04  0.16331781545E+04  0.12499944382E+03 0.  0.
          2    1    1    2  501    0  0.42989109345E+01  0.42581644939E+02 -0.41860696595E+02  0.59866476766E+02  0.00000000000E+00 0. -1.
          1    1    1    2  502    0  0.58709717033E+02  0.31677708580E+03  0.95809945613E+03  0.10108160668E+04  0.00000000000E+00 0. -1.
         22    1    3    3    0    0  0.13458293971E+02 -0.16399251565E+01  0.14046027218E+03  0.14111308618E+03  0.00000000000E+00 0. -1.
         22    1    3    3    0    0 -0.76466921939E+02 -0.35771880558E+03  0.14465297212E+04  0.14920650683E+04  0.00000000000E+00 0. -1.
</event>
<event>
 7    1  0.6262315E-006  0.2517005E+03  0.7818608E-02  0.1246916E+00
          2   -1    0    0  502    0  0.00000000000E+00  0.00000000000E+00  0.10598619958E+04  0.10598619958E+04  0.00000000000E+00 0. -1.
          1   -1    0    0  501    0 -0.00000000000E+00 -0.00000000000E+00 -0.63441735811E+03  0.63441735811E+03  0.00000000000E+00 0. -1.
         25    2    1    2    0    0 -0.27229151745E+03  0.90040253246E+02 -0.21344341769E+03  0.37872542639E+03  0.12499975345E+03 0.  0.
          2    1    1    2  501    0  0.25770185924E+02 -0.48648380561E+02 -0.31995791079E+03  0.32465956338E+03  0.00000000000E+00 0. -1.
          1    1    1    2  502    0  0.24652133152E+03 -0.41391872686E+02  0.95884596617E+03  0.99089436413E+03  0.00000000000E+00 0. -1.
         22    1    3    3    0    0 -0.10061263626E+03 -0.10580923938E+02 -0.12541061749E+03  0.16112939368E+03  0.00000000000E+00 0. -1.
         22    1    3    3    0    0 -0.17167888119E+03  0.10062117718E+03 -0.88032800199E+02  0.21759603272E+03  0.00000000000E+00 0. -1.
</event>
<event>
 7    1  0.6262315E-006  0.1104591E+03  0.7818608E-02  0.1287531E+00
          2   -1    0    0  502    0  0.00000000000E+00  0.00000000000E+00  0.21542957118E+04  0.21542957118E+04  0.00000000000E+00 0. -1.
          1   -1    0    0  501    0 -0.00000000000E+00 -0.00000000000E+00 -0.12399742417E+03  0.12399742417E+03  0.00000000000E+00 0. -1.
         25    2    1    2    0    0  0.27081534368E+02  0.66857187694E+02  0.28469369394E+03  0.31919132274E+03  0.12501723120E+03 0.  0.
          2    1    1    2  501    0 -0.74530550704E+02  0.39912682848E+02 -0.87852465369E+02  0.12192571883E+03  0.00000000000E+00 0. -1.
          1    1    1    2  502    0  0.47449016335E+02 -0.10676987054E+03  0.18334570590E+04  0.18371760944E+04  0.00000000000E+00 0. -1.
         22    1    3    3    0    0  0.13927504626E+02 -0.23826112717E+02  0.17078622855E+03  0.17300171934E+03  0.00000000000E+00 0. -1.
         22    1    3    3    0    0  0.13154029743E+02  0.90683300411E+02  0.11390746539E+03  0.14618960340E+03  0.00000000000E+00 0. -1.
</event>
<event>
 7    1  0.6262315E-006  0.9816859E+02  0.7818608E-02  0.1337526E+00
          2   -1    0    0  502    0  0.00000000000E+00  0.00000000000E+00  0.73034222435E+02  0.73034222435E+02  0.00000000000E+00 0. -1.
          1   -1    0    0  501    0 -0.00000000000E+00 -0.00000000000E+00 -0.48596738347E+03  0.48596738347E+03  0.00000000000E+00 0. -1.
         25    2    1    2    0    0  0.69445819648E+02  0.39223361118E+02 -0.19844270362E+03  0.24772040776E+03  0.12499879950E+03 0.  0.
          2    1    1    2  501    0 -0.11272032632E+03  0.31037440775E+01 -0.22325521599E+03  0.25011676605E+03  0.00000000000E+00 0. -1.
          1    1    1    2  502    0  0.43274506668E+02 -0.42327105196E+02  0.87647585662E+01  0.61164432102E+02  0.00000000000E+00 0. -1.
         22    1    3    3    0    0 -0.34239365148E+02  0.25836709151E+02 -0.46247246088E+02  0.63076758289E+02  0.00000000000E+00 0. -1.
         22    1    3    3    0    0  0.10368518480E+03  0.13386651967E+02 -0.15219545753E+03  0.18464364947E+03  0.00000000000E+00 0. -1.
</event>
<event>
 7    1  0.6262315E-006  0.1304082E+03  0.7818608E-02  0.1290319E+00
          2   -1    0    0  502    0  0.00000000000E+00  0.00000000000E+00  0.25463931291E+03  0.25463931291E+03  0.00000000000E+00 0. -1.
          1   -1    0    0  501    0 -0.00000000000E+00 -0.00000000000E+00 -0.90792085860E+03  0.90792085860E+03  0.00000000000E+00 0. -1.
         25    2    1    2    0    0 -0.14586742547E+03  0.11256520713E+03 -0.42074744775E+02  0.22658213188E+03  0.12498378563E+03 0.  0.
          2    1    1    2  501    0  0.76930112042E+02 -0.10186519463E+03 -0.76052674365E+03  0.77116514951E+03  0.00000000000E+00 0. -1.
          1    1    1    2  502    0  0.68937313423E+02 -0.10700012505E+02  0.14931994274E+03  0.16481289011E+03  0.00000000000E+00 0. -1.
         22    1    3    3    0    0 -0.10661892405E+03  0.65503249114E+02 -0.85431413028E+02  0.15151500567E+03  0.00000000000E+00 0.  1.
         22    1    3    3    0    0 -0.39248501417E+02  0.47061958020E+02  0.43356668253E+02  0.75067126215E+02  0.00000000000E+00 0.  1.
</event>
<event>
 7    1  0.6262315E-006  0.9602064E+02  0.7818608E-02  0.1425382E+00
          2   -1    0    0  502    0  0.00000000000E+00  0.00000000000E+00  0.18293811559E+04  0.18293811559E+04  0.00000000000E+00 0. -1.
          1   -1    0    0  501    0 -0.00000000000E+00 -0.00000000000E+00 -0.65170494725E+03  0.65170494725E+03  0.00000000000E+00 0. -1.
         25    2    1    2    0    0  0.19994383731E+02  0.12390073321E+03  0.99529405540E+02  0.20319048847E+03  0.12501641879E+03 0.  0.
          2    1    1    2  501    0 -0.45164864960E+01 -0.29915106482E+02 -0.59814005549E+03  0.59890469878E+03  0.00000000000E+00 0. -1.
          1    1    1    2  502    0 -0.15477897235E+02 -0.93985626723E+02  0.16762868586E+04  0.16789909159E+04  0.00000000000E+00 0. -1.
         22    1    3    3    0    0  0.61791527456E+01 -0.23124832631E+02  0.34122164023E+02  0.41680473731E+02  0.00000000000E+00 0.  1.
         22    1    3    3    0    0  0.13815230986E+02  0.14702556584E+03  0.65407241517E+02  0.16151001473E+03  0.00000000000E+00 0.  1.
</event>
<event>
 7    1  0.6262315E-006  0.5925516E+02  0.7818608E-02  0.1532734E+00
          2   -1    0    0  502    0  0.00000000000E+00  0.00000000000E+00  0.26733323110E+04  0.26733323110E+04  0.00000000000E+00 0. -1.
          1   -1    0    0  501    0 -0.00000000000E+00 -0.00000000000E+00 -0.30400993918E+03  0.30400993918E+03  0.00000000000E+00 0. -1.
         25    2    1    2    0    0  0.46257362474E+02 -0.65241021685E+02  0.25940112131E+04  0.25982527365E+04  0.12500789976E+03 0.  0.
          2    1    1    2  501    0 -0.27087980741E+02  0.52675971758E+02 -0.29719841247E+03  0.30304358280E+03  0.00000000000E+00 0. -1.
          1    1    1    2  502    0 -0.19169381733E+02  0.12565049927E+02  0.72509571249E+02  0.76045930847E+02  0.00000000000E+00 0. -1.
         22    1    3    3    0    0  0.54572259135E+01 -0.71176173203E+02  0.66857781171E+03  0.67237795863E+03  0.00000000000E+00 0. -1.
         22    1    3    3    0    0  0.40800136561E+02  0.59351515177E+01  0.19254334014E+04  0.19258747779E+04  0.00000000000E+00 0. -1.
</event>
<event>
 7    1  0.6262315E-006  0.1605588E+03  0.7818608E-02  0.1407316E+00
          2   -1    0    0  502    0  0.00000000000E+00  0.00000000000E+00  0.30221647270E+03  0.30221647270E+03  0.00000000000E+00 0. -1.
          1   -1    0    0  501    0 -0.00000000000E+00 -0.00000000000E+00 -0.52980612765E+03  0.52980612765E+03  0.00000000000E+00 0. -1.
         25    2    1    2    0    0  0.61556835516E+01  0.17904403554E+03 -0.24783013283E+03  0.33036330195E+03  0.12500190971E+03 0.  0.
          2    1    1    2  501    0 -0.55902435765E+01 -0.20040327094E+02 -0.21594132866E+03  0.21694128919E+03  0.00000000000E+00 0. -1.
          1    1    1    2  502    0 -0.56543997505E+00 -0.15900370845E+03  0.23618180654E+03  0.28471800920E+03  0.00000000000E+00 0. -1.
         22    1    3    3    0    0 -0.46820593607E+02  0.10101331092E+03 -0.77466713671E+02  0.13563535194E+03  0.00000000000E+00 0. -1.
         22    1    3    3    0    0  0.52976277158E+02  0.78030724625E+02 -0.17036341916E+03  0.19472795001E+03  0.00000000000E+00 0. -1.
</event>
<event>
 7    1  0.6262315E-006  0.3972765E+02  0.7818608E-02  0.1514611E+00
          2   -1    0    0  502    0  0.00000000000E+00  0.00000000000E+00  0.36216431105E+03  0.36216431105E+03  0.00000000000E+00 0. -1.
          1   -1    0    0  501    0 -0.00000000000E+00 -0.00000000000E+00 -0.15236101525E+03  0.15236101525E+03  0.00000000000E+00 0. -1.
         25    2    1    2    0    0  0.29885125150E+01  0.70746316422E+01  0.88014803517E+02  0.15305134383E+03  0.12497650415E+03 0.  0.
          2    1    1    2  501    0 -0.28547217282E+02  0.25933263431E+02 -0.11486477797E+03  0.12116680644E+03  0.00000000000E+00 0. -1.
          1    1    1    2  502    0  0.25558704767E+02 -0.33007895074E+02  0.23665327026E+03  0.24030717603E+03  0.00000000000E+00 0. -1.
         22    1    3    3    0    0  0.11234177224E+02 -0.54078829729E+02  0.14565771271E+02  0.57121696889E+02  0.00000000000E+00 0.  1.
         22    1    3    3    0    0 -0.82456647093E+01  0.61153461371E+02  0.73449032246E+02  0.95929646940E+02  0.00000000000E+00 0.  1.
</event>
<event>
 7    1  0.6262315E-006  0.9984980E+02  0.7818608E-02  0.1359469E+00
          2   -1    0    0  502    0  0.00000000000E+00  0.00000000000E+00  0.53598742801E+03  0.53598742801E+03  0.00000000000E+00 0. -1.
          1   -1    0    0  501    0 -0.00000000000E+00 -0.00000000000E+00 -0.18502549734E+03  0.18502549734E+03  0.00000000000E+00 0. -1.
         25    2    1    2    0    0  0.57617080264E+02  0.25005752820E+02  0.15390173674E+03  0.20798119066E+03  0.12500166192E+03 0.  0.
          2    1    1    2  501    0  0.46009980328E+02  0.17796579567E+02 -0.14494899427E+03  0.15311383828E+03  0.00000000000E+00 0. -1.
          1    1    1    2  502    0 -0.10362706059E+03 -0.42802332387E+02  0.34200918820E+03  0.35991789641E+03  0.00000000000E+00 0. -1.
         22    1    3    3    0    0  0.13906721497E+02  0.35933665093E+02 -0.84898760232E+01  0.39455078060E+02  0.00000000000E+00 0.  1.
         22    1    3    3    0    0  0.43710358767E+02 -0.10927912273E+02  0.16239161277E+03  0.16852611260E+03  0.00000000000E+00 0.  1.
</event>
<event>
 7    1  0.6262315E-006  0.8943231E+02  0.7818608E-02  0.1317667E+00
          2   -1    0    0  502    0  0.00000000000E+00  0.00000000000E+00  0.11308307039E+04  0.11308307039E+04  0.00000000000E+00 0. -1.
          1   -1    0    0  501    0 -0.00000000000E+00 -0.00000000000E+00 -0.51969360922E+02  0.51969360922E+02  0.00000000000E+00 0. -1.
         25    2    1    2    0    0  0.83159840607E+01 -0.35997694156E+02  0.21791722628E+03  0.25392223288E+03  0.12499437292E+03 0.  0.
          2    1    1    2  501    0  0.76898741566E+02  0.63137856293E+02  0.47008397537E+02  0.11004360404E+03  0.00000000000E+00 0. -1.
          1    1    1    2  502    0 -0.85214725627E+02 -0.27140162136E+02  0.81393571914E+03  0.81883422788E+03  0.00000000000E+00 0. -1.
         22    1    3    3    0    0 -0.16450664728E+01 -0.82026674590E+02  0.12132767308E+03  0.14646325765E+03  0.00000000000E+00 0. -1.
         22    1    3    3    0    0  0.99610505335E+01  0.46028980433E+02  0.96589553205E+02  0.10745897522E+03  0.00000000000E+00 0. -1.
</event>
<event>
 7    1  0.6262315E-006  0.8336051E+02  0.7818608E-02  0.1331179E+00
          2   -1    0    0  502    0  0.00000000000E+00  0.00000000000E+00  0.24171542141E+04  0.24171542141E+04  0.00000000000E+00 0. -1.
          1   -1    0    0  501    0 -0.00000000000E+00 -0.00000000000E+00 -0.18402915360E+03  0.18402915360E+03  0.00000000000E+00 0. -1.
         25    2    1    2    0    0  0.27307381446E+02  0.29078416864E+02  0.66728714744E+03  0.68006476897E+03  0.12499882177E+03 0.  0.
          2    1    1    2  501    0 -0.70044817954E+02  0.45196219305E+02 -0.16674321096E+03  0.18641961582E+03  0.00000000000E+00 0. -1.
          1    1    1    2  502    0  0.42737436508E+02 -0.74274636169E+02  0.17325811240E+04  0.17346989829E+04  0.00000000000E+00 0. -1.
         22    1    3    3    0    0 -0.30866958138E+02 -0.33542720513E+02  0.24794917887E+03  0.25210449918E+03  0.00000000000E+00 0. -1.
         22    1    3    3    0    0  0.58174339584E+02  0.62621137377E+02  0.41933796858E+03  0.42796026979E+03  0.00000000000E+00 0. -1.
</event>
<event>
 7    1  0.6262315E-006  0.3986230E+02  0.7818608E-02  0.1582066E+00
          2   -1    0    0  502    0  0.00000000000E+00  0.00000000000E+00  0.21747870928E+04  0.21747870928E+04  0.00000000000E+00 0. -1.
          1   -1    0    0  501    0 -0.00000000000E+00 -0.00000000000E+00 -0.49714231785E+02  0.49714231785E+02  0.00000000000E+00 0. -1.
         25    2    1    2    0    0 -0.31426367476E+02 -0.37735010775E+02  0.42672734779E+03  0.44736216348E+03  0.12500051342E+03 0.  0.
          2    1    1    2  501    0  0.24847110089E+02 -0.15196402643E+01 -0.35213108947E+02  0.43123673638E+02  0.00000000000E+00 0. -1.
          1    1    1    2  502    0  0.65792573872E+01  0.39254651039E+02  0.17335586221E+04  0.17340154874E+04  0.00000000000E+00 0. -1.
         22    1    3    3    0    0  0.14106015897E+02  0.20512740889E+02  0.29703851267E+03  0.29807990578E+03  0.00000000000E+00 0.  1.
         22    1    3    3    0    0 -0.45532383373E+02 -0.58247751663E+02  0.12968883512E+03  0.14928225770E+03  0.00000000000E+00 0.  1.
</event>
<event>
 7    1  0.6262315E-006  0.1161530E+03  0.7818608E-02  0.1281224E+00
          2   -1    0    0  502    0  0.00000000000E+00  0.00000000000E+00  0.13627800112E+04  0.13627800112E+04  0.00000000000E+00 0. -1.
          1   -1    0    0  501    0 -0.00000000000E+00 -0.00000000000E+00 -0.51611299513E+02  0.51611299513E+02  0.00000000000E+00 0. -1.
         25    2    1    2    0    0 -0.10491445206E+02  0.28384667277E+01  0.38789487980E+03  0.40768466089E+03  0.12500487044E+03 0.  0.
          2    1    1    2  501    0 -0.51514292572E+02 -0.10410471680E+03  0.51799114138E+02  0.12717964706E+03  0.00000000000E+00 0. -1.
          1    1    1    2  502    0  0.62005737778E+02  0.10126625008E+03  0.87147471777E+03  0.87952700279E+03  0.00000000000E+00 0. -1.
         22    1    3    3    0    0  0.37846524009E+02 -0.40507252389E+02  0.12244076450E+03  0.13440586924E+03  0.00000000000E+00 0. -1.
         22    1    3    3    0    0 -0.48337969215E+02  0.43345719117E+02  0.26545411530E+03  0.27327879165E+03  0.00000000000E+00 0. -1.
</event>
<event>
 7    1  0.6262315E-006  0.8839831E+02  0.7818608E-02  0.1336886E+00
          2   -1    0    0  502    0  0.00000000000E+00  0.00000000000E+00  0.12144325884E+04  0.12144325884E+04  0.00000000000E+00 0. -1.
          1   -1    0    0  501    0 -0.00000000000E+00 -0.00000000000E+00 -0.82250265857E+03  0.82250265857E+03  0.00000000000E+00 0. -1.
         25    2    1    2    0    0 -0.59223112682E+02 -0.11759133914E+03  0.25155733026E+03  0.31022691283E+03  0.12499818766E+03 0.  0.
          2    1    1    2  501    0  0.71780444188E+02  0.51168779830E+02 -0.78948785529E+03  0.79439395129E+03  0.00000000000E+00 0. -1.
          1    1    1    2  502    0 -0.12557331505E+02  0.66422559311E+02  0.92986045489E+03  0.93231438289E+03  0.00000000000E+00 0. -1.
         22    1    3    3    0    0 -0.80995295617E+01 -0.36340152045E+02  0.19559939638E+03  0.19911135802E+03  0.00000000000E+00 0.  1.
         22    1    3    3    0    0 -0.51123583121E+02 -0.81251187096E+02  0.55957933884E+02  0.11111555481E+03  0.00000000000E+00 0.  1.
</event>
<event>
 7    1  0.6262315E-006  0.4680900E+02  0.7818608E-02  0.1553028E+00
          2   -1    0    0  502    0  0.00000000000E+00  0.00000000000E+00  0.36829968059E+02  0.36829968059E+02  0.00000000000E+00 0. -1.
          1   -1    0    0  501    0 -0.00000000000E+00 -0.00000000000E+00 -0.46759533693E+03  0.46759533693E+03  0.00000000000E+00 0. -1.
         25    2    1    2    0    0  0.67000896403E+02  0.17039967066E+02 -0.25046773827E+03  0.28834095654E+03  0.12500775458E+03 0.  0.
          2    1    1    2  501    0 -0.42867746621E+02 -0.89995755883E+01 -0.18508754551E+03  0.19019998834E+03  0.00000000000E+00 0. -1.
          1    1    1    2  502    0 -0.24133149781E+02 -0.80403914774E+01  0.47899149117E+01  0.25884360111E+02  0.00000000000E+00 0. -1.
         22    1    3    3    0    0  0.23558977990E+02  0.36080102872E+02 -0.23430054964E+03  0.23823002924E+03  0.00000000000E+00 0.  1.
         22    1    3    3    0    0  0.43441918413E+02 -0.19040135806E+02 -0.16167188629E+02  0.50110927302E+02  0.00000000000E+00 0.  1.
</event>
<event>
 7    1  0.6262315E-006  0.9745546E+02  0.7818608E-02  0.1298419E+00
          2   -1    0    0  502    0  0.00000000000E+00  0.00000000000E+00  0.10094324543E+03  0.10094324543E+03  0.00000000000E+00 0. -1.
          1   -1    0    0  501    0 -0.00000000000E+00 -0.00000000000E+00 -0.17237712863E+04  0.17237712863E+04  0.00000000000E+00 0. -1.
         25    2    1    2    0    0 -0.25249983056E+02 -0.35137629538E+01 -0.12159836560E+04  0.12226573747E+04  0.12499958420E+03 0.  0.
          2    1    1    2  501    0 -0.22026459465E+02 -0.83728838158E+02 -0.47425747372E+03  0.48209525473E+03  0.00000000000E+00 0. -1.
          1    1    1    2  502    0  0.47276442520E+02  0.87242601112E+02  0.67413088830E+02  0.11996190233E+03  0.00000000000E+00 0. -1.
         22    1    3    3    0    0  0.74155679650E+01  0.57196360729E+02 -0.62917064967E+03  0.63180861084E+03  0.00000000000E+00 0. -1.
         22    1    3    3    0    0 -0.32665551021E+02 -0.60710123683E+02 -0.58681300631E+03  0.59084876383E+03  0.00000000000E+00 0. -1.
</event>
<event>
 7    1  0.6262315E-006  0.4005569E+02  0.7818608E-02  0.1614255E+00
          2   -1    0    0  502    0  0.00000000000E+00  0.00000000000E+00  0.11474007083E+03  0.11474007083E+03  0.00000000000E+00 0. -1.
          1   -1    0    0  501    0 -0.00000000000E+00 -0.00000000000E+00 -0.13991088854E+04  0.13991088854E+04  0.00000000000E+00 0. -1.
         25    2    1    2    0    0  0.44198929696E+02  0.53917096669E+01 -0.27095544602E+03  0.30170152321E+03  0.12499735782E+03 0.  0.
          2    1    1    2  501    0 -0.33129353786E+02 -0.22529409436E+02 -0.11113684106E+04  0.11120903167E+04  0.00000000000E+00 0. -1.
          1    1    1    2  502    0 -0.11069575911E+02  0.17137699769E+02  0.97955042060E+02  0.10005711633E+03  0.00000000000E+00 0. -1.
         22    1    3    3    0    0  0.42439659216E+02 -0.29569476835E+02 -0.25989215510E+03  0.26498945435E+03  0.00000000000E+00 0. -1.
         22    1    3    3    0    0  0.17592704802E+01  0.34961186501E+02 -0.11063290922E+02  0.36712068864E+02  0.00000000000E+00 0. -1.
</event>
<event>
 7    1  0.6262315E-006  0.1107107E+03  0.7818608E-02  0.1271418E+00
          2   -1    0    0  502    0  0.00000000000E+00  0.00000000000E+00  0.17643998469E+04  0.17643998469E+04  0.00000000000E+00 0. -1.
          1   -1    0    0  501    0 -0.00000000000E+00 -0.00000000000E+00 -0.14641933891E+03  0.14641933891E+03  0.00000000000E+00 0. -1.
         25    2    1    2    0    0 -0.85335867172E+02 -0.17657561767E+03  0.15260591854E+03  0.27816445296E+03  0.12500295010E+03 0.  0.
          2    1    1    2  501    0  0.69718813187E+02  0.69358991439E+02 -0.52117430528E+02  0.11129963688E+03  0.00000000000E+00 0. -1.
          1    1    1    2  502    0  0.15617053985E+02  0.10721662623E+03  0.15174920199E+04  0.15213550959E+04  0.00000000000E+00 0. -1.
         22    1    3    3    0    0 -0.61235960825E+02 -0.16919238778E+03  0.72161795127E+02  0.19386395141E+03  0.00000000000E+00 0. -1.
         22    1    3    3    0    0 -0.24099906347E+02 -0.73832298981E+01  0.80444123416E+02  0.84300501552E+02  0.00000000000E+00 0. -1.
</event>
<event>
 7    1  0.6262315E-006  0.8920287E+02  0.7818608E-02  0.1319904E+00
          2   -1    0    0  502    0  0.00000000000E+00  0.00000000000E+00  0.13287936757E+04  0.13287936757E+04  0.00000000000E+00 0. -1.
          1   -1    0    0  501    0 -0.00000000000E+00 -0.00000000000E+00 -0.50813780738E+03  0.50813780738E+03  0.00000000000E+00 0. -1.
         25    2    1    2    0    0  0.13964433338E+03  0.85490351606E+02  0.21248751607E+02  0.20709116545E+03  0.12500440513E+03 0.  0.
          2    1    1    2  501    0 -0.70620853387E+02 -0.49567095461E+02 -0.40947009456E+03  0.41846142023E+03  0.00000000000E+00 0. -1.
          1    1    1    2  502    0 -0.69023479988E+02 -0.35923256145E+02  0.12088772113E+04  0.12113788974E+04  0.00000000000E+00 0. -1.
         22    1    3    3    0    0 -0.20194083389E+02  0.18244166949E+02  0.19837119297E+02  0.33677320760E+02  0.00000000000E+00 0.  1.
         22    1    3    3    0    0  0.15983841676E+03  0.67246184657E+02  0.14116323092E+01  0.17341384469E+03  0.00000000000E+00 0.  1.
</event>
<event>
 7    1  0.6262315E-006  0.8802425E+02  0.7818608E-02  0.1308663E+00
          2   -1    0    0  502    0  0.00000000000E+00  0.00000000000E+00  0.37104660349E+03  0.37104660349E+03  0.00000000000E+00 0. -1.
          1   -1    0    0  501    0 -0.00000000000E+00 -0.00000000000E+00 -0.54864682278E+03  0.54864682278E+03  0.00000000000E+00 0. -1.
         25    2    1    2    0    0  0.21733874554E+02  0.49225949517E+02 -0.19966080050E+03  0.24163129062E+03  0.12500275974E+03 0.  0.
          2    1    1    2  501    0  0.67954494648E+02 -0.54743807737E+02 -0.31622575660E+03  0.32804485512E+03  0.00000000000E+00 0. -1.
          1    1    1    2  502    0 -0.89688369202E+02  0.55178582196E+01  0.33828633781E+03  0.35001728054E+03  0.00000000000E+00 0. -1.
         22    1    3    3    0    0  0.24205843415E+02  0.41738311509E+02 -0.69362161106E+01  0.48745467451E+02  0.00000000000E+00 0. -1.
         22    1    3    3    0    0 -0.24719688617E+01  0.74876380086E+01 -0.19272458439E+03  0.19288582317E+03  0.00000000000E+00 0. -1.
</event>
<event>
 7    1  0.6262315E-006  0.1212547E+03  0.7818608E-02  0.1274518E+00
          2   -1    0    0  502    0  0.00000000000E+00  0.00000000000E+00  0.19130835926E+04  0.19130835926E+04  0.00000000000E+00 0. -1.
          1   -1    0    0  501    0 -0.00000000000E+00 -0.00000000000E+00 -0.16934802365E+03  0.16934802365E+03  0.00000000000E+00 0. -1.
         25    2    1    2    0    0  0.56116408879E+01 -0.12559767106E+03  0.16576672284E+03  0.24270863566E+03  0.12499043936E+03 0.  0.
          2    1    1    2  501    0  0.77013696269E+02  0.97875824522E+02 -0.99859283024E+02  0.15963290026E+03  0.00000000000E+00 0. -1.
          1    1    1    2  502    0 -0.82625337156E+02  0.27721846539E+02  0.16778281292E+04  0.16800900804E+04  0.00000000000E+00 0. -1.
         22    1    3    3    0    0  0.55089441719E+02 -0.10481243579E+03  0.85082330611E+02  0.14580636566E+03  0.00000000000E+00 0. -1.
         22    1    3    3    0    0 -0.49477800831E+02 -0.20785235268E+02  0.80684392231E+02  0.96902269993E+02  0.00000000000E+00 0. -1.
</event>
<event>
 7    1  0.6262315E-006  0.1022433E+03  0.7818608E-02  0.1465758E+00
          2   -1    0    0  502    0  0.00000000000E+00  0.00000000000E+00  0.23981385167E+04  0.23981385167E+04  0.00000000000E+00 0. -1.
          1   -1    0    0  501    0 -0.00000000000E+00 -0.00000000000E+00 -0.22239548023E+03  0.22239548023E+03  0.00000000000E+00 0. -1.
         25    2    1    2    0    0 -0.11762116318E+03 -0.23576550657E+02  0.13607504958E+04  0.13717348259E+04  0.12499571626E+03 0.  0.
          2    1    1    2  501    0  0.10161257388E+03  0.98902277453E+01 -0.20477521493E+03  0.22881394281E+03  0.00000000000E+00 0. -1.
          1    1    1    2  502    0  0.16008589306E+02  0.13686322912E+02  0.10197677556E+04  0.10199852282E+04  0.00000000000E+00 0. -1.
         22    1    3    3    0    0 -0.11766209488E+03  0.35727876436E+01  0.65710846979E+03  0.66756922822E+03  0.00000000000E+00 0. -1.
         22    1    3    3    0    0  0.40931701696E-01 -0.27149338301E+02  0.70364202596E+03  0.70416559767E+03  0.00000000000E+00 0. -1.
</event>
<event>
 7    1  0.6262315E-006  0.8406214E+02  0.7818608E-02  0.1373576E+00
          2   -1    0    0  502    0  0.00000000000E+00  0.00000000000E+00  0.75214493638E+02  0.75214493638E+02  0.00000000000E+00 0. -1.
          1   -1    0    0  501    0 -0.00000000000E+00 -0.00000000000E+00 -0.59011661199E+03  0.59011661199E+03  0.00000000000E+00 0. -1.
         25    2    1    2    0    0 -0.96573994042E+02 -0.20689376594E+02 -0.15474403618E+03  0.22209229863E+03  0.12499874299E+03 0.  0.
          2    1    1    2  501    0  0.60362522088E+02  0.58156896158E+02 -0.37875046674E+03  0.38791464873E+03  0.00000000000E+00 0. -1.
          1    1    1    2  502    0  0.36211471955E+02 -0.37467519564E+02  0.18592384574E+02  0.55324158264E+02  0.00000000000E+00 0. -1.
         22    1    3    3    0    0 -0.15548221392E+02 -0.63739604961E+02 -0.47752975926E+02  0.81146972456E+02  0.00000000000E+00 0. -1.
         22    1    3    3    0    0 -0.81025772650E+02  0.43050228367E+02 -0.10699106026E+03  0.14094532618E+03  0.00000000000E+00 0. -1.
</event>
<event>
 7    1  0.6262315E-006  0.4990201E+02  0.7818608E-02  0.1542326E+00
          2   -1    0    0  502    0  0.00000000000E+00  0.00000000000E+00  0.83317251744E+03  0.83317251744E+03  0.00000000000E+00 0. -1.
          1   -1    0    0  501    0 -0.00000000000E+00 -0.00000000000E+00 -0.49493420855E+02  0.49493420855E+02  0.00000000000E+00 0. -1.
         25    2    1    2    0    0  0.65431202483E+02 -0.27353455138E+02  0.42206811418E+03  0.44586519888E+03  0.12499931520E+03 0.  0.
          2    1    1    2  501    0 -0.19079317047E+02  0.17014522049E+02 -0.31648862016E+02  0.40683716232E+02  0.00000000000E+00 0. -1.
          1    1    1    2  502    0 -0.46351885436E+02  0.10338933089E+02  0.39325984442E+03  0.39611702318E+03  0.00000000000E+00 0. -1.
         22    1    3    3    0    0  0.69379530971E+02 -0.25340527487E+02  0.43025860833E+03  0.43655255318E+03  0.00000000000E+00 0. -1.
         22    1    3    3    0    0 -0.39483284878E+01 -0.20129276503E+01 -0.81904941459E+01  0.93126456996E+01  0.00000000000E+00 0. -1.
</event>
<event>
 7    1  0.6262315E-006  0.3969157E+02  0.7818608E-02  0.1523707E+00
          2   -1    0    0  502    0  0.00000000000E+00  0.00000000000E+00  0.83956603701E+02  0.83956603701E+02  0.00000000000E+00 0. -1.
          1   -1    0    0  501    0 -0.00000000000E+00 -0.00000000000E+00 -0.14505469059E+04  0.14505469059E+04  0.00000000000E+00 0. -1.
         25    2    1    2    0    0  0.31742227298E+02 -0.53107966006E+02 -0.96050408523E+02  0.16934803150E+03  0.12500019899E+03 0.  0.
          2    1    1    2  501    0 -0.33418907020E+02  0.14230507946E+02 -0.13095508313E+04  0.13100544685E+04  0.00000000000E+00 0. -1.
          1    1    1    2  502    0  0.16766797216E+01  0.38877458060E+02  0.39010937644E+02  0.55101009573E+02  0.00000000000E+00 0. -1.
         22    1    3    3    0    0 -0.97737123905E+01 -0.43328806572E+01  0.27871547973E+02  0.29851674913E+02  0.00000000000E+00 0. -1.
         22    1    3    3    0    0  0.41515939689E+02 -0.48775085349E+02 -0.12392195650E+03  0.13949635659E+03  0.00000000000E+00 0. -1.
</event>
<event>
 7    1  0.6262315E-006  0.1175450E+03  0.7818608E-02  0.1310206E+00
          2   -1    0    0  502    0  0.00000000000E+00  0.00000000000E+00  0.12241882905E+03  0.12241882905E+03  0.00000000000E+00 0. -1.
          1   -1    0    0  501    0 -0.00000000000E+00 -0.00000000000E+00 -0.25242159328E+04  0.25242159328E+04  0.00000000000E+00 0. -1.
         25    2    1    2    0    0  0.73859748518E+02  0.55271457567E+02 -0.80515257873E+02  0.17498153823E+03  0.12500254197E+03 0.  0.
          2    1    1    2  501    0 -0.13894046954E+02  0.62921827492E+02 -0.23372693028E+04  0.23381573930E+04  0.00000000000E+00 0. -1.
          1    1    1    2  502    0 -0.59965701564E+02 -0.11819328506E+03  0.15987456934E+02  0.13349583056E+03  0.00000000000E+00 0. -1.
         22    1    3    3    0    0  0.79237731629E+02 -0.18353557249E+02 -0.37765176497E+02  0.89675413204E+02  0.00000000000E+00 0.  1.
         22    1    3    3    0    0 -0.53779831116E+01  0.73625014816E+02 -0.42750081375E+02  0.85306125024E+02  0.00000000000E+00 0.  1.
</event>
<event>
 7    1  0.6262315E-006  0.1339455E+03  0.7818608E-02  0.1327295E+00
          2   -1    0    0  502    0  0.00000000000E+00  0.00000000000E+00  0.16589511992E+04  0.16589511992E+04  0.00000000000E+00 0. -1.
          1   -1    0    0  501    0 -0.00000000000E+00 -0.00000000000E+00 -0.57632195953E+02  0.57632195953E+02  0.00000000000E+00 0. -1.
         25    2    1    2    0    0  0.89375653766E+01  0.12879968020E+03  0.50335070957E+03  0.53446747204E+03  0.12499721658E+03 0.  0.
          2    1    1    2  501    0  0.48336105441E+02 -0.42974654151E+01 -0.22364474803E+02  0.53432359404E+02  0.00000000000E+00 0. -1.
          1    1    1    2  502    0 -0.57273670818E+02 -0.12450221478E+03  0.11203327684E+04  0.11286835637E+04  0.00000000000E+00 0. -1.
         22    1    3    3    0    0 -0.55578348173E+02  0.43500074929E+02  0.24195769894E+03  0.25204114224E+03  0.00000000000E+00 0. -1.
         22    1    3    3    0    0  0.64515913550E+02  0.85299605269E+02  0.26139301063E+03  0.28242632980E+03  0.00000000000E+00 0. -1.
</event>
<event>
 7    1  0.6262315E-006  0.1192165E+03  0.7818608E-02  0.1347929E+00
          2   -1    0    0  502    0  0.00000000000E+00  0.00000000000E+00  0.23655538862E+03  0.23655538862E+03  0.00000000000E+00 0. -1.
          1   -1    0    0  501    0 -0.00000000000E+00 -0.00000000000E+00 -0.14225919791E+03  0.14225919791E+03  0.00000000000E+00 0. -1.
         25    2    1    2    0    0 -0.77418560318E+02  0.12329166816E+03 -0.29442389811E-01  0.19188523424E+03  0.12500189331E+03 0.  0.
          2    1    1    2  501    0  0.42487913493E+02 -0.16467421114E+02  0.10608467926E+02  0.46786091340E+02  0.00000000000E+00 0. -1.
          1    1    1    2  502    0  0.34930646825E+02 -0.10682424705E+03  0.83717165168E+02  0.14014326095E+03  0.00000000000E+00 0. -1.
         22    1    3    3    0    0 -0.19396705540E+02  0.63322534817E+02 -0.59810573125E+02  0.89237213420E+02  0.00000000000E+00 0.  1.
         22    1    3    3    0    0 -0.58021854777E+02  0.59969133345E+02  0.59781130735E+02  0.10264802082E+03  0.00000000000E+00 0.  1.
</event>
<event>
 7    1  0.6262315E-006  0.6284926E+02  0.7818608E-02  0.1423251E+00
          2   -1    0    0  502    0  0.00000000000E+00  0.00000000000E+00  0.28922158799E+03  0.28922158799E+03  0.00000000000E+00 0. -1.
          1   -1    0    0  501    0 -0.00000000000E+00 -0.00000000000E+00 -0.19632950696E+04  0.19632950696E+04  0.00000000000E+00 0. -1.
         25    2    1    2    0    0  0.13466332306E+02  0.12457949395E+02 -0.39725229318E+02  0.13243874423E+03  0.12500153807E+03 0.  0.
          2    1    1    2  501    0  0.39604965882E+02  0.25271935497E+02 -0.18725484681E+04  0.18731377391E+04  0.00000000000E+00 0. -1.
          1    1    1    2  502    0 -0.53071298187E+02 -0.37729884892E+02  0.23820021578E+03  0.24694017434E+03  0.00000000000E+00 0. -1.
         22    1    3    3    0    0 -0.16078228367E+02  0.63799379954E+02 -0.30385213755E+02  0.72471591157E+02  0.00000000000E+00 0. -1.
         22    1    3    3    0    0  0.29544560673E+02 -0.51341430559E+02 -0.93400155634E+01  0.59967153076E+02  0.00000000000E+00 0. -1.
</event>
<event>
 7    1  0.6262315E-006  0.8326144E+02  0.7818608E-02  0.1461854E+00
          2   -1    0    0  502    0  0.00000000000E+00  0.00000000000E+00  0.39840502852E+04  0.39840502852E+04  0.00000000000E+00 0. -1.
          1   -1    0    0  501    0 -0.00000000000E+00 -0.00000000000E+00 -0.27058472499E+02  0.27058472499E+02  0.00000000000E+00 0. -1.
         25    2    1    2    0    0  0.65383199898E+02 -0.32103490131E+02  0.88507018013E+03  0.89681627060E+03  0.12499841020E+03 0.  0.
          2    1    1    2  501    0 -0.41575942185E+01 -0.26276186885E+02 -0.12018733602E+02  0.29192011652E+02  0.00000000000E+00 0. -1.
          1    1    1    2  502    0 -0.61225605680E+02  0.58379677017E+02  0.30839403661E+04  0.30851004754E+04  0.00000000000E+00 0. -1.
         22    1    3    3    0    0  0.30547184457E+02  0.42639945911E+02  0.51529250139E+03  0.51795526588E+03  0.00000000000E+00 0. -1.
         22    1    3    3    0    0  0.34836015441E+02 -0.74743436042E+02  0.36977767874E+03  0.37886100472E+03  0.00000000000E+00 0. -1.
</event>
<event>
 7    1  0.6262315E-006  0.1471093E+03  0.7818608E-02  0.1245880E+00
          2   -1    0    0  502    0  0.00000000000E+00  0.00000000000E+00  0.16407020263E+04  0.16407020263E+04  0.00000000000E+00 0. -1.
          1   -1    0    0  501    0 -0.00000000000E+00 -0.00000000000E+00 -0.12647298663E+03  0.12647298663E+03  0.00000000000E+00 0. -1.
         25    2    1    2    0    0 -0.87269930870E+02  0.28407310154E+02  0.11010392913E+03  0.19018936172E+03  0.12500440791E+03 0.  0.
          2    1    1    2  501    0  0.16464208869E+03 -0.83837767659E+02  0.15834282833E+02  0.18543600828E+03  0.00000000000E+00 0. -1.
          1    1    1    2  502    0 -0.77372157819E+02  0.55430457504E+02  0.13882908277E+04  0.13915496429E+04  0.00000000000E+00 0. -1.
         22    1    3    3    0    0 -0.12579130724E+02 -0.47144147711E+02  0.36797990991E+02  0.61113806412E+02  0.00000000000E+00 0.  1.
         22    1    3    3    0    0 -0.74690800146E+02  0.75551457866E+02  0.73305938138E+02  0.12907555531E+03  0.00000000000E+00 0.  1.
</event>
<event>
 7    1  0.9584253E-006  0.5712524E+02  0.7818608E-02  0.1460640E+00
          2   -1    0    0  502    0  0.00000000000E+00  0.00000000000E+00  0.13674577387E+04  0.13674577387E+04  0.00000000000E+00 0. -1.
          1   -1    0    0  501    0 -0.00000000000E+00 -0.00000000000E+00 -0.13025362621E+04  0.13025362621E+04  0.00000000000E+00 0. -1.
         25    2    1    2    0    0  0.57420837327E+02 -0.61305868946E+01 -0.24859489128E+03  0.28418120902E+03  0.12499921174E+03 0.  0.
          2    1    1    2  501    0 -0.40268259297E+02  0.41286687928E+02 -0.10350618686E+04  0.10366673503E+04  0.00000000000E+00 0. -1.
          1    1    1    2  502    0 -0.17152578030E+02 -0.35156101034E+02  0.13485782365E+04  0.13491454415E+04  0.00000000000E+00 0. -1.
         22    1    3    3    0    0  0.27612478240E+02  0.18831048651E+02 -0.88025193095E+00  0.33433997537E+02  0.00000000000E+00 0. -1.
         22    1    3    3    0    0  0.29808359087E+02 -0.24961635545E+02 -0.24771463935E+03  0.25074721149E+03  0.00000000000E+00 0. -1.
</event>
<event>
 7    1  0.6262315E-006  0.6074617E+02  0.7818608E-02  0.1522488E+00
          2   -1    0    0  502    0  0.00000000000E+00  0.00000000000E+00  0.40855278169E+03  0.40855278169E+03  0.00000000000E+00 0. -1.
          1   -1    0    0  501    0 -0.00000000000E+00 -0.00000000000E+00 -0.26083363413E+03  0.26083363413E+03  0.00000000000E+00 0. -1.
         25    2    1    2    0    0  0.75134778087E+02  0.37961630083E+01  0.82691257794E+02  0.16768938018E+03  0.12498895302E+03 0.  0.
          2    1    1    2  501    0 -0.57108803159E+02 -0.19529631739E+02 -0.21364097032E+03  0.22200289663E+03  0.00000000000E+00 0. -1.
          1    1    1    2  502    0 -0.18025974929E+02  0.15733468731E+02  0.27866886009E+03  0.27969413901E+03  0.00000000000E+00 0. -1.
         22    1    3    3    0    0  0.25626638162E+02 -0.18929585132E+02 -0.29215939049E+02  0.43227593864E+02  0.00000000000E+00 0.  1.
         22    1    3    3    0    0  0.49508139925E+02  0.22725748140E+02  0.11190719684E+03  0.12446178631E+03  0.00000000000E+00 0.  1.
</event>
<event>
 7    1  0.6262315E-006  0.3232822E+03  0.7818608E-02  0.1126656E+00
          2   -1    0    0  502    0  0.00000000000E+00  0.00000000000E+00  0.17652322254E+04  0.17652322254E+04  0.00000000000E+00 0. -1.
          1   -1    0    0  501    0 -0.00000000000E+00 -0.00000000000E+00 -0.57326663495E+03  0.57326663495E+03  0.00000000000E+00 0. -1.
         25    2    1    2    0    0  0.59140114195E+01 -0.21010603003E+03  0.26373538187E+03  0.35967132661E+03  0.12501036816E+03 0.  0.
          2    1    1    2  501    0 -0.12423388005E+03  0.32309156701E+03 -0.46295446642E+03  0.57805627374E+03  0.00000000000E+00 0. -1.
          1    1    1    2  502    0  0.11831986863E+03 -0.11298553698E+03  0.13911846750E+04  0.14007712600E+04  0.00000000000E+00 0. -1.
         22    1    3    3    0    0  0.61767009352E+02 -0.15086496847E+03  0.17062061435E+03  0.23598049962E+03  0.00000000000E+00 0. -1.
         22    1    3    3    0    0 -0.55852997933E+02 -0.59241061554E+02  0.93114767516E+02  0.12369082699E+03  0.00000000000E+00 0. -1.
</event>
<event>
 7    1  0.6262315E-006  0.1147452E+03  0.7818608E-02  0.1379159E+00
          2   -1    0    0  502    0  0.00000000000E+00  0.00000000000E+00  0.63534195518E+03  0.63534195518E+03  0.00000000000E+00 0. -1.
          1   -1    0    0  501    0 -0.00000000000E+00 -0.00000000000E+00 -0.90022968509E+03  0.90022968509E+03  0.00000000000E+00 0. -1.
         25    2    1    2    0    0  0.13093890041E+03  0.16677099130E+01 -0.39895510387E+03  0.43810749649E+03  0.12500090673E+03 0.  0.
          2    1    1    2  501    0 -0.10733075520E+03  0.26123637285E+02 -0.47481275618E+03  0.48749306546E+03  0.00000000000E+00 0. -1.
          1    1    1    2  502    0 -0.23608145214E+02 -0.27791347198E+02  0.60888013015E+03  0.60997107832E+03  0.00000000000E+00 0. -1.
         22    1    3    3    0    0  0.97275629638E+02 -0.85538282853E+01 -0.38967364105E+03  0.40172286795E+03  0.00000000000E+00 0.  1.
         22    1    3    3    0    0  0.33663270777E+02  0.10221538198E+02 -0.92814628153E+01  0.36384628547E+02  0.00000000000E+00 0.  1.
</event>
<event>
 7    1  0.6262315E-006  0.1173023E+03  0.7818608E-02  0.1316362E+00
          2   -1    0    0  502    0  0.00000000000E+00  0.00000000000E+00  0.10615874202E+04  0.10615874202E+04  0.00000000000E+00 0. -1.
          1   -1    0    0  501    0 -0.00000000000E+00 -0.00000000000E+00 -0.26916478833E+04  0.26916478833E+04  0.00000000000E+00 0. -1.
         25    2    1    2    0    0  0.39077349843E+02  0.16911648777E+03 -0.92402477977E+02  0.23300449390E+03  0.12500180214E+03 0.  0.
          2    1    1    2  501    0  0.33717997920E+01 -0.60987464417E+02 -0.25251707107E+04  0.25259093329E+04  0.00000000000E+00 0. -1.
          1    1    1    2  502    0 -0.42449149635E+02 -0.10812902335E+03  0.98751272559E+03  0.99432147679E+03  0.00000000000E+00 0. -1.
         22    1    3    3    0    0 -0.34328081167E+02  0.11996383938E+03 -0.44258593334E+02  0.13239547953E+03  0.00000000000E+00 0. -1.
         22    1    3    3    0    0  0.73405431010E+02  0.49152648387E+02 -0.48143884642E+02  0.10060901438E+03  0.00000000000E+00 0. -1.
</event>
<event>
 7    1  0.6262315E-006  0.5836763E+02  0.7818608E-02  0.1493173E+00
          2   -1    0    0  502    0  0.00000000000E+00  0.00000000000E+00  0.48513649529E+03  0.48513649529E+03  0.00000000000E+00 0. -1.
          1   -1    0    0  501    0 -0.00000000000E+00 -0.00000000000E+00 -0.64180835430E+03  0.64180835430E+03  0.00000000000E+00 0. -1.
         25    2    1    2    0    0  0.18131014214E+02  0.68045023552E+02 -0.13394595319E+03  0.19628437895E+03  0.12500872024E+03 0.  0.
          2    1    1    2  501    0 -0.28462263050E+02 -0.10662133173E+02 -0.47433267094E+03  0.47530544309E+03  0.00000000000E+00 0. -1.
          1    1    1    2  502    0  0.10331248836E+02 -0.57382890378E+02  0.45160676512E+03  0.45535502755E+03  0.00000000000E+00 0. -1.
         22    1    3    3    0    0  0.32052764660E+02  0.15693241060E+02  0.14303263757E+02  0.38447898401E+02  0.00000000000E+00 0. -1.
         22    1    3    3    0    0 -0.13921750446E+02  0.52351782491E+02 -0.14824921695E+03  0.15783648055E+03  0.00000000000E+00 0. -1.
</event>
<event>
 7    1  0.6262315E-006  0.2180827E+03  0.7818608E-02  0.1278969E+00
          2   -1    0    0  502    0  0.00000000000E+00  0.00000000000E+00  0.55861943546E+03  0.55861943546E+03  0.00000000000E+00 0. -1.
          1   -1    0    0  501    0 -0.00000000000E+00 -0.00000000000E+00 -0.56000909684E+03  0.56000909684E+03  0.00000000000E+00 0. -1.
         25    2    1    2    0    0  0.14864742444E+03 -0.14501641580E+03  0.12711589317E+03  0.27369300436E+03  0.12499437066E+03 0.  0.
          2    1    1    2  501    0  0.40080044191E+02  0.23451697257E+02 -0.45023705562E+03  0.45262545034E+03  0.00000000000E+00 0. -1.
          1    1    1    2  502    0 -0.18872746863E+03  0.12156471855E+03  0.32173150106E+03  0.39231007760E+03  0.00000000000E+00 0. -1.
         22    1    3    3    0    0  0.16747815482E+03 -0.11310261480E+03  0.12257808486E+03  0.23636099658E+03  0.00000000000E+00 0.  1.
         22    1    3    3    0    0 -0.18830730380E+02 -0.31913801001E+02  0.45378083174E+01  0.37332007786E+02  0.00000000000E+00 0.  1.
</event>
<event>
 7    1  0.6262315E-006  0.9991176E+02  0.7818608E-02  0.1455741E+00
          2   -1    0    0  502    0  0.00000000000E+00  0.00000000000E+00  0.69756314098E+03  0.69756314098E+03  0.00000000000E+00 0. -1.
          1   -1    0    0  501    0 -0.00000000000E+00 -0.00000000000E+00 -0.18261661233E+04  0.18261661233E+04  0.00000000000E+00 0. -1.
         25    2    1    2    0    0 -0.94467380377E+02  0.36663400537E+02 -0.34591766807E+03  0.38151225760E+03  0.12499711484E+03 0.  0.
          2    1    1    2  501    0  0.12032137053E+02  0.19810259301E+02 -0.14586864336E+04  0.14588705667E+04  0.00000000000E+00 0. -1.
          1    1    1    2  502    0  0.82435243324E+02 -0.56473659838E+02  0.67600111940E+03  0.68334643998E+03  0.00000000000E+00 0. -1.
         22    1    3    3    0    0  0.29795421655E+01  0.58591313303E+02 -0.16077796094E+03  0.17114722431E+03  0.00000000000E+00 0.  1.
         22    1    3    3    0    0 -0.97446922543E+02 -0.21927912766E+02 -0.18513970714E+03  0.21036503329E+03  0.00000000000E+00 0.  1.
</event>
<event>
 7    1  0.6262315E-006  0.1074118E+03  0.7818608E-02  0.1341460E+00
          2   -1    0    0  502    0  0.00000000000E+00  0.00000000000E+00  0.19664588249E+04  0.19664588249E+04  0.00000000000E+00 0. -1.
          1   -1    0    0  501    0 -0.00000000000E+00 -0.00000000000E+00 -0.26812115792E+04  0.26812115792E+04  0.00000000000E+00 0. -1.
         25    2    1    2    0    0  0.30026862793E+01 -0.61074365468E+02  0.19279945920E+03  0.23775964934E+03  0.12497569823E+03 0.  0.
          2    1    1    2  501    0 -0.39491404781E+02  0.10015792396E+03 -0.26572329994E+04  0.26594131672E+04  0.00000000000E+00 0. -1.
          1    1    1    2  502    0  0.36488718501E+02 -0.39083558489E+02  0.17496807859E+04  0.17504975875E+04  0.00000000000E+00 0. -1.
         22    1    3    3    0    0  0.61094161097E+02 -0.34135384684E+02  0.68460485029E+02  0.97900761070E+02  0.00000000000E+00 0.  1.
         22    1    3    3    0    0 -0.58091474817E+02 -0.26938980784E+02  0.12433897417E+03  0.13985888827E+03  0.00000000000E+00 0.  1.
</event>
<event>
 7    1  0.6262315E-006  0.1535839E+03  0.7818608E-02  0.1332047E+00
          2   -1    0    0  502    0  0.00000000000E+00  0.00000000000E+00  0.77932678137E+03  0.77932678137E+03  0.00000000000E+00 0. -1.
          1   -1    0    0  501    0 -0.00000000000E+00 -0.00000000000E+00 -0.74455017964E+03  0.74455017964E+03  0.00000000000E+00 0. -1.
         25    2    1    2    0    0  0.45269475830E+01 -0.12379593154E+03 -0.92703941469E+02  0.19891034274E+03  0.12500151106E+03 0.  0.
          2    1    1    2  501    0  0.29560553184E+02 -0.27813198974E+02 -0.58972487265E+03  0.59111997577E+03  0.00000000000E+00 0. -1.
          1    1    1    2  502    0 -0.34087500767E+02  0.15160913051E+03  0.71720541585E+03  0.73384664248E+03  0.00000000000E+00 0. -1.
         22    1    3    3    0    0 -0.15623631146E+02 -0.14504547020E+03 -0.69747690761E+02  0.16170042252E+03  0.00000000000E+00 0. -1.
         22    1    3    3    0    0  0.20150578729E+02  0.21249538663E+02 -0.22956250708E+02  0.37209920224E+02  0.00000000000E+00 0. -1.
</event>
<event>
 7    1  0.6262315E-006  0.5504505E+02  0.7818608E-02  0.1487475E+00
          2   -1    0    0  502    0  0.00000000000E+00  0.00000000000E+00  0.22783550414E+03  0.22783550414E+03  0.00000000000E+00 0. -1.
          1   -1    0    0  501    0 -0.00000000000E+00 -0.00000000000E+00 -0.25802304562E+03  0.25802304562E+03  0.00000000000E+00 0. -1.
         25    2    1    2    0    0 -0.53132333128E+02 -0.56902538438E+02 -0.27312137740E+02  0.14977357092E+03  0.12500090389E+03 0.  0.
          2    1    1    2  501    0  0.20370044125E+02  0.49756215663E+02 -0.16344014542E+03  0.17205609791E+03  0.00000000000E+00 0. -1.
          1    1    1    2  502    0  0.32762289003E+02  0.71463227757E+01  0.16056474167E+03  0.16402888093E+03  0.00000000000E+00 0. -1.
         22    1    3    3    0    0 -0.12024035550E+02 -0.76156751742E+02  0.24490135485E+02  0.80896198940E+02  0.00000000000E+00 0.  1.
         22    1    3    3    0    0 -0.41108297578E+02  0.19254213304E+02 -0.51802273225E+02  0.68877371981E+02  0.00000000000E+00 0.  1.
</event>
<event>
 7    1  0.6262315E-006  0.2545181E+02  0.7818608E-02  0.1655528E+00
          2   -1    0    0  502    0  0.00000000000E+00  0.00000000000E+00  0.21139257523E+03  0.21139257523E+03  0.00000000000E+00 0. -1.
          1   -1    0    0  501    0 -0.00000000000E+00 -0.00000000000E+00 -0.83519365778E+03  0.83519365778E+03  0.00000000000E+00 0. -1.
         25    2    1    2    0    0  0.30445122326E+02  0.31503898036E+02 -0.43028236013E+03  0.45020766691E+03  0.12499853136E+03 0.  0.
          2    1    1    2  501    0 -0.24386888601E+02 -0.68069701079E+01 -0.39373784654E+03  0.39455107018E+03  0.00000000000E+00 0. -1.
          1    1    1    2  502    0 -0.60582337247E+01 -0.24696927929E+02  0.20021912412E+03  0.20182749592E+03  0.00000000000E+00 0. -1.
         22    1    3    3    0    0 -0.38326040217E+02 -0.15805319649E+02 -0.79846061955E+02  0.89967144545E+02  0.00000000000E+00 0. -1.
         22    1    3    3    0    0  0.68771162542E+02  0.47309217686E+02 -0.35043629818E+03  0.36024052237E+03  0.00000000000E+00 0. -1.
</event>
<event>
 7    1  0.6262315E-006  0.4025349E+02  0.7818608E-02  0.1518811E+00
          2   -1    0    0  502    0  0.00000000000E+00  0.00000000000E+00  0.13596433431E+04  0.13596433431E+04  0.00000000000E+00 0. -1.
          1   -1    0    0  501    0 -0.00000000000E+00 -0.00000000000E+00 -0.37816787572E+02  0.37816787572E+02  0.00000000000E+00 0. -1.
         25    2    1    2    0    0 -0.17410212002E+02 -0.22945600370E+00  0.74561094433E+03  0.75621719631E+03  0.12500239823E+03 0.  0.
          2    1    1    2  501    0  0.57240995170E+01  0.39844429266E+02 -0.19058762243E+02  0.44537403124E+02  0.00000000000E+00 0. -1.
          1    1    1    2  502    0  0.11686112485E+02 -0.39614973262E+02  0.59527437346E+03  0.59670553125E+03  0.00000000000E+00 0. -1.
         22    1    3    3    0    0 -0.24635305741E+02 -0.32357476378E+02  0.79549429101E+02  0.89342130246E+02  0.00000000000E+00 0. -1.
         22    1    3    3    0    0  0.72250937387E+01  0.32128020375E+02  0.66606151523E+03  0.66687506607E+03  0.00000000000E+00 0. -1.
</event>
<event>
 7    1  0.6262315E-006  0.9114206E+02  0.7818608E-02  0.1383801E+00
          2   -1    0    0  502    0  0.00000000000E+00  0.00000000000E+00  0.14037115315E+04  0.14037115315E+04  0.00000000000E+00 0. -1.
          1   -1    0    0  501    0 -0.00000000000E+00 -0.00000000000E+00 -0.35643578223E+02  0.35643578223E+02  0.00000000000E+00 0. -1.
         25    2    1    2    0    0 -0.25076464187E+02  0.86461537745E+02  0.53053494385E+03  0.55244635564E+03  0.12500089058E+03 0.  0.
          2    1    1    2  501    0 -0.39804394073E+02 -0.19231258032E+02  0.26396758599E-01  0.44206693722E+02  0.00000000000E+00 0. -1.
          1    1    1    2  502    0  0.64880858260E+02 -0.67230279713E+02  0.83750661266E+03  0.84270206035E+03  0.00000000000E+00 0. -1.
         22    1    3    3    0    0 -0.47931799839E+02  0.95957439392E+02  0.50724403970E+03  0.51846099509E+03  0.00000000000E+00 0.  1.
         22    1    3    3    0    0  0.22855335651E+02 -0.94959016471E+01  0.23290904143E+02  0.33985360549E+02  0.00000000000E+00 0.  1.
</event>
<event>
 7    1  0.6262315E-006  0.2839666E+02  0.7818608E-02  0.1667477E+00
          2   -1    0    0  502    0  0.00000000000E+00  0.00000000000E+00  0.16220880049E+03  0.16220880049E+03  0.00000000000E+00 0. -1.
          1   -1    0    0  501    0 -0.00000000000E+00 -0.00000000000E+00 -0.91537650876E+03  0.91537650876E+03  0.00000000000E+00 0. -1.
         25    2    1    2    0    0  0.91206941305E+01 -0.39192314267E+01 -0.26871613546E+03  0.29653237268E+03  0.12499815662E+03 0.  0.
          2    1    1    2  501    0 -0.16080882373E+02  0.23979133670E+02 -0.63166079520E+03  0.63232029369E+03  0.00000000000E+00 0. -1.
          1    1    1    2  502    0  0.69601882429E+01 -0.20059902244E+02  0.14720922239E+03  0.14873264287E+03  0.00000000000E+00 0. -1.
         22    1    3    3    0    0  0.47413554753E+02 -0.30922997001E+02 -0.22648885486E+03  0.23345551673E+03  0.00000000000E+00 0.  1.
         22    1    3    3    0    0 -0.38292860622E+02  0.27003765574E+02 -0.42227280602E+02  0.63076855953E+02  0.00000000000E+00 0.  1.
</event>
<event>
 7    1  0.6262315E-006  0.1114328E+03  0.7818608E-02  0.1302125E+00
          2   -1    0    0  502    0  0.00000000000E+00  0.00000000000E+00  0.80855073465E+03  0.80855073465E+03  0.00000000000E+00 0. -1.
          1   -1    0    0  501    0 -0.00000000000E+00 -0.00000000000E+00 -0.31451779343E+03  0.31451779343E+03  0.00000000000E+00 0. -1.
         25    2    1    2    0    0 -0.44399725348E+02  0.36586712584E+02  0.87565225943E+01  0.13787985312E+03  0.12499701621E+03 0.  0.
          2    1    1    2  501    0  0.59634759595E+02 -0.10815966784E+03 -0.23272460297E+03  0.26346832661E+03  0.00000000000E+00 0. -1.
          1    1    1    2  502    0 -0.15235034248E+02  0.71572955258E+02  0.71800102160E+03  0.72172034834E+03  0.00000000000E+00 0. -1.
         22    1    3    3    0    0  0.14440971051E+02 -0.36442609657E+02 -0.13556784510E+02  0.41477606606E+02  0.00000000000E+00 0. -1.
         22    1    3    3    0    0 -0.58840696398E+02  0.73029322240E+02  0.22313307104E+02  0.96402246517E+02  0.00000000000E+00 0. -1.
</event>
<event>
 7    1  0.6262315E-006  0.1554842E+03  0.7818608E-02  0.1359200E+00
          2   -1    0    0  502    0  0.00000000000E+00  0.00000000000E+00  0.40092187053E+03  0.40092187053E+03  0.00000000000E+00 0. -1.
          1   -1    0    0  501    0 -0.00000000000E+00 -0.00000000000E+00 -0.11920098092E+04  0.11920098092E+04  0.00000000000E+00 0. -1.
         25    2    1    2    0    0 -0.14985748673E+02 -0.14031652202E+03 -0.31191861960E+01  0.18854305731E+03  0.12500182448E+03 0.  0.
          2    1    1    2  501    0  0.45289985866E+02  0.14979464367E+03 -0.10897563394E+04  0.11009352830E+04  0.00000000000E+00 0. -1.
          1    1    1    2  502    0 -0.30304237192E+02 -0.94781216571E+01  0.30178758693E+03  0.30345333942E+03  0.00000000000E+00 0. -1.
         22    1    3    3    0    0 -0.54797434122E+02 -0.13392766890E+03  0.12631709366E+02  0.14525473956E+03  0.00000000000E+00 0.  1.
         22    1    3    3    0    0  0.39811685449E+02 -0.63888531112E+01 -0.15750895562E+02  0.43288317747E+02  0.00000000000E+00 0.  1.
</event>
<event>
 7    1  0.6262315E-006  0.1319890E+03  0.7818608E-02  0.1365124E+00
          2   -1    0    0  502    0  0.00000000000E+00  0.00000000000E+00  0.39352134195E+03  0.39352134195E+03  0.00000000000E+00 0. -1.
          1   -1    0    0  501    0 -0.00000000000E+00 -0.00000000000E+00 -0.14157735088E+04  0.14157735088E+04  0.00000000000E+00 0. -1.
         25    2    1    2    0    0 -0.99261528017E+02  0.13310098358E+03 -0.25350178379E+02  0.20937493750E+03  0.12500604039E+03 0.  0.
          2    1    1    2  501    0  0.74709733927E+02 -0.10733086053E+03 -0.12940534224E+04  0.13006443472E+04  0.00000000000E+00 0. -1.
          1    1    1    2  502    0  0.24551794090E+02 -0.25770123049E+02  0.29715143384E+03  0.29927556611E+03  0.00000000000E+00 0. -1.
         22    1    3    3    0    0 -0.88558807316E+02  0.15560608672E+03 -0.35394077814E+02  0.18250659528E+03  0.00000000000E+00 0. -1.
         22    1    3    3    0    0 -0.10702720701E+02 -0.22505103138E+02  0.10043899434E+02  0.26868342217E+02  0.00000000000E+00 0. -1.
</event>
<event>
 7    1  0.6262315E-006  0.1856358E+03  0.7818608E-02  0.1252634E+00
          2   -1    0    0  502    0  0.00000000000E+00  0.00000000000E+00  0.18129128999E+04  0.18129128999E+04  0.00000000000E+00 0. -1.
          1   -1    0    0  501    0 -0.00000000000E+00 -0.00000000000E+00 -0.13995622821E+03  0.13995622821E+03  0.00000000000E+00 0. -1.
         25    2    1    2    0    0 -0.15547921624E+03  0.65194112553E+02  0.44807244874E+03  0.49479093241E+03  0.12500035392E+03 0.  0.
          2    1    1    2  501    0  0.15830405891E+02  0.68698242601E+02 -0.98221508486E+02  0.12090291567E+03  0.00000000000E+00 0. -1.
          1    1    1    2  502    0  0.13964881035E+03 -0.13389235515E+03  0.13231057315E+04  0.13371752801E+04  0.00000000000E+00 0. -1.
         22    1    3    3    0    0 -0.64288709628E+02  0.91267977227E+02  0.19748440789E+03  0.22685451993E+03  0.00000000000E+00 0. -1.
         22    1    3    3    0    0 -0.91190506612E+02 -0.26073864674E+02  0.25058804085E+03  0.26793641248E+03  0.00000000000E+00 0. -1.
</event>
<event>
 7    1  0.6262315E-006  0.7742551E+02  0.7818608E-02  0.1459983E+00
          2   -1    0    0  502    0  0.00000000000E+00  0.00000000000E+00  0.28680586284E+03  0.28680586284E+03  0.00000000000E+00 0. -1.
          1   -1    0    0  501    0 -0.00000000000E+00 -0.00000000000E+00 -0.17307817587E+03  0.17307817587E+03  0.00000000000E+00 0. -1.
         25    2    1    2    0    0  0.59963167502E+02  0.27250823794E+02 -0.42215818688E+00  0.14129333692E+03  0.12500175993E+03 0.  0.
          2    1    1    2  501    0  0.18879028450E+02 -0.22012077655E+02 -0.92717266648E+02  0.97146491509E+02  0.00000000000E+00 0. -1.
          1    1    1    2  502    0 -0.78842195952E+02 -0.52387461394E+01  0.20686711180E+03  0.22144421028E+03  0.00000000000E+00 0. -1.
         22    1    3    3    0    0  0.91800049748E+02  0.47219637025E+02  0.48385337858E+01  0.10334580138E+03  0.00000000000E+00 0.  1.
         22    1    3    3    0    0 -0.31836882246E+02 -0.19968813231E+02 -0.52606919727E+01  0.37947535533E+02  0.00000000000E+00 0.  1.
</event>
<event>
 7    1  0.6262315E-006  0.1645373E+03  0.7818608E-02  0.1281203E+00
          2   -1    0    0  502    0  0.00000000000E+00  0.00000000000E+00  0.15317766785E+04  0.15317766785E+04  0.00000000000E+00 0. -1.
          1   -1    0    0  501    0 -0.00000000000E+00 -0.00000000000E+00 -0.60610015723E+03  0.60610015723E+03  0.00000000000E+00 0. -1.
         25    2    1    2    0    0  0.81687016288E+02  0.19993965896E+03 -0.29976179006E+02  0.25134036515E+03  0.12499908796E+03 0.  0.
          2    1    1    2  501    0  0.20794365317E+01 -0.60219069179E+02 -0.45879680202E+03  0.46273660530E+03  0.00000000000E+00 0. -1.
          1    1    1    2  502    0 -0.83766452820E+02 -0.13972058978E+03  0.14144495023E+04  0.14237998653E+04  0.00000000000E+00 0. -1.
         22    1    3    3    0    0  0.64971546308E+02  0.52470083891E+02 -0.56152761748E+02  0.10063570035E+03  0.00000000000E+00 0. -1.
         22    1    3    3    0    0  0.16715469980E+02  0.14746957507E+03  0.26176582742E+02  0.15070466480E+03  0.00000000000E+00 0. -1.
</event>
<event>
 7    1  0.6262315E-006  0.1130525E+03  0.7818608E-02  0.1419493E+00
          2   -1    0    0  502    0  0.00000000000E+00  0.00000000000E+00  0.17024090243E+04  0.17024090243E+04  0.00000000000E+00 0. -1.
          1   -1    0    0  501    0 -0.00000000000E+00 -0.00000000000E+00 -0.18260296442E+03  0.18260296442E+03  0.00000000000E+00 0. -1.
         25    2    1    2    0    0 -0.65502505674E+02 -0.69726283614E+02  0.27305210453E+03  0.31517664597E+03  0.12500613386E+03 0.  0.
          2    1    1    2  501    0  0.26431957175E+01 -0.26752256301E+02 -0.15805003802E+03  0.16031994330E+03  0.00000000000E+00 0. -1.
          1    1    1    2  502    0  0.62859309957E+02  0.96478539915E+02  0.14048039933E+04  0.14095153994E+04  0.00000000000E+00 0. -1.
         22    1    3    3    0    0  0.30522514412E+02 -0.18254670232E+02  0.13336272387E+03  0.13802345086E+03  0.00000000000E+00 0.  1.
         22    1    3    3    0    0 -0.96025020086E+02 -0.51471613382E+02  0.13968938066E+03  0.17715319511E+03  0.00000000000E+00 0.  1.
</event>
<event>
 7    1  0.6262315E-006  0.4929361E+02  0.7818608E-02  0.1517971E+00
          2   -1    0    0  502    0  0.00000000000E+00  0.00000000000E+00  0.70626440606E+03  0.70626440606E+03  0.00000000000E+00 0. -1.
          1   -1    0    0  501    0 -0.00000000000E+00 -0.00000000000E+00 -0.10080743780E+04  0.10080743780E+04  0.00000000000E+00 0. -1.
         25    2    1    2    0    0  0.45824759871E+02 -0.58496028994E+02  0.13737460139E+03  0.20005182706E+03  0.12500903317E+03 0.  0.
          2    1    1    2  501    0 -0.39998608283E+02  0.28670347365E+02 -0.97568560427E+03  0.97692593161E+03  0.00000000000E+00 0. -1.
          1    1    1    2  502    0 -0.58261515885E+01  0.29825681628E+02  0.53650103098E+03  0.53736102535E+03  0.00000000000E+00 0. -1.
         22    1    3    3    0    0  0.33922733550E+02 -0.98097672802E+02  0.92543692840E+02  0.13906200180E+03  0.00000000000E+00 0. -1.
         22    1    3    3    0    0  0.11902026321E+02  0.39601643808E+02  0.44830908552E+02  0.60989825254E+02  0.00000000000E+00 0. -1.
</event>
<event>
 7    1  0.6262315E-006  0.1111485E+03  0.7818608E-02  0.1348711E+00
          2   -1    0    0  502    0  0.00000000000E+00  0.00000000000E+00  0.11162736672E+04  0.11162736672E+04  0.00000000000E+00 0. -1.
          1   -1    0    0  501    0 -0.00000000000E+00 -0.00000000000E+00 -0.18843513370E+04  0.18843513370E+04  0.00000000000E+00 0. -1.
         25    2    1    2    0    0  0.54784272277E+02 -0.88144010419E+02  0.78269514140E+03  0.79937956268E+03  0.12500127119E+03 0.  0.
          2    1    1    2  501    0 -0.11722523449E+02  0.11056565807E+03 -0.18725390946E+04  0.18758371047E+04  0.00000000000E+00 0. -1.
          1    1    1    2  502    0 -0.43061748827E+02 -0.22421647648E+02  0.32176628347E+03  0.32540833682E+03  0.00000000000E+00 0. -1.
         22    1    3    3    0    0 -0.12770947608E+02 -0.49032430537E+02  0.98711918447E+02  0.11095638418E+03  0.00000000000E+00 0. -1.
         22    1    3    3    0    0  0.67555219885E+02 -0.39111579882E+02  0.68398322295E+03  0.68842317850E+03  0.00000000000E+00 0. -1.
</event>
<event>
 7    1  0.6262315E-006  0.5440638E+02  0.7818608E-02  0.1541731E+00
          2   -1    0    0  502    0  0.00000000000E+00  0.00000000000E+00  0.42588126018E+03  0.42588126018E+03  0.00000000000E+00 0. -1.
          1   -1    0    0  501    0 -0.00000000000E+00 -0.00000000000E+00 -0.36994451723E+04  0.36994451723E+04  0.00000000000E+00 0. -1.
         25    2    1    2    0    0 -0.57436567591E+02 -0.34192140280E+02  0.24949284207E+03  0.28694850326E+03  0.12499881409E+03 0.  0.
          2    1    1    2  501    0  0.53270786901E+02  0.11025527863E+02 -0.36796366273E+04  0.36800387291E+04  0.00000000000E+00 0. -1.
          1    1    1    2  502    0  0.41657806902E+01  0.23166612417E+02  0.15657987304E+03  0.15833920014E+03  0.00000000000E+00 0. -1.
         22    1    3    3    0    0 -0.89196979996E+02 -0.49883860381E+02  0.21211022383E+03  0.23544691083E+03  0.00000000000E+00 0.  1.
         22    1    3    3    0    0  0.31760412406E+02  0.15691720102E+02  0.37382618242E+02  0.51501592428E+02  0.00000000000E+00 0.  1.
</event>
<event>
 7    1  0.6262315E-006  0.1137281E+03  0.7818608E-02  0.1260543E+00
          2   -1    0    0  502    0  0.00000000000E+00  0.00000000000E+00  0.29035381987E+04  0.29035381987E+04  0.00000000000E+00 0. -1.
          1   -1    0    0  501    0 -0.00000000000E+00 -0.00000000000E+00 -0.20375798990E+04  0.20375798990E+04  0.00000000000E+00 0. -1.
         25    2    1    2    0    0  0.59162333873E+02 -0.20466889259E+03  0.42428524242E+03  0.49095001733E+03  0.12499766094E+03 0.  0.
          2    1    1    2  501    0 -0.10377168436E+02  0.10591464355E+03 -0.20015931558E+04  0.20044203049E+04  0.00000000000E+00 0. -1.
          1    1    1    2  502    0 -0.48785165438E+02  0.98754249044E+02  0.24432662130E+04  0.24457477756E+04  0.00000000000E+00 0. -1.
         22    1    3    3    0    0  0.37734641753E+02 -0.20946864744E+03  0.41635554206E+03  0.46760341621E+03  0.00000000000E+00 0.  1.
         22    1    3    3    0    0  0.21427692120E+02  0.47997548461E+01  0.79297003604E+01  0.23346601123E+02  0.00000000000E+00 0.  1.
</event>
<event>
 7    1  0.6262315E-006  0.7137148E+02  0.7818608E-02  0.1362270E+00
          2   -1    0    0  502    0  0.00000000000E+00  0.00000000000E+00  0.39901673560E+02  0.39901673560E+02  0.00000000000E+00 0. -1.
          1   -1    0    0  501    0 -0.00000000000E+00 -0.00000000000E+00 -0.15941812702E+04  0.15941812702E+04  0.00000000000E+00 0. -1.
         25    2    1    2    0    0  0.58556784120E+02  0.13036055188E+02 -0.14679058920E+03  0.20191785551E+03  0.12499803036E+03 0.  0.
          2    1    1    2  501    0 -0.20340133750E+02  0.68411746205E+02 -0.12399115218E+04  0.12419639568E+04  0.00000000000E+00 0. -1.
          1    1    1    2  502    0 -0.38216650370E+02 -0.81447801393E+02 -0.16757748564E+03  0.19020113147E+03  0.00000000000E+00 0. -1.
         22    1    3    3    0    0  0.37115815821E+02 -0.11938501894E+02  0.11175665345E+02  0.40558687200E+02  0.00000000000E+00 0. -1.
         22    1    3    3    0    0  0.21440968299E+02  0.24974557082E+02 -0.15796625454E+03  0.16135916831E+03  0.00000000000E+00 0. -1.
</event>
<event>
 7    1  0.6262315E-006  0.1663970E+03  0.7818608E-02  0.1360142E+00
          2   -1    0    0  502    0  0.00000000000E+00  0.00000000000E+00  0.15155262204E+04  0.15155262204E+04  0.00000000000E+00 0. -1.
          1   -1    0    0  501    0 -0.00000000000E+00 -0.00000000000E+00 -0.16229401496E+04  0.16229401496E+04  0.00000000000E+00 0. -1.
         25    2    1    2    0    0 -0.17695271182E+03  0.58673527029E+02  0.93274604642E+03  0.95937282019E+03  0.12500470400E+03 0.  0.
          2    1    1    2  501    0  0.15030819658E+03 -0.71184571300E+02 -0.16049464715E+04  0.16135405088E+04  0.00000000000E+00 0. -1.
          1    1    1    2  502    0  0.26644515238E+02  0.12511044271E+02  0.56478649582E+03  0.56555304109E+03  0.00000000000E+00 0. -1.
         22    1    3    3    0    0 -0.16313098415E+03  0.54001604248E+02  0.92837224874E+03  0.94414136838E+03  0.00000000000E+00 0. -1.
         22    1    3    3    0    0 -0.13821727669E+02  0.46719227812E+01  0.43737976769E+01  0.15231451814E+02  0.00000000000E+00 0. -1.
</event>
<event>
 7    1  0.6262315E-006  0.6509621E+02  0.7818608E-02  0.1381247E+00
          2   -1    0    0  502    0  0.00000000000E+00  0.00000000000E+00  0.68947806217E+03  0.68947806217E+03  0.00000000000E+00 0. -1.
          1   -1    0    0  501    0 -0.00000000000E+00 -0.00000000000E+00 -0.80936532987E+03  0.80936532987E+03  0.00000000000E+00 0. -1.
         25    2    1    2    0    0  0.89579870842E+02  0.91329354394E+02 -0.24854517840E+03  0.30621530409E+03  0.12501000968E+03 0.  0.
          2    1    1    2  501    0 -0.44237054312E+02 -0.45125749051E+02 -0.52851249256E+03  0.53227690632E+03  0.00000000000E+00 0. -1.
          1    1    1    2  502    0 -0.45342816530E+02 -0.46203605343E+02  0.65717040326E+03  0.66035118163E+03  0.00000000000E+00 0. -1.
         22    1    3    3    0    0  0.11038237188E+03  0.10407144532E+03 -0.19252686563E+03  0.24511574357E+03  0.00000000000E+00 0.  1.
         22    1    3    3    0    0 -0.20802501043E+02 -0.12742090928E+02 -0.56018312766E+02  0.61099560522E+02  0.00000000000E+00 0.  1.
</event>
<event>
 7    1  0.6262315E-006  0.2577570E+02  0.7818608E-02  0.1674599E+00
          2   -1    0    0  502    0  0.00000000000E+00  0.00000000000E+00  0.22801511640E+03  0.22801511640E+03  0.00000000000E+00 0. -1.
          1   -1    0    0  501    0 -0.00000000000E+00 -0.00000000000E+00 -0.15159182241E+04  0.15159182241E+04  0.00000000000E+00 0. -1.
         25    2    1    2    0    0 -0.42735436978E+01  0.35125729098E+02 -0.10123364858E+04  0.10206380556E+04  0.12499920075E+03 0.  0.
          2    1    1    2  501    0  0.18490171899E+02 -0.17694748603E+02 -0.49853686302E+03  0.49919334368E+03  0.00000000000E+00 0. -1.
          1    1    1    2  502    0 -0.14216628202E+02 -0.17430980496E+02  0.22297024112E+03  0.22410194114E+03  0.00000000000E+00 0. -1.
         22    1    3    3    0    0 -0.41149078156E+02 -0.29776582821E+02 -0.28594175210E+03  0.29041793524E+03  0.00000000000E+00 0. -1.
         22    1    3    3    0    0  0.36875534458E+02  0.64902311919E+02 -0.72639473366E+03  0.73022012039E+03  0.00000000000E+00 0. -1.
</event>
<event>
 7    1  0.6262315E-006  0.5482017E+02  0.7818608E-02  0.1428369E+00
          2   -1    0    0  502    0  0.00000000000E+00  0.00000000000E+00  0.69979220177E+03  0.69979220177E+03  0.00000000000E+00 0. -1.
          1   -1    0    0  501    0 -0.00000000000E+00 -0.00000000000E+00 -0.20865057174E+03  0.20865057174E+03  0.00000000000E+00 0. -1.
         25    2    1    2    0    0  0.17292983053E+02  0.18687886705E+02  0.66899978377E+02  0.14403643335E+03  0.12499041025E+03 0.  0.
          2    1    1    2  501    0 -0.53906247098E+02  0.17955382658E+02 -0.16416736570E+03  0.17372162561E+03  0.00000000000E+00 0. -1.
          1    1    1    2  502    0  0.36613264045E+02 -0.36643269363E+02  0.58840901736E+03  0.59068471455E+03  0.00000000000E+00 0. -1.
         22    1    3    3    0    0  0.41634888402E+02 -0.27433274369E+02  0.76199940504E+02  0.91063051825E+02  0.00000000000E+00 0. -1.
         22    1    3    3    0    0 -0.24341905348E+02  0.46121161074E+02 -0.92999621272E+01  0.52973381527E+02  0.00000000000E+00 0. -1.
</event>
<event>
 7    1  0.6262315E-006  0.1934696E+03  0.7818608E-02  0.1253105E+00
          2   -1    0    0  502    0  0.00000000000E+00  0.00000000000E+00  0.14363083521E+04  0.14363083521E+04  0.00000000000E+00 0. -1.
          1   -1    0    0  501    0 -0.00000000000E+00 -0.00000000000E+00 -0.23988588192E+04  0.23988588192E+04  0.00000000000E+00 0. -1.
         25    2    1    2    0    0 -0.16981541414E+03 -0.18858468411E+03  0.27399549469E+02  0.28421691564E+03  0.12500824719E+03 0.  0.
          2    1    1    2  501    0  0.11031257063E+03  0.15708017110E+03 -0.22655039060E+04  0.22736206789E+04  0.00000000000E+00 0. -1.
          1    1    1    2  502    0  0.59502843512E+02  0.31504513004E+02  0.12755538894E+04  0.12773295767E+04  0.00000000000E+00 0. -1.
         22    1    3    3    0    0 -0.43071808396E+01  0.17754591412E+02  0.37052498443E+01  0.18641518162E+02  0.00000000000E+00 0. -1.
         22    1    3    3    0    0 -0.16550823330E+03 -0.20633927552E+03  0.23694299625E+02  0.26557539748E+03  0.00000000000E+00 0. -1.
</event>
<event>
 7    1  0.6262315E-006  0.2308897E+03  0.7818608E-02  0.1222037E+00
          2   -1    0    0  502    0  0.00000000000E+00  0.00000000000E+00  0.16264180120E+04  0.16264180120E+04  0.00000000000E+00 0. -1.
          1   -1    0    0  501    0 -0.00000000000E+00 -0.00000000000E+00 -0.80444922529E+03  0.80444922529E+03  0.00000000000E+00 0. -1.
         25    2    1    2    0    0 -0.15787227763E+03  0.25509176774E+03 -0.29901575285E+03  0.44162808107E+03  0.12501790082E+03 0.  0.
          2    1    1    2  501    0  0.14490134606E+02 -0.76077309179E+02 -0.42212871102E+03  0.42917405518E+03  0.00000000000E+00 0. -1.
          1    1    1    2  502    0  0.14338214302E+03 -0.17901445856E+03  0.15431132505E+04  0.15600651010E+04  0.00000000000E+00 0. -1.
         22    1    3    3    0    0 -0.13553649853E+03  0.26139425898E+03 -0.29718322428E+03  0.41834790528E+03  0.00000000000E+00 0.  1.
         22    1    3    3    0    0 -0.22335779100E+02 -0.63024912406E+01 -0.18325285730E+01  0.23280175790E+02  0.00000000000E+00 0.  1.
</event>
<event>
 7    1  0.6262315E-006  0.4214071E+02  0.7818608E-02  0.1501010E+00
          2   -1    0    0  502    0  0.00000000000E+00  0.00000000000E+00  0.20994896274E+03  0.20994896274E+03  0.00000000000E+00 0. -1.
          1   -1    0    0  501    0 -0.00000000000E+00 -0.00000000000E+00 -0.20632420576E+03  0.20632420576E+03  0.00000000000E+00 0. -1.
         25    2    1    2    0    0  0.40328184137E+02 -0.68811212281E+02  0.87106375085E+01  0.14853871667E+03  0.12500611894E+03 0.  0.
          2    1    1    2  501    0 -0.25278730265E+02  0.31877894218E+02 -0.13020485161E+03  0.13641304090E+03  0.00000000000E+00 0. -1.
          1    1    1    2  502    0 -0.15049453871E+02  0.36933318063E+02  0.12511897109E+03  0.13132141094E+03  0.00000000000E+00 0. -1.
         22    1    3    3    0    0 -0.35911510188E+02 -0.21198922675E+00  0.26260150308E+02  0.44489066046E+02  0.00000000000E+00 0.  1.
         22    1    3    3    0    0  0.76239694325E+02 -0.68599223055E+02 -0.17549512799E+02  0.10404965062E+03  0.00000000000E+00 0.  1.
</event>
<event>
 7    1  0.6262315E-006  0.1524023E+03  0.7818608E-02  0.1296343E+00
          2   -1    0    0  502    0  0.00000000000E+00  0.00000000000E+00  0.16293792941E+03  0.16293792941E+03  0.00000000000E+00 0. -1.
          1   -1    0    0  501    0 -0.00000000000E+00 -0.00000000000E+00 -0.70719318278E+03  0.70719318278E+03  0.00000000000E+00 0. -1.
         25    2    1    2    0    0 -0.79380221188E+02 -0.11799873605E+03 -0.45398985938E+03  0.49189062869E+03  0.12499870779E+03 0.  0.
          2    1    1    2  501    0  0.13535891769E+03  0.11081801483E+03 -0.19333437150E+03  0.26073137175E+03  0.00000000000E+00 0. -1.
          1    1    1    2  502    0 -0.55978696506E+02  0.71807212121E+01  0.10306897751E+03  0.11750911175E+03  0.00000000000E+00 0. -1.
         22    1    3    3    0    0 -0.80988584831E+02 -0.60042108495E+02 -0.40054076341E+03  0.41303402864E+03  0.00000000000E+00 0. -1.
         22    1    3    3    0    0  0.16083636429E+01 -0.57956627551E+02 -0.53449095968E+02  0.78856600044E+02  0.00000000000E+00 0. -1.
</event>
<event>
 7    1  0.6262315E-006  0.4780098E+02  0.7818608E-02  0.1495285E+00
          2   -1    0    0  502    0  0.00000000000E+00  0.00000000000E+00  0.28405972834E+04  0.28405972834E+04  0.00000000000E+00 0. -1.
          1   -1    0    0  501    0 -0.00000000000E+00 -0.00000000000E+00 -0.16290490819E+02  0.16290490819E+02  0.00000000000E+00 0. -1.
         25    2    1    2    0    0 -0.35683917810E+02 -0.61521639157E+02  0.13475494081E+04  0.13552020897E+04  0.12500017066E+03 0.  0.
          2    1    1    2  501    0  0.20176509508E+01  0.47231957075E+02  0.33443560050E+02  0.57908551988E+02  0.00000000000E+00 0. -1.
          1    1    1    2  502    0  0.33666266859E+02  0.14289682082E+02  0.14433138244E+04  0.14437771325E+04  0.00000000000E+00 0. -1.
         22    1    3    3    0    0 -0.61587589487E+01  0.38237589375E+02  0.44286157399E+03  0.44455192865E+03  0.00000000000E+00 0.  1.
         22    1    3    3    0    0 -0.29525158861E+02 -0.99759228531E+02  0.90468783408E+03  0.91065016105E+03  0.00000000000E+00 0.  1.
</event>
<event>
 7    1  0.6262315E-006  0.7628126E+02  0.7818608E-02  0.1367262E+00
          2   -1    0    0  502    0  0.00000000000E+00  0.00000000000E+00  0.40708209068E+03  0.40708209068E+03  0.00000000000E+00 0. -1.
          1   -1    0    0  501    0 -0.00000000000E+00 -0.00000000000E+00 -0.89468837553E+02  0.89468837553E+02  0.00000000000E+00 0. -1.
         25    2    1    2    0    0 -0.87802083124E+02  0.40774628114E+02  0.27917134563E+03  0.32084496679E+03  0.12503230140E+03 0.  0.
          2    1    1    2  501    0  0.33890081561E+02 -0.68230516515E+02 -0.32189813560E+02  0.82705048873E+02  0.00000000000E+00 0. -1.
          1    1    1    2  502    0  0.53912001562E+02  0.27455888401E+02  0.70631721062E+02  0.93000912579E+02  0.00000000000E+00 0. -1.
         22    1    3    3    0    0 -0.44307301623E+02 -0.29942944952E+02  0.37510135411E+02  0.65320189743E+02  0.00000000000E+00 0.  1.
         22    1    3    3    0    0 -0.43494781501E+02  0.70717573066E+02  0.24166121022E+03  0.25552477704E+03  0.00000000000E+00 0.  1.
</event>
<event>
 7    1  0.6262315E-006  0.1554003E+03  0.7818608E-02  0.1267059E+00
          2   -1    0    0  502    0  0.00000000000E+00  0.00000000000E+00  0.15438519584E+04  0.15438519584E+04  0.00000000000E+00 0. -1.
          1   -1    0    0  501    0 -0.00000000000E+00 -0.00000000000E+00 -0.29768831986E+03  0.29768831986E+03  0.00000000000E+00 0. -1.
         25    2    1    2    0    0 -0.88712869157E+02 -0.10028477804E+03  0.56822033278E+03  0.59701485016E+03  0.12500149941E+03 0.  0.
          2    1    1    2  501    0  0.37092044259E+02 -0.62969006428E+02 -0.27078341733E+03  0.28047205676E+03  0.00000000000E+00 0. -1.
          1    1    1    2  502    0  0.51620824899E+02  0.16325378447E+03  0.94872672311E+03  0.96405337137E+03  0.00000000000E+00 0. -1.
         22    1    3    3    0    0 -0.40935925370E+02 -0.82939352687E+02  0.51569265378E+03  0.52392136754E+03  0.00000000000E+00 0. -1.
         22    1    3    3    0    0 -0.47776943787E+02 -0.17345425350E+02  0.52527679008E+02  0.73093482611E+02  0.00000000000E+00 0. -1.
</event>
<event>
 7    1  0.6262315E-006  0.7485846E+02  0.7818608E-02  0.1399363E+00
          2   -1    0    0  502    0  0.00000000000E+00  0.00000000000E+00  0.96619327172E+02  0.96619327172E+02  0.00000000000E+00 0. -1.
          1   -1    0    0  501    0 -0.00000000000E+00 -0.00000000000E+00 -0.26965441187E+04  0.26965441187E+04  0.00000000000E+00 0. -1.
         25    2    1    2    0    0 -0.46028352465E+02  0.72043453373E+02 -0.80915977995E+03  0.82320867691E+03  0.12499643130E+03 0.  0.
          2    1    1    2  501    0  0.47423235016E+02  0.28675164723E+01 -0.18643403333E+04  0.18649455929E+04  0.00000000000E+00 0. -1.
          1    1    1    2  502    0 -0.13948825508E+01 -0.74910969846E+02  0.73575321735E+02  0.10500917612E+03  0.00000000000E+00 0. -1.
         22    1    3    3    0    0  0.14556356071E+02  0.23617719066E+02 -0.59137265231E+03  0.59202305534E+03  0.00000000000E+00 0.  1.
         22    1    3    3    0    0 -0.60584708536E+02  0.48425734307E+02 -0.21778712764E+03  0.23118562156E+03  0.00000000000E+00 0.  1.
</event>
<event>
 7    1  0.6262315E-006  0.6670431E+02  0.7818608E-02  0.1415997E+00
          2   -1    0    0  502    0  0.00000000000E+00  0.00000000000E+00  0.37683271656E+04  0.37683271656E+04  0.00000000000E+00 0. -1.
          1   -1    0    0  501    0 -0.00000000000E+00 -0.00000000000E+00 -0.89780836364E+03  0.89780836364E+03  0.00000000000E+00 0. -1.
         25    2    1    2    0    0  0.60408365859E+02  0.31788691539E+01  0.21538463632E+03  0.25627094919E+03  0.12499992785E+03 0.  0.
          2    1    1    2  501    0 -0.13571297980E+02  0.44796453952E+02 -0.87642249806E+03  0.87767152029E+03  0.00000000000E+00 0. -1.
          1    1    1    2  502    0 -0.46837067879E+02 -0.47975323106E+02  0.35315566637E+04  0.35321930597E+04  0.00000000000E+00 0. -1.
         22    1    3    3    0    0 -0.32721966102E+02 -0.21970185037E+02  0.40295694656E+02  0.56366294041E+02  0.00000000000E+00 0. -1.
         22    1    3    3    0    0  0.93130331961E+02  0.25149054190E+02  0.17508894166E+03  0.19990465515E+03  0.00000000000E+00 0. -1.
</event>
<event>
 7    1  0.6262315E-006  0.8941049E+02  0.7818608E-02  0.1397822E+00
          2   -1    0    0  502    0  0.00000000000E+00  0.00000000000E+00  0.96432527582E+03  0.96432527582E+03  0.00000000000E+00 0. -1.
          1   -1    0    0  501    0 -0.00000000000E+00 -0.00000000000E+00 -0.11947821937E+03  0.11947821937E+03  0.00000000000E+00 0. -1.
         25    2    1    2    0    0  0.25443813748E+02 -0.10766908532E+03  0.44531666153E+03  0.47557983758E+03  0.12501693200E+03 0.  0.
          2    1    1    2  501    0 -0.33279742616E+02  0.22669131746E+02 -0.96677048534E+02  0.10472765879E+03  0.00000000000E+00 0. -1.
          1    1    1    2  502    0  0.78359288676E+01  0.84999953577E+02  0.49620744346E+03  0.50349599882E+03  0.00000000000E+00 0. -1.
         22    1    3    3    0    0 -0.49684034284E+02 -0.26616631313E+02  0.14438711356E+03  0.15499866737E+03  0.00000000000E+00 0. -1.
         22    1    3    3    0    0  0.75127848033E+02 -0.81052454011E+02  0.30092954797E+03  0.32058117021E+03  0.00000000000E+00 0. -1.
</event>
<event>
 7    1  0.6262315E-006  0.9319727E+02  0.7818608E-02  0.1328123E+00
          2   -1    0    0  502    0  0.00000000000E+00  0.00000000000E+00  0.48769283553E+04  0.48769283553E+04  0.00000000000E+00 0. -1.
          1   -1    0    0  501    0 -0.00000000000E+00 -0.00000000000E+00 -0.85698280145E+02  0.85698280145E+02  0.00000000000E+00 0. -1.
         25    2    1    2    0    0  0.76200700303E+02  0.18457089037E+02  0.56003667411E+03  0.57914758258E+03  0.12499454067E+03 0.  0.
          2    1    1    2  501    0 -0.48475809382E+02 -0.81899589821E+02 -0.46014488356E+02  0.10571083221E+03  0.00000000000E+00 0. -1.
          1    1    1    2  502    0 -0.27724890921E+02  0.63442500784E+02  0.42772078894E+04  0.42777682207E+04  0.00000000000E+00 0. -1.
         22    1    3    3    0    0  0.58121857839E+02  0.18742674070E+02  0.89999710813E+02  0.10876298146E+03  0.00000000000E+00 0. -1.
         22    1    3    3    0    0  0.18078842464E+02 -0.28558503346E+00  0.47003696330E+03  0.47038460112E+03  0.00000000000E+00 0. -1.
</event>
<event>
 7    1  0.6262315E-006  0.2634381E+02  0.7818608E-02  0.1672300E+00
          2   -1    0    0  502    0  0.00000000000E+00  0.00000000000E+00  0.24751904833E+03  0.24751904833E+03  0.00000000000E+00 0. -1.
          1   -1    0    0  501    0 -0.00000000000E+00 -0.00000000000E+00 -0.41723110308E+02  0.41723110308E+02  0.00000000000E+00 0. -1.
         25    2    1    2    0    0 -0.42526284896E+02 -0.20186707324E+02  0.12541528858E+03  0.18322611731E+03  0.12500730936E+03 0.  0.
          2    1    1    2  501    0  0.20967608115E+02  0.75562912101E+01  0.47254360513E+00  0.22292631616E+02  0.00000000000E+00 0. -1.
          1    1    1    2  502    0  0.21558676782E+02  0.12630416114E+02  0.79908105838E+02  0.83723409716E+02  0.00000000000E+00 0. -1.
         22    1    3    3    0    0  0.25530476015E+02 -0.44438704015E+02  0.88068917016E+02  0.10189572005E+03  0.00000000000E+00 0.  1.
         22    1    3    3    0    0 -0.68056760912E+02  0.24251996690E+02  0.37346371566E+02  0.81330397260E+02  0.00000000000E+00 0.  1.
</event>
<event>
 7    1  0.6262315E-006  0.5236636E+02  0.7818608E-02  0.1538996E+00
          2   -1    0    0  502    0  0.00000000000E+00  0.00000000000E+00  0.25505150831E+03  0.25505150831E+03  0.00000000000E+00 0. -1.
          1   -1    0    0  501    0 -0.00000000000E+00 -0.00000000000E+00 -0.91612617673E+02  0.91612617673E+02  0.00000000000E+00 0. -1.
         25    2    1    2    0    0  0.28376897513E+02  0.44592970143E+01 -0.24980250223E+02  0.13067031965E+03  0.12500234355E+03 0.  0.
          2    1    1    2  501    0  0.24000947024E+02  0.66085641135E+01  0.56250921541E+01  0.25521760116E+02  0.00000000000E+00 0. -1.
          1    1    1    2  502    0 -0.52377844537E+02 -0.11067861128E+02  0.18279404870E+03  0.19047204621E+03  0.00000000000E+00 0. -1.
         22    1    3    3    0    0 -0.34882717425E+01  0.31047538053E+02 -0.65561865138E+02  0.72625586533E+02  0.00000000000E+00 0. -1.
         22    1    3    3    0    0  0.31865169255E+02 -0.26588241039E+02  0.40581614916E+02  0.58044733115E+02  0.00000000000E+00 0. -1.
</event>
<event>
 7    1  0.1418054E-005  0.8641787E+02  0.7818608E-02  0.1397273E+00
          2   -1    0    0  502    0  0.00000000000E+00  0.00000000000E+00  0.10381310801E+04  0.10381310801E+04  0.00000000000E+00 0. -1.
          1   -1    0    0  501    0 -0.00000000000E+00 -0.00000000000E+00 -0.10716087425E+04  0.10716087425E+04  0.00000000000E+00 0. -1.
         25    2    1    2    0    0 -0.95066314639E+02 -0.54097892987E+02 -0.45556761260E+03  0.48490301982E+03  0.12499961107E+03 0.  0.
          2    1    1    2  501    0  0.39965575731E+02 -0.12394872351E+02 -0.59882044175E+03  0.60028060235E+03  0.00000000000E+00 0. -1.
          1    1    1    2  502    0  0.55100738908E+02  0.66492765338E+02  0.10209103920E+04  0.10245562004E+04  0.00000000000E+00 0. -1.
         22    1    3    3    0    0 -0.35005750148E+02  0.40748858712E+02 -0.15601280566E+03  0.16500262894E+03  0.00000000000E+00 0. -1.
         22    1    3    3    0    0 -0.60060564491E+02 -0.94846751699E+02 -0.29955480695E+03  0.31990039087E+03  0.00000000000E+00 0. -1.
</event>
<event>
 7    1  0.6262315E-006  0.2126379E+02  0.7818608E-02  0.1730597E+00
          2   -1    0    0  502    0  0.00000000000E+00  0.00000000000E+00  0.57995698180E+03  0.57995698180E+03  0.00000000000E+00 0. -1.
          1   -1    0    0  501    0 -0.00000000000E+00 -0.00000000000E+00 -0.12804299407E+03  0.12804299407E+03  0.00000000000E+00 0. -1.
         25    2    1    2    0    0  0.24147782068E+01  0.39945875547E+02  0.18321060952E+03  0.22537194906E+03  0.12499953541E+03 0.  0.
          2    1    1    2  501    0  0.41425595955E+01 -0.20764868859E+02 -0.10563751596E+03  0.10773869016E+03  0.00000000000E+00 0. -1.
          1    1    1    2  502    0 -0.65573378023E+01 -0.19181006688E+02  0.37434089416E+03  0.37488933666E+03  0.00000000000E+00 0. -1.
         22    1    3    3    0    0 -0.23906473380E+02 -0.38257591682E+02  0.91422906378E+02  0.10194758752E+03  0.00000000000E+00 0. -1.
         22    1    3    3    0    0  0.26321251586E+02  0.78203467229E+02  0.91787703144E+02  0.12342436153E+03  0.00000000000E+00 0. -1.
</event>
<event>
 7    1  0.6262315E-006  0.5809570E+02  0.7818608E-02  0.1530859E+00
          2   -1    0    0  502    0  0.00000000000E+00  0.00000000000E+00  0.97099427219E+02  0.97099427219E+02  0.00000000000E+00 0. -1.
          1   -1    0    0  501    0 -0.00000000000E+00 -0.00000000000E+00 -0.23450670342E+03  0.23450670342E+03  0.00000000000E+00 0. -1.
         25    2    1    2    0    0  0.15407584514E+02 -0.63513713542E+02 -0.11207470331E+03  0.18014920660E+03  0.12498644745E+03 0.  0.
          2    1    1    2  501    0 -0.22839651383E+02  0.62073021899E+01 -0.72877983606E+02  0.76624935695E+02  0.00000000000E+00 0. -1.
          1    1    1    2  502    0  0.74320668689E+01  0.57306411352E+02  0.47545410715E+02  0.74831988348E+02  0.00000000000E+00 0. -1.
         22    1    3    3    0    0  0.22317283443E+01 -0.22053083722E+01 -0.11719063096E+03  0.11723262336E+03  0.00000000000E+00 0. -1.
         22    1    3    3    0    0  0.13175856170E+02 -0.61308405170E+02  0.51159276451E+01  0.62916583235E+02  0.00000000000E+00 0. -1.
</event>
<event>
 7    1  0.6262315E-006  0.1454643E+03  0.7818608E-02  0.1213242E+00
          2   -1    0    0  502    0  0.00000000000E+00  0.00000000000E+00  0.20663401956E+04  0.20663401956E+04  0.00000000000E+00 0. -1.
          1   -1    0    0  501    0 -0.00000000000E+00 -0.00000000000E+00 -0.90694889630E+02  0.90694889630E+02  0.00000000000E+00 0. -1.
         25    2    1    2    0    0 -0.22039809424E+02 -0.42306986195E+02  0.12745491472E+03  0.18478616492E+03  0.12500214870E+03 0.  0.
          2    1    1    2  501    0  0.13579974912E+03 -0.52137362496E+02  0.30591567762E+02  0.14864629308E+03  0.00000000000E+00 0. -1.
          1    1    1    2  502    0 -0.11375993970E+03  0.94444348691E+02  0.18175988235E+04  0.18236026273E+04  0.00000000000E+00 0. -1.
         22    1    3    3    0    0 -0.31901870046E+02  0.31469463841E+02  0.10290156668E+02  0.45977644472E+02  0.00000000000E+00 0. -1.
         22    1    3    3    0    0  0.98620606225E+01 -0.73776450036E+02  0.11716475805E+03  0.13880852045E+03  0.00000000000E+00 0. -1.
</event>
<event>
 7    1  0.6262315E-006  0.2391874E+03  0.7818608E-02  0.1287428E+00
          2   -1    0    0  502    0  0.00000000000E+00  0.00000000000E+00  0.12709438814E+04  0.12709438814E+04  0.00000000000E+00 0. -1.
          1   -1    0    0  501    0 -0.00000000000E+00 -0.00000000000E+00 -0.15648386895E+04  0.15648386895E+04  0.00000000000E+00 0. -1.
         25    2    1    2    0    0 -0.19730306057E+03 -0.39268933934E+02 -0.43305217795E+03  0.49358873237E+03  0.12500040405E+03 0.  0.
          2    1    1    2  501    0 -0.38830073477E+02 -0.44244404734E+01 -0.10895443333E+04  0.10902450204E+04  0.00000000000E+00 0. -1.
          1    1    1    2  502    0  0.23613313405E+03  0.43693374408E+02  0.12287017031E+04  0.12519488181E+04  0.00000000000E+00 0. -1.
         22    1    3    3    0    0 -0.15014357249E+03  0.17116383292E+02 -0.20988130041E+03  0.25862370966E+03  0.00000000000E+00 0. -1.
         22    1    3    3    0    0 -0.47159488079E+02 -0.56385317226E+02 -0.22317087754E+03  0.23496502271E+03  0.00000000000E+00 0. -1.
</event>
<event>
 7    1  0.6262315E-006  0.5123117E+02  0.7818608E-02  0.1460835E+00
          2   -1    0    0  502    0  0.00000000000E+00  0.00000000000E+00  0.18867377325E+04  0.18867377325E+04  0.00000000000E+00 0. -1.
          1   -1    0    0  501    0 -0.00000000000E+00 -0.00000000000E+00 -0.53906082641E+02  0.53906082641E+02  0.00000000000E+00 0. -1.
         25    2    1    2    0    0  0.18066501506E+02  0.20005173360E+01  0.42755808245E+03  0.44583926639E+03  0.12504533993E+03 0.  0.
          2    1    1    2  501    0 -0.37453121116E+02  0.37003326395E+02 -0.28839082084E+02  0.60030618031E+02  0.00000000000E+00 0. -1.
          1    1    1    2  502    0  0.19386619610E+02 -0.39003843731E+02  0.14341126495E+04  0.14347739307E+04  0.00000000000E+00 0. -1.
         22    1    3    3    0    0  0.65963894424E+02 -0.74169833651E+01  0.33160014135E+03  0.33817879997E+03  0.00000000000E+00 0. -1.
         22    1    3    3    0    0 -0.47897392918E+02  0.94175007011E+01  0.95957941105E+02  0.10766046642E+03  0.00000000000E+00 0. -1.
</event>
<event>
 7    1  0.6262315E-006  0.2141937E+03  0.7818608E-02  0.1252140E+00
          2   -1    0    0  502    0  0.00000000000E+00  0.00000000000E+00  0.15847441961E+03  0.15847441961E+03  0.00000000000E+00 0. -1.
          1   -1    0    0  501    0 -0.00000000000E+00 -0.00000000000E+00 -0.77398399931E+03  0.77398399931E+03  0.00000000000E+00 0. -1.
         25    2    1    2    0    0 -0.17913689487E+03  0.16521630478E+03 -0.19165034804E+03  0.33427643948E+03  0.12499771046E+03 0.  0.
          2    1    1    2  501    0  0.61394340995E+02 -0.87620298990E+00 -0.38803980403E+03  0.39286756337E+03  0.00000000000E+00 0. -1.
          1    1    1    2  502    0  0.11774255387E+03 -0.16434010179E+03 -0.35819427627E+02  0.20531441607E+03  0.00000000000E+00 0. -1.
         22    1    3    3    0    0 -0.93709137546E+02  0.13094225121E+03 -0.56270847751E+02  0.17056870733E+03  0.00000000000E+00 0. -1.
         22    1    3    3    0    0 -0.85427757321E+02  0.34274053569E+02 -0.13537950029E+03  0.16370773216E+03  0.00000000000E+00 0. -1.
</event>
<event>
 7    1  0.6262315E-006  0.7623266E+02  0.7818608E-02  0.1429871E+00
          2   -1    0    0  502    0  0.00000000000E+00  0.00000000000E+00  0.71690822369E+03  0.71690822369E+03  0.00000000000E+00 0. -1.
          1   -1    0    0  501    0 -0.00000000000E+00 -0.00000000000E+00 -0.73192917112E+03  0.73192917112E+03  0.00000000000E+00 0. -1.
         25    2    1    2    0    0 -0.28928266001E+02  0.28345299088E+02  0.14120768876E+02  0.13215150608E+03  0.12499729553E+03 0.  0.
          2    1    1    2  501    0  0.56045940650E+02 -0.53263919628E+02 -0.67016251937E+03  0.67460803061E+03  0.00000000000E+00 0. -1.
          1    1    1    2  502    0 -0.27117674649E+02  0.24918620540E+02  0.64102080307E+03  0.64207785812E+03  0.00000000000E+00 0. -1.
         22    1    3    3    0    0 -0.53014455500E+02 -0.32302389680E+02  0.23186814728E+02  0.66269187774E+02  0.00000000000E+00 0. -1.
         22    1    3    3    0    0  0.24086189499E+02  0.60647688768E+02 -0.90660458522E+01  0.65882318303E+02  0.00000000000E+00 0. -1.
</event>
<event>
 7    1  0.6262315E-006  0.9579746E+02  0.7818608E-02  0.1399603E+00
          2   -1    0    0  502    0  0.00000000000E+00  0.00000000000E+00  0.41696284947E+03  0.41696284947E+03  0.00000000000E+00 0. -1.
          1   -1    0    0  501    0 -0.00000000000E+00 -0.00000000000E+00 -0.15408997841E+04  0.15408997841E+04  0.00000000000E+00 0. -1.
         25    2    1    2    0    0  0.54700176964E+02 -0.45068943637E+02 -0.41799076194E+03  0.44200114352E+03  0.12500165902E+03 0.  0.
          2    1    1    2  501    0 -0.42421979251E+01 -0.36811238217E+02 -0.11048781502E+04  0.11054993397E+04  0.00000000000E+00 0. -1.
          1    1    1    2  502    0 -0.50457979039E+02  0.81880181854E+02  0.39893197742E+03  0.41036215035E+03  0.00000000000E+00 0. -1.
         22    1    3    3    0    0  0.44238198599E+02 -0.49548703871E+02 -0.80710085869E+02  0.10452851396E+03  0.00000000000E+00 0. -1.
         22    1    3    3    0    0  0.10461978365E+02  0.44797602339E+01 -0.33728067607E+03  0.33747262955E+03  0.00000000000E+00 0. -1.
</event>
<event>
 7    1  0.6262315E-006  0.5725150E+02  0.7818608E-02  0.1475974E+00
          2   -1    0    0  502    0  0.00000000000E+00  0.00000000000E+00  0.73033183905E+03  0.73033183905E+03  0.00000000000E+00 0. -1.
          1   -1    0    0  501    0 -0.00000000000E+00 -0.00000000000E+00 -0.92643374783E+03  0.92643374783E+03  0.00000000000E+00 0. -1.
         25    2    1    2    0    0 -0.69193705901E+02 -0.51111271093E+02  0.36775674982E+02  0.15613511627E+03  0.12500237315E+03 0.  0.
          2    1    1    2  501    0  0.53412221255E+02  0.19913802236E+02 -0.86533346278E+03  0.86720898675E+03  0.00000000000E+00 0. -1.
          1    1    1    2  502    0  0.15781484646E+02  0.31197468858E+02  0.63245587902E+03  0.63342148387E+03  0.00000000000E+00 0. -1.
         22    1    3    3    0    0 -0.87458725926E+01 -0.82957740873E+02  0.20503667733E+02  0.85900392599E+02  0.00000000000E+00 0.  1.
         22    1    3    3    0    0 -0.60447833308E+02  0.31846469780E+02  0.16272007249E+02  0.70234723670E+02  0.00000000000E+00 0.  1.
</event>
<event>
 7    1  0.6262315E-006  0.3767979E+02  0.7818608E-02  0.1559411E+00
          2   -1    0    0  502    0  0.00000000000E+00  0.00000000000E+00  0.74541075822E+03  0.74541075822E+03  0.00000000000E+00 0. -1.
          1   -1    0    0  501    0 -0.00000000000E+00 -0.00000000000E+00 -0.56672147338E+03  0.56672147338E+03  0.00000000000E+00 0. -1.
         25    2    1    2    0    0 -0.98540099191E+01  0.34555174450E+02 -0.36290420115E+03  0.38550706564E+03  0.12500030740E+03 0.  0.
          2    1    1    2  501    0  0.30209402691E+02 -0.28253458387E+01 -0.19083259498E+03  0.19322957821E+03  0.00000000000E+00 0. -1.
          1    1    1    2  502    0 -0.20355392772E+02 -0.31729828611E+02  0.73242608097E+03  0.73339558775E+03  0.00000000000E+00 0. -1.
         22    1    3    3    0    0 -0.38009145449E+01 -0.41679007548E+02 -0.60378771750E+02  0.73465520482E+02  0.00000000000E+00 0.  1.
         22    1    3    3    0    0 -0.60530953742E+01  0.76234181998E+02 -0.30252542940E+03  0.31204154516E+03  0.00000000000E+00 0.  1.
</event>
<event>
 7    1  0.6262315E-006  0.6699324E+02  0.7818608E-02  0.1479332E+00
          2   -1    0    0  502    0  0.00000000000E+00  0.00000000000E+00  0.20720742075E+04  0.20720742075E+04  0.00000000000E+00 0. -1.
          1   -1    0    0  501    0 -0.00000000000E+00 -0.00000000000E+00 -0.50681992513E+02  0.50681992513E+02  0.00000000000E+00 0. -1.
         25    2    1    2    0    0 -0.16694435269E+02  0.60544742676E+02  0.11241305438E+03  0.17946185292E+03  0.12500196727E+03 0.  0.
          2    1    1    2  501    0 -0.27442410052E+02 -0.99057462591E+01 -0.37237913792E+01  0.29412179461E+02  0.00000000000E+00 0. -1.
          1    1    1    2  502    0  0.44136845320E+02 -0.50638996417E+02  0.19127029520E+04  0.19138821677E+04  0.00000000000E+00 0. -1.
         22    1    3    3    0    0 -0.34063698491E+02 -0.49923239354E+01 -0.13076996114E+02  0.36827526126E+02  0.00000000000E+00 0. -1.
         22    1    3    3    0    0  0.17369263223E+02  0.65537066612E+02  0.12549005050E+03  0.14263432679E+03  0.00000000000E+00 0. -1.
</event>
<event>
 7    1  0.6262315E-006  0.2032379E+03  0.7818608E-02  0.1317360E+00
          2   -1    0    0  502    0  0.00000000000E+00  0.00000000000E+00  0.23560729644E+04  0.23560729644E+04  0.00000000000E+00 0. -1.
          1   -1    0    0  501    0 -0.00000000000E+00 -0.00000000000E+00 -0.18950091617E+04  0.18950091617E+04  0.00000000000E+00 0. -1.
         25    2    1    2    0    0  0.43557309237E+02 -0.23328023185E+03  0.21620344502E+03  0.34450552644E+03  0.12499288920E+03 0.  0.
          2    1    1    2  501    0 -0.40433787516E+02  0.19848084934E+03 -0.18251077429E+04  0.18363136475E+04  0.00000000000E+00 0. -1.
          1    1    1    2  502    0 -0.31235217213E+01  0.34799382516E+02  0.20699681006E+04  0.20702629522E+04  0.00000000000E+00 0. -1.
         22    1    3    3    0    0  0.69794553376E+02 -0.23116116370E+03  0.18888125938E+03  0.30656629532E+03  0.00000000000E+00 0. -1.
         22    1    3    3    0    0 -0.26237244138E+02 -0.21190681556E+01  0.27322185644E+02  0.37939231123E+02  0.00000000000E+00 0. -1.
</event>
<event>
 7    1  0.6262315E-006  0.3637912E+02  0.7818608E-02  0.1614789E+00
          2   -1    0    0  502    0  0.00000000000E+00  0.00000000000E+00  0.34646488997E+03  0.34646488997E+03  0.00000000000E+00 0. -1.
          1   -1    0    0  501    0 -0.00000000000E+00 -0.00000000000E+00 -0.11521963043E+04  0.11521963043E+04  0.00000000000E+00 0. -1.
         25    2    1    2    0    0 -0.49622206932E+02  0.27727868583E+02 -0.10957199736E+03  0.17567430232E+03  0.12499695905E+03 0.  0.
          2    1    1    2  501    0  0.34367309944E+02 -0.11334736770E+02 -0.10088483310E+04  0.10094971735E+04  0.00000000000E+00 0. -1.
          1    1    1    2  502    0  0.15254896988E+02 -0.16393131813E+02  0.31268891403E+03  0.31348971851E+03  0.00000000000E+00 0. -1.
         22    1    3    3    0    0 -0.69905511508E+02 -0.16677419217E+02 -0.21563493519E+02  0.75032666910E+02  0.00000000000E+00 0.  1.
         22    1    3    3    0    0  0.20283304576E+02  0.44405287800E+02 -0.88008503839E+02  0.10064163541E+03  0.00000000000E+00 0.  1.
</event>
<event>
 7    1  0.6262315E-006  0.6066218E+02  0.7818608E-02  0.1549760E+00
          2   -1    0    0  502    0  0.00000000000E+00  0.00000000000E+00  0.61285561544E+03  0.61285561544E+03  0.00000000000E+00 0. -1.
          1   -1    0    0  501    0 -0.00000000000E+00 -0.00000000000E+00 -0.39256987212E+02  0.39256987212E+02  0.00000000000E+00 0. -1.
         25    2    1    2    0    0  0.26309317280E+02  0.56154484033E+02  0.18654078755E+03  0.23295482604E+03  0.12499991721E+03 0.  0.
          2    1    1    2  501    0 -0.19577269719E+02  0.42992928871E+01 -0.63884441275E+01  0.21037243815E+02  0.00000000000E+00 0. -1.
          1    1    1    2  502    0 -0.67320475614E+01 -0.60453776920E+02  0.39344628481E+03  0.39812053280E+03  0.00000000000E+00 0. -1.
         22    1    3    3    0    0  0.76204479572E+02  0.41837206256E+02  0.12779881175E+03  0.15456393764E+03  0.00000000000E+00 0.  1.
         22    1    3    3    0    0 -0.49895162292E+02  0.14317277776E+02  0.58741975804E+02  0.78390888401E+02  0.00000000000E+00 0.  1.
</event>
<event>
 7    1  0.6262315E-006  0.7030214E+02  0.7818608E-02  0.1445381E+00
          2   -1    0    0  502    0  0.00000000000E+00  0.00000000000E+00  0.22552232135E+03  0.22552232135E+03  0.00000000000E+00 0. -1.
          1   -1    0    0  501    0 -0.00000000000E+00 -0.00000000000E+00 -0.16486002182E+04  0.16486002182E+04  0.00000000000E+00 0. -1.
         25    2    1    2    0    0 -0.84977160132E+02  0.44957839844E+02 -0.63134753687E+03  0.65074306908E+03  0.12499801810E+03 0.  0.
          2    1    1    2  501    0  0.49445528179E+02 -0.46112797686E+02 -0.10049473106E+04  0.10072191159E+04  0.00000000000E+00 0. -1.
          1    1    1    2  502    0  0.35531631953E+02  0.11549578423E+01  0.21321695069E+03  0.21616035450E+03  0.00000000000E+00 0. -1.
         22    1    3    3    0    0  0.77384913053E+01  0.62508388510E+02 -0.27406533512E+03  0.28120986966E+03  0.00000000000E+00 0.  1.
         22    1    3    3    0    0 -0.92715651437E+02 -0.17550548666E+02 -0.35728220176E+03  0.36953319942E+03  0.00000000000E+00 0.  1.
</event>
<event>
 7    1  0.6262315E-006  0.9179207E+02  0.7818608E-02  0.1331303E+00
          2   -1    0    0  502    0  0.00000000000E+00  0.00000000000E+00  0.20556662993E+04  0.20556662993E+04  0.00000000000E+00 0. -1.
          1   -1    0    0  501    0 -0.00000000000E+00 -0.00000000000E+00 -0.26009985990E+02  0.26009985990E+02  0.00000000000E+00 0. -1.
         25    2    1    2    0    0  0.25952939736E+01  0.46409403041E+02  0.50696790784E+03  0.52421397958E+03  0.12499307409E+03 0.  0.
          2    1    1    2  501    0 -0.48217980947E+02 -0.97312032822E+02  0.16186247888E+03  0.19492066973E+03  0.00000000000E+00 0. -1.
          1    1    1    2  502    0  0.45622686974E+02  0.50902629781E+02  0.13608259266E+04  0.13625416360E+04  0.00000000000E+00 0. -1.
         22    1    3    3    0    0  0.42227016679E+02  0.65860276491E+02  0.41360757714E+03  0.42094171191E+03  0.00000000000E+00 0.  1.
         22    1    3    3    0    0 -0.39631722705E+02 -0.19450873450E+02  0.93360330695E+02  0.10327226767E+03  0.00000000000E+00 0.  1.
</event>
<event>
 7    1  0.6262315E-006  0.1675555E+03  0.7818608E-02  0.1382249E+00
          2   -1    0    0  502    0  0.00000000000E+00  0.00000000000E+00  0.31629155063E+03  0.31629155063E+03  0.00000000000E+00 0. -1.
          1   -1    0    0  501    0 -0.00000000000E+00 -0.00000000000E+00 -0.70386473132E+03  0.70386473132E+03  0.00000000000E+00 0. -1.
         25    2    1    2    0    0  0.13754703691E+03 -0.71438877946E+02  0.32047690036E+02  0.20167878844E+03  0.12499831449E+03 0.  0.
          2    1    1    2  501    0  0.23360997157E+02  0.68738847047E+01 -0.58106315949E+03  0.58157319556E+03  0.00000000000E+00 0. -1.
          1    1    1    2  502    0 -0.16090803407E+03  0.64564993241E+02  0.16144228876E+03  0.23690429794E+03  0.00000000000E+00 0. -1.
         22    1    3    3    0    0  0.10170746547E+03 -0.23064829285E+01 -0.25465173372E+02  0.10487231976E+03  0.00000000000E+00 0.  1.
         22    1    3    3    0    0  0.35839571439E+02 -0.69132395017E+02  0.57512863408E+02  0.96806468684E+02  0.00000000000E+00 0.  1.
</event>
<event>
 7    1  0.6262315E-006  0.7687338E+02  0.7818608E-02  0.1381599E+00
          2   -1    0    0  502    0  0.00000000000E+00  0.00000000000E+00  0.80264323728E+03  0.80264323728E+03  0.00000000000E+00 0. -1.
          1   -1    0    0  501    0 -0.00000000000E+00 -0.00000000000E+00 -0.19357741269E+03  0.19357741269E+03  0.00000000000E+00 0. -1.
         25    2    1    2    0    0 -0.31452127654E+02  0.12219468197E+03  0.70782496743E+02  0.19119679026E+03  0.12500109650E+03 0.  0.
          2    1    1    2  501    0  0.24674306258E+02 -0.47309976977E+02 -0.12582574260E+03  0.13667177036E+03  0.00000000000E+00 0. -1.
          1    1    1    2  502    0  0.67778213953E+01 -0.74884704990E+02  0.66410907045E+03  0.66835208936E+03  0.00000000000E+00 0. -1.
         22    1    3    3    0    0  0.17643063211E+02  0.50654751031E+02  0.87694303405E+02  0.10279821171E+03  0.00000000000E+00 0. -1.
         22    1    3    3    0    0 -0.49095190865E+02  0.71539930937E+02 -0.16911806662E+02  0.88398578547E+02  0.00000000000E+00 0. -1.
</event>
<event>
 7    1  0.6262315E-006  0.8524896E+02  0.7818608E-02  0.1407749E+00
          2   -1    0    0  502    0  0.00000000000E+00  0.00000000000E+00  0.13690392226E+04  0.13690392226E+04  0.00000000000E+00 0. -1.
          1   -1    0    0  501    0 -0.00000000000E+00 -0.00000000000E+00 -0.15271775784E+03  0.15271775784E+03  0.00000000000E+00 0. -1.
         25    2    1    2    0    0  0.10289830689E+03  0.21133962268E+02 -0.48471834341E+02  0.17032061585E+03  0.12499955014E+03 0.  0.
          2    1    1    2  501    0 -0.30790478049E+02  0.24021869712E+02 -0.32834957363E+02  0.51021938301E+02  0.00000000000E+00 0. -1.
          1    1    1    2  502    0 -0.72107828841E+02 -0.45155831979E+02  0.12976282565E+04  0.13004144263E+04  0.00000000000E+00 0. -1.
         22    1    3    3    0    0 -0.67409859872E+01  0.37390039725E+02 -0.45724067048E+02  0.59448686025E+02  0.00000000000E+00 0. -1.
         22    1    3    3    0    0  0.10963929288E+03 -0.16256077457E+02 -0.27477672925E+01  0.11087192982E+03  0.00000000000E+00 0. -1.
</event>
<event>
 7    1  0.6262315E-006  0.1601476E+03  0.7818608E-02  0.1326901E+00
          2   -1    0    0  502    0  0.00000000000E+00  0.00000000000E+00  0.22317609775E+03  0.22317609775E+03  0.00000000000E+00 0. -1.
          1   -1    0    0  501    0 -0.00000000000E+00 -0.00000000000E+00 -0.17152457830E+04  0.17152457830E+04  0.00000000000E+00 0. -1.
         25    2    1    2    0    0  0.75362701700E+02  0.15648964641E+03 -0.85395694604E+03  0.88036171017E+03  0.12500291520E+03 0.  0.
          2    1    1    2  501    0  0.25031595721E+02 -0.32128749480E+02 -0.81709147640E+03  0.81810593331E+03  0.00000000000E+00 0. -1.
          1    1    1    2  502    0 -0.10039429742E+03 -0.12436089693E+03  0.17897873716E+03  0.23995423729E+03  0.00000000000E+00 0. -1.
         22    1    3    3    0    0  0.74407616000E+01  0.11554987167E+03 -0.67156797166E+03  0.68147683624E+03  0.00000000000E+00 0. -1.
         22    1    3    3    0    0  0.67921940100E+02  0.40939774743E+02 -0.18238897438E+03  0.19888487393E+03  0.00000000000E+00 0. -1.
</event>
<event>
 7    1  0.6262315E-006  0.6563314E+02  0.7818608E-02  0.1499386E+00
          2   -1    0    0  502    0  0.00000000000E+00  0.00000000000E+00  0.14314052643E+03  0.14314052643E+03  0.00000000000E+00 0. -1.
          1   -1    0    0  501    0 -0.00000000000E+00 -0.00000000000E+00 -0.59635636991E+03  0.59635636991E+03  0.00000000000E+00 0. -1.
         25    2    1    2    0    0 -0.51665099363E+02 -0.10042599970E+02  0.64026564280E+02  0.14997826719E+03  0.12499577349E+03 0.  0.
          2    1    1    2  501    0  0.64788937389E+02 -0.12279156150E+02 -0.54649088723E+03  0.55045496992E+03  0.00000000000E+00 0. -1.
          1    1    1    2  502    0 -0.13123838025E+02  0.22321756120E+02  0.29248479466E+02  0.39063659222E+02  0.00000000000E+00 0. -1.
         22    1    3    3    0    0 -0.68601623712E+02  0.30414829958E+02  0.33586292367E+01  0.75116742791E+02  0.00000000000E+00 0.  1.
         22    1    3    3    0    0  0.16936524348E+02 -0.40457429928E+02  0.60667935043E+02  0.74861524402E+02  0.00000000000E+00 0.  1.
</event>
<event>
 7    1  0.6262315E-006  0.4668343E+02  0.7818608E-02  0.1487872E+00
          2   -1    0    0  502    0  0.00000000000E+00  0.00000000000E+00  0.20567902173E+03  0.20567902173E+03  0.00000000000E+00 0. -1.
          1   -1    0    0  501    0 -0.00000000000E+00 -0.00000000000E+00 -0.55077704998E+03  0.55077704998E+03  0.00000000000E+00 0. -1.
         25    2    1    2    0    0 -0.44494275995E+02  0.45063242279E+01  0.85312855664E+02  0.15781867015E+03  0.12501360627E+03 0.  0.
          2    1    1    2  501    0  0.81597999314E+01 -0.38575768459E+02 -0.50631610113E+03  0.50784905879E+03  0.00000000000E+00 0. -1.
          1    1    1    2  502    0  0.36334476063E+02  0.34069444231E+02  0.75905217218E+02  0.90788342765E+02  0.00000000000E+00 0. -1.
         22    1    3    3    0    0 -0.13856155158E+02  0.59651231065E+02  0.14405730697E+02  0.62910948810E+02  0.00000000000E+00 0.  1.
         22    1    3    3    0    0 -0.30638120836E+02 -0.55144906837E+02  0.70907124967E+02  0.94907721338E+02  0.00000000000E+00 0.  1.
</event>
<event>
 7    1  0.6262315E-006  0.1436582E+03  0.7818608E-02  0.1356000E+00
          2   -1    0    0  502    0  0.00000000000E+00  0.00000000000E+00  0.22693062110E+04  0.22693062110E+04  0.00000000000E+00 0. -1.
          1   -1    0    0  501    0 -0.00000000000E+00 -0.00000000000E+00 -0.68569326637E+03  0.68569326637E+03  0.00000000000E+00 0. -1.
         25    2    1    2    0    0 -0.84675316913E+02  0.11665711182E+03 -0.60889216709E+03  0.63808552359E+03  0.12499869297E+03 0.  0.
          2    1    1    2  501    0  0.31126387530E+02  0.16662957987E+02 -0.54708850099E+02  0.65111937835E+02  0.00000000000E+00 0. -1.
          1    1    1    2  502    0  0.53548929384E+02 -0.13332006981E+03  0.22472139618E+04  0.22518020160E+04  0.00000000000E+00 0. -1.
         22    1    3    3    0    0 -0.59477062343E+02 -0.10699827677E+02 -0.21635879262E+03  0.22464001068E+03  0.00000000000E+00 0.  1.
         22    1    3    3    0    0 -0.25198254570E+02  0.12735693950E+03 -0.39253337447E+03  0.41344551291E+03  0.00000000000E+00 0.  1.
</event>
<event>
 7    1  0.6262315E-006  0.1262750E+03  0.7818608E-02  0.1381676E+00
          2   -1    0    0  502    0  0.00000000000E+00  0.00000000000E+00  0.31007254625E+04  0.31007254625E+04  0.00000000000E+00 0. -1.
          1   -1    0    0  501    0 -0.00000000000E+00 -0.00000000000E+00 -0.32217388723E+03  0.32217388723E+03  0.00000000000E+00 0. -1.
         25    2    1    2    0    0 -0.15540961714E+03  0.22822389651E+02  0.29637550582E+03  0.35796065110E+03  0.12499750682E+03 0.  0.
          2    1    1    2  501    0  0.31386795757E+02 -0.82880591145E+01 -0.28906681178E+03  0.29088390218E+03  0.00000000000E+00 0. -1.
          1    1    1    2  502    0  0.12402282138E+03 -0.14534330537E+02  0.27712428813E+04  0.27740547965E+04  0.00000000000E+00 0. -1.
         22    1    3    3    0    0 -0.12002853752E+03  0.62825102139E+01  0.29537352555E+03  0.31889157930E+03  0.00000000000E+00 0.  1.
         22    1    3    3    0    0 -0.35381079617E+02  0.16539879437E+02  0.10019802783E+01  0.39069071798E+02  0.00000000000E+00 0.  1.
</event>
<event>
 7    1  0.6262315E-006  0.4617745E+02  0.7818608E-02  0.1548760E+00
          2   -1    0    0  502    0  0.00000000000E+00  0.00000000000E+00  0.94506280398E+03  0.94506280398E+03  0.00000000000E+00 0. -1.
          1   -1    0    0  501    0 -0.00000000000E+00 -0.00000000000E+00 -0.23853849125E+03  0.23853849125E+03  0.00000000000E+00 0. -1.
         25    2    1    2    0    0 -0.69004741788E+00  0.20029778097E+02  0.51285609222E+03  0.52824106829E+03  0.12496234125E+03 0.  0.
          2    1    1    2  501    0 -0.38991154460E+01 -0.46130338161E+02 -0.22810490630E+03  0.23275536402E+03  0.00000000000E+00 0. -1.
          1    1    1    2  502    0  0.45891628639E+01  0.26100560064E+02  0.42177312682E+03  0.42260486291E+03  0.00000000000E+00 0. -1.
         22    1    3    3    0    0 -0.28086006034E+02 -0.10146954007E+02  0.46247469530E+03  0.46343783640E+03  0.00000000000E+00 0.  1.
         22    1    3    3    0    0  0.27395958616E+02  0.30176732104E+02  0.50381396918E+02  0.64803231898E+02  0.00000000000E+00 0.  1.
</event>
<event>
 7    1  0.6262315E-006  0.2811549E+02  0.7818608E-02  0.1637341E+00
          2   -1    0    0  502    0  0.00000000000E+00  0.00000000000E+00  0.19073302808E+04  0.19073302808E+04  0.00000000000E+00 0. -1.
          1   -1    0    0  501    0 -0.00000000000E+00 -0.00000000000E+00 -0.34872085299E+03  0.34872085299E+03  0.00000000000E+00 0. -1.
         25    2    1    2    0    0 -0.14605981786E+02 -0.50257984642E+02 -0.64192600120E+02  0.14995528063E+03  0.12500678603E+03 0.  0.
          2    1    1    2  501    0  0.12247716180E+02  0.22264587544E+02 -0.24087272168E+03  0.24220938558E+03  0.00000000000E+00 0. -1.
          1    1    1    2  502    0  0.23582656054E+01  0.27993397098E+02  0.18636747496E+04  0.18638864676E+04  0.00000000000E+00 0. -1.
         22    1    3    3    0    0  0.34964001730E+02 -0.72611291039E+02 -0.44918360184E+02  0.92263427667E+02  0.00000000000E+00 0. -1.
         22    1    3    3    0    0 -0.49569983515E+02  0.22353306397E+02 -0.19274239936E+02  0.57691852958E+02  0.00000000000E+00 0. -1.
</event>
<event>
 7    1  0.6262315E-006  0.6982600E+02  0.7818608E-02  0.1409450E+00
          2   -1    0    0  502    0  0.00000000000E+00  0.00000000000E+00  0.18429057652E+04  0.18429057652E+04  0.00000000000E+00 0. -1.
          1   -1    0    0  501    0 -0.00000000000E+00 -0.00000000000E+00 -0.99518519068E+03  0.99518519068E+03  0.00000000000E+00 0. -1.
         25    2    1    2    0    0 -0.63662548576E+02  0.96063050383E+02  0.29376519037E+03  0.33941724215E+03  0.12500018982E+03 0.  0.
          2    1    1    2  501    0  0.23868125669E+02 -0.40544712865E+02 -0.97102507049E+03  0.97216420870E+03  0.00000000000E+00 0. -1.
          1    1    1    2  502    0  0.39794422907E+02 -0.55518337518E+02  0.15249804547E+04  0.15265095050E+04  0.00000000000E+00 0. -1.
         22    1    3    3    0    0 -0.91898655821E+02  0.52784184449E+02  0.13017969755E+03  0.16786389345E+03  0.00000000000E+00 0. -1.
         22    1    3    3    0    0  0.28236107245E+02  0.43278865934E+02  0.16358549282E+03  0.17155334870E+03  0.00000000000E+00 0. -1.
</event>
<event>
 7    1  0.6262315E-006  0.8413165E+02  0.7818608E-02  0.1373649E+00
          2   -1    0    0  502    0  0.00000000000E+00  0.00000000000E+00  0.75999101817E+03  0.75999101817E+03  0.00000000000E+00 0. -1.
          1   -1    0    0  501    0 -0.00000000000E+00 -0.00000000000E+00 -0.15188314916E+04  0.15188314916E+04  0.00000000000E+00 0. -1.
         25    2    1    2    0    0 -0.10090754014E+03  0.85888865111E+02  0.15746753925E+02  0.18284581145E+03  0.12500160678E+03 0.  0.
          2    1    1    2  501    0  0.71786019865E+02 -0.42769341831E+02 -0.14330385509E+04  0.14354727227E+04  0.00000000000E+00 0. -1.
          1    1    1    2  502    0  0.29121520276E+02 -0.43119523280E+02  0.65845132358E+03  0.66050397558E+03  0.00000000000E+00 0. -1.
         22    1    3    3    0    0 -0.88408881149E+02  0.23871751228E+02 -0.38663336549E+02  0.99402436418E+02  0.00000000000E+00 0. -1.
         22    1    3    3    0    0 -0.12498658992E+02  0.62017113883E+02  0.54410090474E+02  0.83443375030E+02  0.00000000000E+00 0. -1.
</event>
<event>
 7    1  0.6262315E-006  0.1057747E+03  0.7818608E-02  0.1387704E+00
          2   -1    0    0  502    0  0.00000000000E+00  0.00000000000E+00  0.39898870261E+04  0.39898870261E+04  0.00000000000E+00 0. -1.
          1   -1    0    0  501    0 -0.00000000000E+00 -0.00000000000E+00 -0.14909084181E+03  0.14909084181E+03  0.00000000000E+00 0. -1.
         25    2    1    2    0    0  0.80362073140E+02 -0.25737414082E+02  0.19011600334E+04  0.19071330028E+04  0.12500536208E+03 0.  0.
          2    1    1    2  501    0  0.36267583461E+02  0.68457862636E+01 -0.14207136660E+03  0.14678717794E+03  0.00000000000E+00 0. -1.
          1    1    1    2  502    0 -0.11662965660E+03  0.18891627818E+02  0.20817075174E+04  0.20850576871E+04  0.00000000000E+00 0. -1.
         22    1    3    3    0    0  0.14640830016E+02  0.47910725757E+02  0.79533203991E+03  0.79690830417E+03  0.00000000000E+00 0. -1.
         22    1    3    3    0    0  0.65721243124E+02 -0.73648139839E+02  0.11058279935E+04  0.11102246987E+04  0.00000000000E+00 0. -1.
</event>
<event>
 7    1  0.6262315E-006  0.9677336E+02  0.7818608E-02  0.1332038E+00
          2   -1    0    0  502    0  0.00000000000E+00  0.00000000000E+00  0.33453470126E+04  0.33453470126E+04  0.00000000000E+00 0. -1.
          1   -1    0    0  501    0 -0.00000000000E+00 -0.00000000000E+00 -0.20202556175E+03  0.20202556175E+03  0.00000000000E+00 0. -1.
         25    2    1    2    0    0  0.25261922125E+01 -0.13510194804E+03  0.19574235461E+03  0.26869887032E+03  0.12500038205E+03 0.  0.
          2    1    1    2  501    0 -0.43151643742E+02  0.47832318067E+02 -0.15850621647E+03  0.17109709428E+03  0.00000000000E+00 0. -1.
          1    1    1    2  502    0  0.40625451529E+02  0.87269629969E+02  0.31060853127E+04  0.31075766097E+04  0.00000000000E+00 0. -1.
         22    1    3    3    0    0 -0.14590043787E+02  0.18095667078E+02  0.56010841179E+02  0.60642698441E+02  0.00000000000E+00 0. -1.
         22    1    3    3    0    0  0.17116236000E+02 -0.15319761511E+03  0.13973151343E+03  0.20805617188E+03  0.00000000000E+00 0. -1.
</event>
<event>
 7    1  0.6262315E-006  0.8010428E+02  0.7818608E-02  0.1425862E+00
          2   -1    0    0  502    0  0.00000000000E+00  0.00000000000E+00  0.61287945325E+03  0.61287945325E+03  0.00000000000E+00 0. -1.
          1   -1    0    0  501    0 -0.00000000000E+00 -0.00000000000E+00 -0.15292994569E+03  0.15292994569E+03  0.00000000000E+00 0. -1.
         25    2    1    2    0    0  0.60013282881E+02  0.14341158547E+02  0.12206989439E+03  0.18528348248E+03  0.12498658653E+03 0.  0.
          2    1    1    2  501    0  0.60955829820E+01  0.35615070820E+02 -0.11478603484E+03  0.12033878508E+03  0.00000000000E+00 0. -1.
          1    1    1    2  502    0 -0.66108865863E+02 -0.49956229366E+02  0.45266564801E+03  0.46018713138E+03  0.00000000000E+00 0. -1.
         22    1    3    3    0    0  0.50259267189E+02  0.16208407451E+02 -0.92298130647E+01  0.53608729324E+02  0.00000000000E+00 0. -1.
         22    1    3    3    0    0  0.97540156919E+01 -0.18672489047E+01  0.13129970745E+03  0.13167475315E+03  0.00000000000E+00 0. -1.
</event>
<event>
 7    1  0.6262315E-006  0.2208287E+03  0.7818608E-02  0.1357059E+00
          2   -1    0    0  502    0  0.00000000000E+00  0.00000000000E+00  0.47046265365E+03  0.47046265365E+03  0.00000000000E+00 0. -1.
          1   -1    0    0  501    0 -0.00000000000E+00 -0.00000000000E+00 -0.34458739954E+03  0.34458739954E+03  0.00000000000E+00 0. -1.
         25    2    1    2    0    0  0.19815576174E+03  0.58056808059E+02  0.45722904431E+02  0.24566643927E+03  0.12500046609E+03 0.  0.
          2    1    1    2  501    0 -0.21321144402E+03 -0.75130062045E+02 -0.19180990070E+03  0.29647037641E+03  0.00000000000E+00 0. -1.
          1    1    1    2  502    0  0.15055682280E+02  0.17073253986E+02  0.27196225038E+03  0.27291323750E+03  0.00000000000E+00 0. -1.
         22    1    3    3    0    0  0.11302704775E+03  0.70389838268E+01  0.82195291644E+02  0.13993115016E+03  0.00000000000E+00 0. -1.
         22    1    3    3    0    0  0.85128713988E+02  0.51017824232E+02 -0.36472387213E+02  0.10573528911E+03  0.00000000000E+00 0. -1.
</event>
<event>
 7    1  0.6262315E-006  0.6495936E+02  0.7818608E-02  0.1528040E+00
          2   -1    0    0  502    0  0.00000000000E+00  0.00000000000E+00  0.30482191833E+03  0.30482191833E+03  0.00000000000E+00 0. -1.
          1   -1    0    0  501    0 -0.00000000000E+00 -0.00000000000E+00 -0.98197950029E+02  0.98197950029E+02  0.00000000000E+00 0. -1.
         25    2    1    2    0    0  0.39169744957E+02  0.49478289300E+02  0.81697483853E+02  0.16211708366E+03  0.12500039966E+03 0.  0.
          2    1    1    2  501    0 -0.21647579202E+02 -0.62048982275E+02 -0.38430310367E+02  0.76128724156E+02  0.00000000000E+00 0. -1.
          1    1    1    2  502    0 -0.17522165754E+02  0.12570692975E+02  0.16335679481E+03  0.16477406054E+03  0.00000000000E+00 0. -1.
         22    1    3    3    0    0  0.46067254710E+02 -0.24397564197E+02  0.69573032427E+02  0.86935838044E+02  0.00000000000E+00 0.  1.
         22    1    3    3    0    0 -0.68975097537E+01  0.73875853496E+02  0.12124451426E+02  0.75181245620E+02  0.00000000000E+00 0.  1.
</event>
<event>
 7    1  0.6262315E-006  0.1027195E+03  0.7818608E-02  0.1351071E+00
          2   -1    0    0  502    0  0.00000000000E+00  0.00000000000E+00  0.55206582239E+03  0.55206582239E+03  0.00000000000E+00 0. -1.
          1   -1    0    0  501    0 -0.00000000000E+00 -0.00000000000E+00 -0.12608699263E+03  0.12608699263E+03  0.00000000000E+00 0. -1.
         25    2    1    2    0    0 -0.81594074413E+02 -0.12040275462E+02  0.10177281628E+02  0.15010649651E+03  0.12500328804E+03 0.  0.
          2    1    1    2  501    0 -0.24141189214E+01 -0.51429240104E+02 -0.36847612469E+02  0.63313041725E+02  0.00000000000E+00 0. -1.
          1    1    1    2  502    0  0.84008193334E+02  0.63469515567E+02  0.45264916060E+03  0.46473327678E+03  0.00000000000E+00 0. -1.
         22    1    3    3    0    0 -0.10947669623E+03 -0.10250340728E+02  0.32152450171E+02  0.11456001289E+03  0.00000000000E+00 0. -1.
         22    1    3    3    0    0  0.27882621813E+02 -0.17899347346E+01 -0.21975168543E+02  0.35546483623E+02  0.00000000000E+00 0. -1.
</event>
<event>
 7    1  0.6262315E-006  0.1447237E+03  0.7818608E-02  0.1301811E+00
          2   -1    0    0  502    0  0.00000000000E+00  0.00000000000E+00  0.22093435423E+04  0.22093435423E+04  0.00000000000E+00 0. -1.
          1   -1    0    0  501    0 -0.00000000000E+00 -0.00000000000E+00 -0.19990051457E+03  0.19990051457E+03  0.00000000000E+00 0. -1.
         25    2    1    2    0    0  0.16741978745E+02 -0.12734870698E+03  0.88330016553E+02  0.19981279371E+03  0.12499989474E+03 0.  0.
          2    1    1    2  501    0 -0.73021876767E+02  0.13240261434E+03 -0.10400806530E+03  0.18352199982E+03  0.00000000000E+00 0. -1.
          1    1    1    2  502    0  0.56279898022E+02 -0.50539073644E+01  0.20251210765E+04  0.20259092633E+04  0.00000000000E+00 0. -1.
         22    1    3    3    0    0  0.56193512091E+02 -0.58185447182E+02  0.88891034890E+02  0.12018682602E+03  0.00000000000E+00 0.  1.
         22    1    3    3    0    0 -0.39451533346E+02 -0.69163259798E+02 -0.56101833772E+00  0.79625967691E+02  0.00000000000E+00 0.  1.
</event>
<event>
 7    1  0.6262315E-006  0.7223110E+02  0.7818608E-02  0.1401914E+00
          2   -1    0    0  502    0  0.00000000000E+00  0.00000000000E+00  0.11305111036E+03  0.11305111036E+03  0.00000000000E+00 0. -1.
          1   -1    0    0  501    0 -0.00000000000E+00 -0.00000000000E+00 -0.47716668998E+03  0.47716668998E+03  0.00000000000E+00 0. -1.
         25    2    1    2    0    0 -0.59027451593E+02 -0.71751624739E+02 -0.16315799853E+03  0.22556036305E+03  0.12499763678E+03 0.  0.
          2    1    1    2  501    0  0.66594717110E+02  0.24094229159E+02 -0.27072146623E+03  0.27983120002E+03  0.00000000000E+00 0. -1.
          1    1    1    2  502    0 -0.75672655178E+01  0.47657395580E+02  0.69763885139E+02  0.84826237278E+02  0.00000000000E+00 0. -1.
         22    1    3    3    0    0 -0.80306599376E+02 -0.65425590378E+01 -0.55248273150E+02  0.97695069825E+02  0.00000000000E+00 0.  1.
         22    1    3    3    0    0  0.21279147783E+02 -0.65209065701E+02 -0.10790972538E+03  0.12786529322E+03  0.00000000000E+00 0.  1.
</event>
<event>
 7    1  0.6262315E-006  0.5001162E+02  0.7818608E-02  0.1448047E+00
          2   -1    0    0  502    0  0.00000000000E+00  0.00000000000E+00  0.11260505617E+03  0.11260505617E+03  0.00000000000E+00 0. -1.
          1   -1    0    0  501    0 -0.00000000000E+00 -0.00000000000E+00 -0.15981833399E+03  0.15981833399E+03  0.00000000000E+00 0. -1.
         25    2    1    2    0    0 -0.83324665846E+01 -0.52506522228E+01 -0.19982572215E+02  0.12696821152E+03  0.12499849677E+03 0.  0.
          2    1    1    2  501    0  0.51212780812E+02  0.28957466971E+02 -0.61926321559E+02  0.85417522287E+02  0.00000000000E+00 0. -1.
          1    1    1    2  502    0 -0.42880314228E+02 -0.23706814749E+02  0.34695615951E+02  0.60037656350E+02  0.00000000000E+00 0. -1.
         22    1    3    3    0    0 -0.40867306706E+02  0.72241183152E+01 -0.60602633687E+02  0.73450689940E+02  0.00000000000E+00 0. -1.
         22    1    3    3    0    0  0.32534840122E+02 -0.12474770538E+02  0.40620061473E+02  0.53517521577E+02  0.00000000000E+00 0. -1.
</event>
<event>
 7    1  0.6262315E-006  0.1798842E+03  0.7818608E-02  0.1183026E+00
          2   -1    0    0  502    0  0.00000000000E+00  0.00000000000E+00  0.21324790995E+04  0.21324790995E+04  0.00000000000E+00 0. -1.
          1   -1    0    0  501    0 -0.00000000000E+00 -0.00000000000E+00 -0.18750100377E+04  0.18750100377E+04  0.00000000000E+00 0. -1.
         25    2    1    2    0    0 -0.13405601157E+03  0.16371289887E+03  0.13829088687E+03  0.28200344644E+03  0.12501458683E+03 0.  0.
          2    1    1    2  501    0  0.17947336684E+03 -0.19094859044E+02 -0.17956345774E+04  0.18046824759E+04  0.00000000000E+00 0. -1.
          1    1    1    2  502    0 -0.45417355275E+02 -0.14461803983E+03  0.19148127524E+04  0.19208032149E+04  0.00000000000E+00 0. -1.
         22    1    3    3    0    0 -0.99790203022E+02  0.25957652231E+02  0.68774175691E+02  0.12394261402E+03  0.00000000000E+00 0. -1.
         22    1    3    3    0    0 -0.34265808547E+02  0.13775524664E+03  0.69516711179E+02  0.15806083242E+03  0.00000000000E+00 0. -1.
</event>
<event>
 7    1  0.6262315E-006  0.1080338E+03  0.7818608E-02  0.1409259E+00
          2   -1    0    0  502    0  0.00000000000E+00  0.00000000000E+00  0.18301520033E+03  0.18301520033E+03  0.00000000000E+00 0. -1.
          1   -1    0    0  501    0 -0.00000000000E+00 -0.00000000000E+00 -0.23988532529E+03  0.23988532529E+03  0.00000000000E+00 0. -1.
         25    2    1    2    0    0  0.61447238260E+02 -0.52807408909E+02  0.10288880117E+03  0.18103989192E+03  0.12499980613E+03 0.  0.
          2    1    1    2  501    0 -0.87749093151E+02  0.68159405060E+02 -0.17539473591E+03  0.20762687984E+03  0.00000000000E+00 0. -1.
          1    1    1    2  502    0  0.26301854891E+02 -0.15351996151E+02  0.15635809776E+02  0.34233753868E+02  0.00000000000E+00 0. -1.
         22    1    3    3    0    0  0.17335936748E+02 -0.76375593748E+02  0.10498958955E+03  0.13098312844E+03  0.00000000000E+00 0. -1.
         22    1    3    3    0    0  0.44111301512E+02  0.23568184839E+02 -0.21007883763E+01  0.50056763474E+02  0.00000000000E+00 0. -1.
</event>
<event>
 7    1  0.6262315E-006  0.1020096E+03  0.7818608E-02  0.1284859E+00
          2   -1    0    0  502    0  0.00000000000E+00  0.00000000000E+00  0.66509961197E+03  0.66509961197E+03  0.00000000000E+00 0. -1.
          1   -1    0    0  501    0 -0.00000000000E+00 -0.00000000000E+00 -0.10716654119E+04  0.10716654119E+04  0.00000000000E+00 0. -1.
         25    2    1    2    0    0 -0.12967991413E+03 -0.71594660232E+02 -0.34528090530E+02  0.19689249933E+03  0.12502716406E+03 0.  0.
          2    1    1    2  501    0  0.38495728511E+02  0.93935066745E+02 -0.94945818196E+03  0.95486991636E+03  0.00000000000E+00 0. -1.
          1    1    1    2  502    0  0.91184185620E+02 -0.22340406513E+02  0.57742047256E+03  0.58500260820E+03  0.00000000000E+00 0. -1.
         22    1    3    3    0    0 -0.10256016028E+03  0.12604250443E+02 -0.32815311729E+02  0.10841724166E+03  0.00000000000E+00 0. -1.
         22    1    3    3    0    0 -0.27119753855E+02 -0.84198910676E+02 -0.17127788010E+01  0.88475257667E+02  0.00000000000E+00 0. -1.
</event>
<event>
 7    1  0.6262315E-006  0.5726002E+02  0.7818608E-02  0.1448730E+00
          2   -1    0    0  502    0  0.00000000000E+00  0.00000000000E+00  0.93618440948E+03  0.93618440948E+03  0.00000000000E+00 0. -1.
          1   -1    0    0  501    0 -0.00000000000E+00 -0.00000000000E+00 -0.10429331341E+04  0.10429331341E+04  0.00000000000E+00 0. -1.
         25    2    1    2    0    0  0.39639779494E+01  0.15858951914E+02  0.25791900797E+03  0.28707905349E+03  0.12499979521E+03 0.  0.
          2    1    1    2  501    0 -0.33245361586E+02 -0.46772023615E+02 -0.10268682960E+04  0.10284704049E+04  0.00000000000E+00 0. -1.
          1    1    1    2  502    0  0.29281383637E+02  0.30913071701E+02  0.66220056348E+03  0.66356808520E+03  0.00000000000E+00 0. -1.
         22    1    3    3    0    0 -0.40026545258E+02 -0.38878830726E+02  0.11779471325E+03  0.13034294102E+03  0.00000000000E+00 0. -1.
         22    1    3    3    0    0  0.43990523207E+02  0.54737782640E+02  0.14012429472E+03  0.15673611246E+03  0.00000000000E+00 0. -1.
</event>
<event>
 7    1  0.6262315E-006  0.7900708E+02  0.7818608E-02  0.1412104E+00
          2   -1    0    0  502    0  0.00000000000E+00  0.00000000000E+00  0.81706279721E+03  0.81706279721E+03  0.00000000000E+00 0. -1.
          1   -1    0    0  501    0 -0.00000000000E+00 -0.00000000000E+00 -0.11783567660E+03  0.11783567660E+03  0.00000000000E+00 0. -1.
         25    2    1    2    0    0 -0.49315430198E+02 -0.58844673887E+02  0.53431730392E+03  0.55408842449E+03  0.12499717430E+03 0.  0.
          2    1    1    2  501    0  0.13473858569E+02  0.78191707753E+02 -0.91543045299E+02  0.12114296170E+03  0.00000000000E+00 0. -1.
          1    1    1    2  502    0  0.35841571629E+02 -0.19347033866E+02  0.25645286199E+03  0.25966708763E+03  0.00000000000E+00 0. -1.
         22    1    3    3    0    0 -0.83179211850E+02 -0.48796981712E+02  0.25640994685E+03  0.27394522729E+03  0.00000000000E+00 0.  1.
         22    1    3    3    0    0  0.33863781652E+02 -0.10047692176E+02  0.27790735707E+03  0.28014319720E+03  0.00000000000E+00 0.  1.
</event>
<event>
 7    1  0.6262315E-006  0.5594729E+02  0.7818608E-02  0.1528768E+00
          2   -1    0    0  502    0  0.00000000000E+00  0.00000000000E+00  0.35250431495E+03  0.35250431495E+03  0.00000000000E+00 0. -1.
          1   -1    0    0  501    0 -0.00000000000E+00 -0.00000000000E+00 -0.97954495615E+02  0.97954495615E+02  0.00000000000E+00 0. -1.
         25    2    1    2    0    0 -0.21960456952E+01 -0.42823897920E+02  0.20800663817E+03  0.24643389692E+03  0.12499678067E+03 0.  0.
          2    1    1    2  501    0 -0.19893802831E+02 -0.15005679970E+02 -0.68770211648E+02  0.73145579719E+02  0.00000000000E+00 0. -1.
          1    1    1    2  502    0  0.22089848527E+02  0.57829577890E+02  0.11531339281E+03  0.13087933392E+03  0.00000000000E+00 0. -1.
         22    1    3    3    0    0 -0.32727840298E+02  0.18773175966E+02  0.15526853661E+03  0.15978692727E+03  0.00000000000E+00 0.  1.
         22    1    3    3    0    0  0.30531794603E+02 -0.61597073885E+02  0.52738101562E+02  0.86646969649E+02  0.00000000000E+00 0.  1.
</event>
<event>
 7    1  0.6262315E-006  0.8092403E+02  0.7818608E-02  0.1337194E+00
          2   -1    0    0  502    0  0.00000000000E+00  0.00000000000E+00  0.79872815465E+03  0.79872815465E+03  0.00000000000E+00 0. -1.
          1   -1    0    0  501    0 -0.00000000000E+00 -0.00000000000E+00 -0.46016059435E+02  0.46016059435E+02  0.00000000000E+00 0. -1.
         25    2    1    2    0    0  0.28265131438E+02 -0.14304579460E+02  0.35220144690E+03  0.37506616784E+03  0.12500092963E+03 0.  0.
          2    1    1    2  501    0 -0.26792713216E+02  0.87935045364E+02  0.37513904443E+02  0.99286024753E+02  0.00000000000E+00 0. -1.
          1    1    1    2  502    0 -0.14724182220E+01 -0.73630465904E+02  0.36299674387E+03  0.37039202149E+03  0.00000000000E+00 0. -1.
         22    1    3    3    0    0  0.41595509448E+02 -0.33472146044E+01  0.35512160446E+03  0.35756502095E+03  0.00000000000E+00 0. -1.
         22    1    3    3    0    0 -0.13330378010E+02 -0.10957364856E+02 -0.29201575546E+01  0.17501146894E+02  0.00000000000E+00 0. -1.
</event>
<event>
 7    1  0.6262315E-006  0.1070104E+03  0.7818608E-02  0.1322426E+00
          2   -1    0    0  502    0  0.00000000000E+00  0.00000000000E+00  0.52119143124E+03  0.52119143124E+03  0.00000000000E+00 0. -1.
          1   -1    0    0  501    0 -0.00000000000E+00 -0.00000000000E+00 -0.47853668939E+03  0.47853668939E+03  0.00000000000E+00 0. -1.
         25    2    1    2    0    0 -0.14857291245E+02 -0.12396576136E+03  0.96442249781E+02  0.20128220067E+03  0.12500067069E+03 0.  0.
          2    1    1    2  501    0 -0.49815275163E+02  0.39250744703E+02 -0.41603698134E+03  0.42084314470E+03  0.00000000000E+00 0. -1.
          1    1    1    2  502    0  0.64672566408E+02  0.84715016660E+02  0.36224947341E+03  0.37760277525E+03  0.00000000000E+00 0. -1.
         22    1    3    3    0    0  0.52788393675E+02 -0.57764789206E+02  0.64436424626E+02  0.10136783611E+03  0.00000000000E+00 0.  1.
         22    1    3    3    0    0 -0.67645684920E+02 -0.66200972157E+02  0.32005825155E+02  0.99914364566E+02  0.00000000000E+00 0.  1.
</event>
<event>
 7    1  0.6262315E-006  0.1432546E+03  0.7818608E-02  0.1212011E+00
          2   -1    0    0  502    0  0.00000000000E+00  0.00000000000E+00  0.44761976043E+03  0.44761976043E+03  0.00000000000E+00 0. -1.
          1   -1    0    0  501    0 -0.00000000000E+00 -0.00000000000E+00 -0.63098351975E+03  0.63098351975E+03  0.00000000000E+00 0. -1.
         25    2    1    2    0    0  0.60054937434E+02  0.74427585558E+02 -0.57804905788E+02  0.16766863251E+03  0.12500120877E+03 0.  0.
          2    1    1    2  501    0  0.64117237205E+02 -0.14586399785E+03 -0.49217532558E+03  0.51732376427E+03  0.00000000000E+00 0. -1.
          1    1    1    2  502    0 -0.12417217464E+03  0.71436412293E+02  0.36661647205E+03  0.39361088340E+03  0.00000000000E+00 0. -1.
         22    1    3    3    0    0  0.33527708007E+02  0.10167773019E+03 -0.69782833219E+02  0.12779715111E+03  0.00000000000E+00 0. -1.
         22    1    3    3    0    0  0.26527229427E+02 -0.27250144632E+02  0.11977927431E+02  0.39871481400E+02  0.00000000000E+00 0. -1.
</event>
<event>
 7    1  0.6262315E-006  0.1519948E+03  0.7818608E-02  0.1287361E+00
          2   -1    0    0  502    0  0.00000000000E+00  0.00000000000E+00  0.40229850121E+03  0.40229850121E+03  0.00000000000E+00 0. -1.
          1   -1    0    0  501    0 -0.00000000000E+00 -0.00000000000E+00 -0.14833198054E+04  0.14833198054E+04  0.00000000000E+00 0. -1.
         25    2    1    2    0    0  0.17705033058E+02  0.15096563507E+03 -0.40578366752E+03  0.45098700529E+03  0.12499921178E+03 0.  0.
          2    1    1    2  501    0 -0.76857933202E+02 -0.13399327674E+03 -0.10467348621E+04  0.10580714587E+04  0.00000000000E+00 0. -1.
          1    1    1    2  502    0  0.59152900144E+02 -0.16972358322E+02  0.37149722546E+03  0.37655984261E+03  0.00000000000E+00 0. -1.
         22    1    3    3    0    0  0.70212157380E+00 -0.16119637776E+02 -0.57512603888E+01  0.17129293412E+02  0.00000000000E+00 0.  1.
         22    1    3    3    0    0  0.17002911484E+02  0.16708527284E+03 -0.40003240713E+03  0.43385771188E+03  0.00000000000E+00 0.  1.
</event>
<event>
 7    1  0.6262315E-006  0.3611136E+03  0.7818608E-02  0.1273823E+00
          2   -1    0    0  502    0  0.00000000000E+00  0.00000000000E+00  0.73930788652E+03  0.73930788652E+03  0.00000000000E+00 0. -1.
          1   -1    0    0  501    0 -0.00000000000E+00 -0.00000000000E+00 -0.57322731649E+03  0.57322731649E+03  0.00000000000E+00 0. -1.
         25    2    1    2    0    0 -0.70185692605E+02 -0.38087736789E+03  0.44775851556E+03  0.60506592232E+03  0.12499392495E+03 0.  0.
          2    1    1    2  501    0  0.63157040797E+02  0.35226822386E+03 -0.42817115091E+03  0.55804323113E+03  0.00000000000E+00 0. -1.
          1    1    1    2  502    0  0.70286518077E+01  0.28609144022E+02  0.14649320537E+03  0.14942604956E+03  0.00000000000E+00 0. -1.
         22    1    3    3    0    0 -0.14341039774E+02 -0.31830121896E+02  0.11282457107E+03  0.11810252292E+03  0.00000000000E+00 0. -1.
         22    1    3    3    0    0 -0.55844652831E+02 -0.34904724599E+03  0.33493394449E+03  0.48696339940E+03  0.00000000000E+00 0. -1.
</event>
<event>
 7    1  0.6262315E-006  0.1606415E+03  0.7818608E-02  0.1374444E+00
          2   -1    0    0  502    0  0.00000000000E+00  0.00000000000E+00  0.29500349716E+04  0.29500349716E+04  0.00000000000E+00 0. -1.
          1   -1    0    0  501    0 -0.00000000000E+00 -0.00000000000E+00 -0.15567805991E+04  0.15567805991E+04  0.00000000000E+00 0. -1.
         25    2    1    2    0    0  0.50739247079E+02  0.16421853021E+03  0.15025054061E+04  0.15174615031E+04  0.12499888496E+03 0.  0.
          2    1    1    2  501    0 -0.24218509634E+02 -0.15877928751E+03 -0.15450118539E+04  0.15533380273E+04  0.00000000000E+00 0. -1.
          1    1    1    2  502    0 -0.26520737445E+02 -0.54392426960E+01  0.14357608204E+04  0.14360160404E+04  0.00000000000E+00 0. -1.
         22    1    3    3    0    0 -0.11362678548E+02  0.14731106423E+03  0.10018939086E+04  0.10127295119E+04  0.00000000000E+00 0.  1.
         22    1    3    3    0    0  0.62101925627E+02  0.16907465982E+02  0.50061149745E+03  0.50473199121E+03  0.00000000000E+00 0.  1.
</event>
<event>
 7    1  0.6262315E-006  0.1274734E+03  0.7818608E-02  0.1291616E+00
          2   -1    0    0  502    0  0.00000000000E+00  0.00000000000E+00  0.19236327447E+02  0.19236327447E+02  0.00000000000E+00 0. -1.
          1   -1    0    0  501    0 -0.00000000000E+00 -0.00000000000E+00 -0.32624849094E+04  0.32624849094E+04  0.00000000000E+00 0. -1.
         25    2    1    2    0    0  0.16798288796E+03  0.21766859831E+02 -0.17952739259E+04  0.18075743536E+04  0.12499811200E+03 0.  0.
          2    1    1    2  501    0 -0.49515083929E+02 -0.50196702374E+02 -0.11509422673E+04  0.11530999762E+04  0.00000000000E+00 0. -1.
          1    1    1    2  502    0 -0.11846780404E+03  0.28429842543E+02 -0.29703238872E+03  0.32104690699E+03  0.00000000000E+00 0. -1.
         22    1    3    3    0    0 -0.20283533377E+02  0.68101696236E+01 -0.21161824138E+03  0.21269715612E+03  0.00000000000E+00 0. -1.
         22    1    3    3    0    0  0.18826642134E+03  0.14956690207E+02 -0.15836556845E+04  0.15948771975E+04  0.00000000000E+00 0. -1.
</event>
<event>
 7    1  0.6262315E-006  0.8990313E+02  0.7818608E-02  0.1376053E+00
          2   -1    0    0  502    0  0.00000000000E+00  0.00000000000E+00  0.10964846687E+04  0.10964846687E+04  0.00000000000E+00 0. -1.
          1   -1    0    0  501    0 -0.00000000000E+00 -0.00000000000E+00 -0.15085486665E+03  0.15085486665E+03  0.00000000000E+00 0. -1.
         25    2    1    2    0    0 -0.17888603040E+01 -0.44724972923E+02  0.77363687158E+02  0.15366969059E+03  0.12500284193E+03 0.  0.
          2    1    1    2  501    0 -0.27129242833E+01 -0.47662111946E+02 -0.10535420890E+03  0.11566566563E+03  0.00000000000E+00 0. -1.
          1    1    1    2  502    0  0.45017845873E+01  0.92387084870E+02  0.97362032374E+03  0.97800417909E+03  0.00000000000E+00 0. -1.
         22    1    3    3    0    0 -0.58879481901E+02 -0.40030583393E+02  0.61878623466E+02  0.94330297560E+02  0.00000000000E+00 0.  1.
         22    1    3    3    0    0  0.57090621597E+02 -0.46943895302E+01  0.15485063692E+02  0.59339393028E+02  0.00000000000E+00 0.  1.
</event>
<event>
 7    1  0.6262315E-006  0.3115371E+02  0.7818608E-02  0.1603757E+00
          2   -1    0    0  502    0  0.00000000000E+00  0.00000000000E+00  0.62334975770E+03  0.62334975770E+03  0.00000000000E+00 0. -1.
          1   -1    0    0  501    0 -0.00000000000E+00 -0.00000000000E+00 -0.27336491561E+03  0.27336491561E+03  0.00000000000E+00 0. -1.
         25    2    1    2    0    0 -0.10715636033E+02 -0.34305996753E+02 -0.10521233590E+03  0.16729097271E+03  0.12499963062E+03 0.  0.
          2    1    1    2  501    0 -0.17737293759E+02  0.21563908926E+02 -0.13527628949E+03  0.13812779683E+03  0.00000000000E+00 0. -1.
          1    1    1    2  502    0  0.28452929792E+02  0.12742087828E+02  0.59047346748E+03  0.59129590377E+03  0.00000000000E+00 0. -1.
         22    1    3    3    0    0 -0.52813802442E+02  0.19140551888E+02 -0.23317453846E+02  0.60822381644E+02  0.00000000000E+00 0. -1.
         22    1    3    3    0    0  0.42098166409E+02 -0.53446548641E+02 -0.81894882058E+02  0.10646859107E+03  0.00000000000E+00 0. -1.
</event>
<event>
 7    1  0.6262315E-006  0.6658001E+02  0.7818608E-02  0.1472342E+00
          2   -1    0    0  502    0  0.00000000000E+00  0.00000000000E+00  0.19634502496E+03  0.19634502496E+03  0.00000000000E+00 0. -1.
          1   -1    0    0  501    0 -0.00000000000E+00 -0.00000000000E+00 -0.23206457077E+03  0.23206457077E+03  0.00000000000E+00 0. -1.
         25    2    1    2    0    0 -0.64520535450E+02  0.17867886241E+02 -0.13364009471E+03  0.19485194605E+03  0.12500178044E+03 0.  0.
          2    1    1    2  501    0  0.67762769380E+02  0.12812518264E+02 -0.48250125045E+02  0.84166668612E+02  0.00000000000E+00 0. -1.
          1    1    1    2  502    0 -0.32422339306E+01 -0.30680404505E+02  0.14617067394E+03  0.14939098106E+03  0.00000000000E+00 0. -1.
         22    1    3    3    0    0 -0.14316795889E+02 -0.28060854497E+02  0.12308517197E+02  0.33821321606E+02  0.00000000000E+00 0.  1.
         22    1    3    3    0    0 -0.50203739560E+02  0.45928740738E+02 -0.14594861191E+03  0.16103062444E+03  0.00000000000E+00 0.  1.
</event>
<event>
 7    1  0.6262315E-006  0.4068447E+02  0.7818608E-02  0.1544746E+00
          2   -1    0    0  502    0  0.00000000000E+00  0.00000000000E+00  0.73761187652E+03  0.73761187652E+03  0.00000000000E+00 0. -1.
          1   -1    0    0  501    0 -0.00000000000E+00 -0.00000000000E+00 -0.64177940245E+02  0.64177940245E+02  0.00000000000E+00 0. -1.
         25    2    1    2    0    0 -0.44511684867E+02 -0.11725719030E+02  0.42614722902E+03  0.44648146016E+03  0.12500180356E+03 0.  0.
          2    1    1    2  501    0  0.74277025280E+01  0.29960922637E+02 -0.48041154884E+02  0.57103241700E+02  0.00000000000E+00 0. -1.
          1    1    1    2  502    0  0.37083982339E+02 -0.18235203606E+02  0.29532786214E+03  0.29820511490E+03  0.00000000000E+00 0. -1.
         22    1    3    3    0    0 -0.26853037728E+02  0.38107706932E+02  0.35389152859E+03  0.35694887165E+03  0.00000000000E+00 0.  1.
         22    1    3    3    0    0 -0.17658647139E+02 -0.49833425962E+02  0.72255700429E+02  0.89532588516E+02  0.00000000000E+00 0.  1.
</event>
<event>
 7    1  0.6262315E-006  0.1178008E+03  0.7818608E-02  0.1320831E+00
          2   -1    0    0  502    0  0.00000000000E+00  0.00000000000E+00  0.16292890441E+04  0.16292890441E+04  0.00000000000E+00 0. -1.
          1   -1    0    0  501    0 -0.00000000000E+00 -0.00000000000E+00 -0.14325274515E+04  0.14325274515E+04  0.00000000000E+00 0. -1.
         25    2    1    2    0    0 -0.12628869671E+03 -0.28122244370E+02  0.39114462027E+02  0.18410558817E+03  0.12500092364E+03 0.  0.
          2    1    1    2  501    0  0.91090644914E+02  0.74769018807E+02 -0.13569145094E+04  0.13620223557E+04  0.00000000000E+00 0. -1.
          1    1    1    2  502    0  0.35198051794E+02 -0.46646774437E+02  0.15145616399E+04  0.15156885516E+04  0.00000000000E+00 0. -1.
         22    1    3    3    0    0 -0.62260430231E+02  0.37190840813E+02  0.55326784626E+02  0.91217174424E+02  0.00000000000E+00 0. -1.
         22    1    3    3    0    0 -0.64028266477E+02 -0.65313085183E+02 -0.16212322599E+02  0.92888413746E+02  0.00000000000E+00 0. -1.
</event>
<event>
 7    1  0.6262315E-006  0.7518606E+02  0.7818608E-02  0.1423632E+00
          2   -1    0    0  502    0  0.00000000000E+00  0.00000000000E+00  0.15252493212E+04  0.15252493212E+04  0.00000000000E+00 0. -1.
          1   -1    0    0  501    0 -0.00000000000E+00 -0.00000000000E+00 -0.46235079741E+03  0.46235079741E+03  0.00000000000E+00 0. -1.
         25    2    1    2    0    0 -0.44435879867E+02 -0.12293046540E+02 -0.61348669566E+02  0.14667602970E+03  0.12499812805E+03 0.  0.
          2    1    1    2  501    0  0.78015039764E+02 -0.78509326649E+01 -0.35378680287E+03  0.36237147440E+03  0.00000000000E+00 0. -1.
          1    1    1    2  502    0 -0.33579159897E+02  0.20143979205E+02  0.14780339963E+04  0.14785526145E+04  0.00000000000E+00 0. -1.
         22    1    3    3    0    0 -0.44524051780E+02  0.57198284588E+00 -0.98102826088E+02  0.10773524418E+03  0.00000000000E+00 0. -1.
         22    1    3    3    0    0  0.88171912596E-01 -0.12865029386E+02  0.36754156521E+02  0.38940785521E+02  0.00000000000E+00 0. -1.
</event>
<event>
 7    1  0.6262315E-006  0.5857880E+02  0.7818608E-02  0.1417824E+00
          2   -1    0    0  502    0  0.00000000000E+00  0.00000000000E+00  0.19122135748E+04  0.19122135748E+04  0.00000000000E+00 0. -1.
          1   -1    0    0  501    0 -0.00000000000E+00 -0.00000000000E+00 -0.27170717147E+02  0.27170717147E+02  0.00000000000E+00 0. -1.
         25    2    1    2    0    0  0.13515155091E+01 -0.10633447064E+02  0.54573672504E+03  0.55997206205E+03  0.12500096171E+03 0.  0.
          2    1    1    2  501    0  0.50246161836E+01  0.62797721296E+02  0.31290441557E+02  0.70341256035E+02  0.00000000000E+00 0. -1.
          1    1    1    2  502    0 -0.63761316927E+01 -0.52164274232E+02  0.13080156911E+04  0.13090709739E+04  0.00000000000E+00 0. -1.
         22    1    3    3    0    0 -0.49720955925E+02 -0.28129159260E+02  0.40889294479E+03  0.41286421903E+03  0.00000000000E+00 0.  1.
         22    1    3    3    0    0  0.51072471435E+02  0.17495712196E+02  0.13684378025E+03  0.14710784301E+03  0.00000000000E+00 0.  1.
</event>
<event>
 7    1  0.6262315E-006  0.6134279E+02  0.7818608E-02  0.1493161E+00
          2   -1    0    0  502    0  0.00000000000E+00  0.00000000000E+00  0.24985859077E+02  0.24985859077E+02  0.00000000000E+00 0. -1.
          1   -1    0    0  501    0 -0.00000000000E+00 -0.00000000000E+00 -0.99101707963E+03  0.99101707963E+03  0.00000000000E+00 0. -1.
         25    2    1    2    0    0  0.48554688047E+02  0.64103697266E+01 -0.74941768812E+03  0.76134783308E+03  0.12500000438E+03 0.  0.
          2    1    1    2  501    0 -0.75234511789E+02  0.47550575285E+01 -0.21245857408E+03  0.22543621722E+03  0.00000000000E+00 0. -1.
          1    1    1    2  502    0  0.26679823742E+02 -0.11165427255E+02 -0.41549583535E+01  0.29218888405E+02  0.00000000000E+00 0. -1.
         22    1    3    3    0    0 -0.36651866184E+02  0.63316727055E+01 -0.39857045533E+03  0.40030220738E+03  0.00000000000E+00 0.  1.
         22    1    3    3    0    0  0.85206554231E+02  0.78697021128E-01 -0.35084723279E+03  0.36104562570E+03  0.00000000000E+00 0.  1.
</event>
<event>
 7    1  0.6262315E-006  0.1428075E+03  0.7818608E-02  0.1291133E+00
          2   -1    0    0  502    0  0.00000000000E+00  0.00000000000E+00  0.24187902118E+03  0.24187902118E+03  0.00000000000E+00 0. -1.
          1   -1    0    0  501    0 -0.00000000000E+00 -0.00000000000E+00 -0.53918382378E+03  0.53918382378E+03  0.00000000000E+00 0. -1.
         25    2    1    2    0    0  0.11763176060E+03 -0.52585424047E+02  0.23311544316E+00  0.17952074098E+03  0.12500073669E+03 0.  0.
          2    1    1    2  501    0 -0.14615903820E+03 -0.38348279497E+01 -0.43031816294E+03  0.45447870325E+03  0.00000000000E+00 0. -1.
          1    1    1    2  502    0  0.28527277595E+02  0.56420251997E+02  0.13278024489E+03  0.14706340074E+03  0.00000000000E+00 0. -1.
         22    1    3    3    0    0  0.14349690100E+03 -0.51406893532E+02  0.75524105188E+01  0.15261411535E+03  0.00000000000E+00 0. -1.
         22    1    3    3    0    0 -0.25865140400E+02 -0.11785305150E+01 -0.73192950757E+01  0.26906625624E+02  0.00000000000E+00 0. -1.
</event>
<event>
 7    1  0.6262315E-006  0.1801048E+03  0.7818608E-02  0.1294594E+00
          2   -1    0    0  502    0  0.00000000000E+00  0.00000000000E+00  0.11991964064E+04  0.11991964064E+04  0.00000000000E+00 0. -1.
          1   -1    0    0  501    0 -0.00000000000E+00 -0.00000000000E+00 -0.29848036548E+03  0.29848036548E+03  0.00000000000E+00 0. -1.
         25    2    1    2    0    0 -0.39122350192E+02 -0.18108499228E+03  0.18808741534E+03  0.29210249229E+03  0.12499862992E+03 0.  0.
          2    1    1    2  501    0  0.48524245117E+02  0.11618989608E+01 -0.23551485956E+03  0.24046455341E+03  0.00000000000E+00 0. -1.
          1    1    1    2  502    0 -0.94018949250E+01  0.17992309332E+03  0.94814348510E+03  0.96510972613E+03  0.00000000000E+00 0. -1.
         22    1    3    3    0    0 -0.27060171063E+02 -0.19890138046E+03  0.15986526845E+03  0.25661433331E+03  0.00000000000E+00 0. -1.
         22    1    3    3    0    0 -0.12062179129E+02  0.17816388174E+02  0.28222146892E+02  0.35488158984E+02  0.00000000000E+00 0. -1.
</event>
<event>
 7    1  0.6262315E-006  0.5279507E+02  0.7818608E-02  0.1539011E+00
          2   -1    0    0  502    0  0.00000000000E+00  0.00000000000E+00  0.20612987752E+04  0.20612987752E+04  0.00000000000E+00 0. -1.
          1   -1    0    0  501    0 -0.00000000000E+00 -0.00000000000E+00 -0.43170714259E+03  0.43170714259E+03  0.00000000000E+00 0. -1.
         25    2    1    2    0    0  0.45018247499E+02 -0.23016814064E+02  0.17238038689E+01  0.13488026267E+03  0.12503318527E+03 0.  0.
          2    1    1    2  501    0 -0.14407825908E+02 -0.20049718696E+02 -0.36436087639E+03  0.36519641963E+03  0.00000000000E+00 0. -1.
          1    1    1    2  502    0 -0.30610421591E+02  0.43066532760E+02  0.19922287052E+04  0.19929292355E+04  0.00000000000E+00 0. -1.
         22    1    3    3    0    0 -0.22770302685E+01  0.32196888208E+02  0.41053716702E+02  0.52222908117E+02  0.00000000000E+00 0. -1.
         22    1    3    3    0    0  0.47295277767E+02 -0.55213702272E+02 -0.39329912833E+02  0.82657354550E+02  0.00000000000E+00 0. -1.
</event>
<event>
 7    1  0.6262315E-006  0.2687844E+02  0.7818608E-02  0.1681278E+00
          2   -1    0    0  502    0  0.00000000000E+00  0.00000000000E+00  0.11579442211E+04  0.11579442211E+04  0.00000000000E+00 0. -1.
          1   -1    0    0  501    0 -0.00000000000E+00 -0.00000000000E+00 -0.86743824350E+03  0.86743824350E+03  0.00000000000E+00 0. -1.
         25    2    1    2    0    0 -0.25291482134E+02 -0.40139925160E+02  0.61617340389E+03  0.63051091027E+03  0.12499388644E+03 0.  0.
          2    1    1    2  501    0  0.12322395807E+02  0.23879703443E+02 -0.85985722350E+03  0.86027700567E+03  0.00000000000E+00 0. -1.
          1    1    1    2  502    0  0.12969086327E+02  0.16260221717E+02  0.53418979719E+03  0.53459454864E+03  0.00000000000E+00 0. -1.
         22    1    3    3    0    0  0.43984759365E+02 -0.47508025495E+01  0.11286145651E+03  0.12122267753E+03  0.00000000000E+00 0.  1.
         22    1    3    3    0    0 -0.69276241499E+02 -0.35389122610E+02  0.50331194738E+03  0.50928823275E+03  0.00000000000E+00 0.  1.
</event>
<event>
 7    1  0.6262315E-006  0.4832322E+02  0.7818608E-02  0.1486926E+00
          2   -1    0    0  502    0  0.00000000000E+00  0.00000000000E+00  0.95999630817E+03  0.95999630817E+03  0.00000000000E+00 0. -1.
          1   -1    0    0  501    0 -0.00000000000E+00 -0.00000000000E+00 -0.52783678926E+03  0.52783678926E+03  0.00000000000E+00 0. -1.
         25    2    1    2    0    0 -0.78809309363E+02  0.32883970150E+02 -0.15364056228E+03  0.21569226911E+03  0.12500187935E+03 0.  0.
          2    1    1    2  501    0  0.37484453809E+02 -0.80736142592E+01 -0.34147136723E+03  0.34361746486E+03  0.00000000000E+00 0. -1.
          1    1    1    2  502    0  0.41324855553E+02 -0.24810355891E+02  0.92727144841E+03  0.92852336346E+03  0.00000000000E+00 0. -1.
         22    1    3    3    0    0 -0.38157943134E+02  0.36406848591E+02  0.39666589490E+01  0.52888766594E+02  0.00000000000E+00 0.  1.
         22    1    3    3    0    0 -0.40651366229E+02 -0.35228784409E+01 -0.15760722123E+03  0.16280350252E+03  0.00000000000E+00 0.  1.
</event>
<event>
 7    1  0.6262315E-006  0.7019645E+02  0.7818608E-02  0.1398568E+00
          2   -1    0    0  502    0  0.00000000000E+00  0.00000000000E+00  0.29136657596E+02  0.29136657596E+02  0.00000000000E+00 0. -1.
          1   -1    0    0  501    0 -0.00000000000E+00 -0.00000000000E+00 -0.70451995241E+03  0.70451995241E+03  0.00000000000E+00 0. -1.
         25    2    1    2    0    0 -0.50044762727E+02 -0.18021159358E+02 -0.26887440582E+03  0.30124506371E+03  0.12500360732E+03 0.  0.
          2    1    1    2  501    0  0.38430129982E+02  0.67666397772E+02 -0.33897489203E+03  0.34779245781E+03  0.00000000000E+00 0. -1.
          1    1    1    2  502    0  0.11614632745E+02 -0.49645238415E+02 -0.67533996954E+02  0.84619088483E+02  0.00000000000E+00 0. -1.
         22    1    3    3    0    0  0.20360170944E+02  0.35201547911E+02 -0.13421128381E+03  0.14023677919E+03  0.00000000000E+00 0. -1.
         22    1    3    3    0    0 -0.70404933671E+02 -0.53222707269E+02 -0.13466312201E+03  0.16100828452E+03  0.00000000000E+00 0. -1.
</event>
<event>
 7    1  0.6262315E-006  0.4784334E+02  0.7818608E-02  0.1541202E+00
          2   -1    0    0  502    0  0.00000000000E+00  0.00000000000E+00  0.31795884740E+04  0.31795884740E+04  0.00000000000E+00 0. -1.
          1   -1    0    0  501    0 -0.00000000000E+00 -0.00000000000E+00 -0.12562667423E+04  0.12562667423E+04  0.00000000000E+00 0. -1.
         25    2    1    2    0    0  0.49817180464E+02 -0.12803620465E+02  0.53397176081E+03  0.55081312006E+03  0.12499427076E+03 0.  0.
          2    1    1    2  501    0 -0.16230848230E+02 -0.21400303622E+02 -0.12474836535E+04  0.12477727674E+04  0.00000000000E+00 0. -1.
          1    1    1    2  502    0 -0.33586332234E+02  0.34203924086E+02  0.26368336243E+04  0.26372693288E+04  0.00000000000E+00 0. -1.
         22    1    3    3    0    0 -0.33302006058E+02 -0.23007228255E+02  0.85593561469E+02  0.94681645129E+02  0.00000000000E+00 0. -1.
         22    1    3    3    0    0  0.83119186522E+02  0.10203607791E+02  0.44837819934E+03  0.45613147493E+03  0.00000000000E+00 0. -1.
</event>
<event>
 7    1  0.6262315E-006  0.6955774E+02  0.7818608E-02  0.1364452E+00
          2   -1    0    0  502    0  0.00000000000E+00  0.00000000000E+00  0.15839241550E+04  0.15839241550E+04  0.00000000000E+00 0. -1.
          1   -1    0    0  501    0 -0.00000000000E+00 -0.00000000000E+00 -0.33081585871E+03  0.33081585871E+03  0.00000000000E+00 0. -1.
         25    2    1    2    0    0  0.11117015521E+03 -0.13135210485E+02  0.23724779768E+02  0.16946940184E+03  0.12500270325E+03 0.  0.
          2    1    1    2  501    0 -0.59396943759E+02 -0.32941051865E+02 -0.25264857531E+03  0.26161883042E+03  0.00000000000E+00 0. -1.
          1    1    1    2  502    0 -0.51773211455E+02  0.46076262350E+02  0.14820320918E+04  0.14836517814E+04  0.00000000000E+00 0. -1.
         22    1    3    3    0    0 -0.15170427041E+02 -0.25117558581E+02  0.30574347729E+02  0.42377167729E+02  0.00000000000E+00 0.  1.
         22    1    3    3    0    0  0.12634058226E+03  0.11982348096E+02 -0.68495679619E+01  0.12709223411E+03  0.00000000000E+00 0.  1.
</event>
<event>
 7    1  0.6262315E-006  0.1415622E+03  0.7818608E-02  0.1238356E+00
          2   -1    0    0  502    0  0.00000000000E+00  0.00000000000E+00  0.72153007750E+03  0.72153007750E+03  0.00000000000E+00 0. -1.
          1   -1    0    0  501    0 -0.00000000000E+00 -0.00000000000E+00 -0.22450674916E+03  0.22450674916E+03  0.00000000000E+00 0. -1.
         25    2    1    2    0    0 -0.25150956885E+02  0.12057283590E+03 -0.22281144088E+02  0.17689730239E+03  0.12500330725E+03 0.  0.
          2    1    1    2  501    0  0.10673071011E+03  0.72673336871E+00 -0.91808454842E+02  0.14078623868E+03  0.00000000000E+00 0. -1.
          1    1    1    2  502    0 -0.81579753225E+02 -0.12129956927E+03  0.61111292727E+03  0.62835328559E+03  0.00000000000E+00 0. -1.
         22    1    3    3    0    0 -0.64048647115E+02  0.25291419211E+02 -0.26775602036E+02  0.73883813838E+02  0.00000000000E+00 0. -1.
         22    1    3    3    0    0  0.38897690230E+02  0.95281416690E+02  0.44944579485E+01  0.10301348855E+03  0.00000000000E+00 0. -1.
</event>
<event>
 7    1  0.6262315E-006  0.7018873E+03  0.7818608E-02  0.1085922E+00
          2   -1    0    0  502    0  0.00000000000E+00  0.00000000000E+00  0.83833359231E+03  0.83833359231E+03  0.00000000000E+00 0. -1.
          1   -1    0    0  501    0 -0.00000000000E+00 -0.00000000000E+00 -0.16238501705E+04  0.16238501705E+04  0.00000000000E+00 0. -1.
         25    2    1    2    0    0 -0.36548731332E+03 -0.54341999307E+03 -0.24146728316E+03  0.70909627954E+03  0.12499927902E+03 0.  0.
          2    1    1    2  501    0 -0.12670362105E+03  0.96062589274E+01 -0.92461641491E+03  0.93330681050E+03  0.00000000000E+00 0. -1.
          1    1    1    2  502    0  0.49219093438E+03  0.53381373414E+03  0.38056711992E+03  0.81978067274E+03  0.00000000000E+00 0. -1.
         22    1    3    3    0    0 -0.19087667704E+03 -0.30119856426E+03 -0.19646357505E+03  0.40712702842E+03  0.00000000000E+00 0.  1.
         22    1    3    3    0    0 -0.17461063628E+03 -0.24222142880E+03 -0.45003708108E+02  0.30196925111E+03  0.00000000000E+00 0.  1.
</event>
<event>
 7    1  0.6262315E-006  0.5437239E+02  0.7818608E-02  0.1429464E+00
          2   -1    0    0  502    0  0.00000000000E+00  0.00000000000E+00  0.51991732577E+03  0.51991732577E+03  0.00000000000E+00 0. -1.
          1   -1    0    0  501    0 -0.00000000000E+00 -0.00000000000E+00 -0.42500402602E+03  0.42500402602E+03  0.00000000000E+00 0. -1.
         25    2    1    2    0    0  0.17081906209E+02  0.83826478573E+01 -0.65434088375E+02  0.14237691838E+03  0.12501002625E+03 0.  0.
          2    1    1    2  501    0 -0.23019301388E+02  0.46397913898E+02 -0.31741602840E+03  0.32161403846E+03  0.00000000000E+00 0. -1.
          1    1    1    2  502    0  0.59373951794E+01 -0.54780561755E+02  0.47776341653E+03  0.48093039494E+03  0.00000000000E+00 0. -1.
         22    1    3    3    0    0  0.20769005350E+02 -0.12438706510E+02 -0.99433641744E+02  0.10233827296E+03  0.00000000000E+00 0.  1.
         22    1    3    3    0    0 -0.36870991414E+01  0.20821354367E+02  0.33999553369E+02  0.40038645420E+02  0.00000000000E+00 0.  1.
</event>
<event>
 7    1  0.1365696E-005  0.6094713E+02  0.7818608E-02  0.1449144E+00
          2   -1    0    0  502    0  0.00000000000E+00  0.00000000000E+00  0.16033337325E+04  0.16033337325E+04  0.00000000000E+00 0. -1.
          1   -1    0    0  501    0 -0.00000000000E+00 -0.00000000000E+00 -0.77048596223E+03  0.77048596223E+03  0.00000000000E+00 0. -1.
         25    2    1    2    0    0 -0.30287852368E+02  0.43237869331E+02 -0.25897727815E+03  0.29237176625E+03  0.12500060704E+03 0.  0.
          2    1    1    2  501    0 -0.28691114310E+02 -0.27701354841E+02 -0.49342044728E+03  0.49502957779E+03  0.00000000000E+00 0. -1.
          1    1    1    2  502    0  0.58978966678E+02 -0.15536514490E+02  0.15852454957E+04  0.15864183507E+04  0.00000000000E+00 0. -1.
         22    1    3    3    0    0 -0.48165230087E+02  0.64951239853E+02 -0.25014768131E+03  0.26289240273E+03  0.00000000000E+00 0. -1.
         22    1    3    3    0    0  0.17877377719E+02 -0.21713370522E+02 -0.88295968394E+01  0.29479363526E+02  0.00000000000E+00 0. -1.
</event>
<event>
 7    1  0.6262315E-006  0.7979844E+02  0.7818608E-02  0.1426315E+00
          2   -1    0    0  502    0  0.00000000000E+00  0.00000000000E+00  0.91382270586E+03  0.91382270586E+03  0.00000000000E+00 0. -1.
          1   -1    0    0  501    0 -0.00000000000E+00 -0.00000000000E+00 -0.28381792197E+03  0.28381792197E+03  0.00000000000E+00 0. -1.
         25    2    1    2    0    0  0.97242421466E+02 -0.61821699119E+02  0.61326923183E+03  0.63639671946E+03  0.12499449115E+03 0.  0.
          2    1    1    2  501    0 -0.69308876636E+02  0.38880948624E+02 -0.26527675174E+03  0.27692454488E+03  0.00000000000E+00 0. -1.
          1    1    1    2  502    0 -0.27933544830E+02  0.22940750496E+02  0.28201230380E+03  0.28431936349E+03  0.00000000000E+00 0. -1.
         22    1    3    3    0    0  0.11645607795E+03 -0.28798341008E+02  0.34156332427E+03  0.36201777170E+03  0.00000000000E+00 0. -1.
         22    1    3    3    0    0 -0.19213656480E+02 -0.33023358111E+02  0.27170590756E+03  0.27437894777E+03  0.00000000000E+00 0. -1.
</event>
<event>
 7    1  0.1099818E-005  0.6064718E+02  0.7818608E-02  0.1399913E+00
          2   -1    0    0  502    0  0.00000000000E+00  0.00000000000E+00  0.28367075567E+04  0.28367075567E+04  0.00000000000E+00 0. -1.
          1   -1    0    0  501    0 -0.00000000000E+00 -0.00000000000E+00 -0.27408104998E+04  0.27408104998E+04  0.00000000000E+00 0. -1.
         25    2    1    2    0    0 -0.10527605859E+03 -0.19656662907E+02 -0.52145540433E+03  0.54681848865E+03  0.12500115162E+03 0.  0.
          2    1    1    2  501    0  0.56179000738E+02 -0.15908610804E+02 -0.22059618487E+04  0.22067344294E+04  0.00000000000E+00 0. -1.
          1    1    1    2  502    0  0.49097057853E+02  0.35565273711E+02  0.28233143100E+04  0.28239651384E+04  0.00000000000E+00 0. -1.
         22    1    3    3    0    0 -0.50642082536E+02  0.73811476740E+01 -0.50375133303E+02  0.71810555769E+02  0.00000000000E+00 0. -1.
         22    1    3    3    0    0 -0.54633976055E+02 -0.27037810581E+02 -0.47108027103E+03  0.47500793288E+03  0.00000000000E+00 0. -1.
</event>
<event>
 7    1  0.6262315E-006  0.6372935E+02  0.7818608E-02  0.1438252E+00
          2   -1    0    0  502    0  0.00000000000E+00  0.00000000000E+00  0.26274507186E+03  0.26274507186E+03  0.00000000000E+00 0. -1.
          1   -1    0    0  501    0 -0.00000000000E+00 -0.00000000000E+00 -0.12073834979E+04  0.12073834979E+04  0.00000000000E+00 0. -1.
         25    2    1    2    0    0  0.38362612845E+02 -0.15578650686E+02 -0.78030302851E+03  0.79133587971E+03  0.12500109521E+03 0.  0.
          2    1    1    2  501    0 -0.63428391165E+02  0.48474195194E+02 -0.41608229966E+03  0.42367132130E+03  0.00000000000E+00 0. -1.
          1    1    1    2  502    0  0.25065778321E+02 -0.32895544509E+02  0.25174690209E+03  0.25512136877E+03  0.00000000000E+00 0. -1.
         22    1    3    3    0    0  0.62413282846E+02 -0.37888076633E+02 -0.26164238371E+03  0.27163884329E+03  0.00000000000E+00 0.  1.
         22    1    3    3    0    0 -0.24050670001E+02  0.22309425947E+02 -0.51866064479E+03  0.51969703643E+03  0.00000000000E+00 0.  1.
</event>
<event>
 7    1  0.6439907E-006  0.1292278E+03  0.7818608E-02  0.1384722E+00
          2   -1    0    0  502    0  0.00000000000E+00  0.00000000000E+00  0.67584779596E+03  0.67584779596E+03  0.00000000000E+00 0. -1.
          1   -1    0    0  501    0 -0.00000000000E+00 -0.00000000000E+00 -0.13012524098E+04  0.13012524098E+04  0.00000000000E+00 0. -1.
         25    2    1    2    0    0 -0.69206882345E+02 -0.13289858537E+03 -0.62466478183E+03  0.65443357796E+03  0.12500236697E+03 0.  0.
          2    1    1    2  501    0 -0.83867354420E+01  0.29788377027E+02 -0.65503587671E+03  0.65576648627E+03  0.00000000000E+00 0. -1.
          1    1    1    2  502    0  0.77593617787E+02  0.10311020835E+03  0.65429604473E+03  0.66690014150E+03  0.00000000000E+00 0. -1.
         22    1    3    3    0    0 -0.70210728679E+02 -0.10100256674E+03 -0.25214828446E+03  0.28055270853E+03  0.00000000000E+00 0. -1.
         22    1    3    3    0    0  0.10038463338E+01 -0.31896018634E+02 -0.37251649737E+03  0.37388086943E+03  0.00000000000E+00 0. -1.
</event>
<event>
 7    1  0.6262315E-006  0.1038197E+03  0.7818608E-02  0.1277846E+00
          2   -1    0    0  502    0  0.00000000000E+00  0.00000000000E+00  0.16762596127E+04  0.16762596127E+04  0.00000000000E+00 0. -1.
          1   -1    0    0  501    0 -0.00000000000E+00 -0.00000000000E+00 -0.26707981472E+03  0.26707981472E+03  0.00000000000E+00 0. -1.
         25    2    1    2    0    0 -0.42811192741E+02 -0.98948374817E+02 -0.15788048106E+03  0.22841918270E+03  0.12500199047E+03 0.  0.
          2    1    1    2  501    0  0.11325515814E+03  0.22684555585E+02 -0.26070477783E+02  0.11841026019E+03  0.00000000000E+00 0. -1.
          1    1    1    2  502    0 -0.70443965398E+02  0.76263819232E+02  0.15931307568E+04  0.15965099845E+04  0.00000000000E+00 0. -1.
         22    1    3    3    0    0 -0.62120880997E+02 -0.25323945483E+01 -0.88166832551E+02  0.10788330381E+03  0.00000000000E+00 0. -1.
         22    1    3    3    0    0  0.19309688256E+02 -0.96415980269E+02 -0.69713648506E+02  0.12053587889E+03  0.00000000000E+00 0. -1.
</event>
<event>
 7    1  0.6262315E-006  0.2853477E+02  0.7818608E-02  0.1617592E+00
          2   -1    0    0  502    0  0.00000000000E+00  0.00000000000E+00  0.11322896539E+03  0.11322896539E+03  0.00000000000E+00 0. -1.
          1   -1    0    0  501    0 -0.00000000000E+00 -0.00000000000E+00 -0.58862584007E+03  0.58862584007E+03  0.00000000000E+00 0. -1.
         25    2    1    2    0    0 -0.12987057295E+02 -0.22356891865E+02 -0.30588539078E+03  0.33145129174E+03  0.12500236890E+03 0.  0.
          2    1    1    2  501    0 -0.15636224183E+02  0.23325319263E+02 -0.26716509175E+03  0.26863683343E+03  0.00000000000E+00 0. -1.
          1    1    1    2  502    0  0.28623281478E+02 -0.96842739777E+00  0.97653607847E+02  0.10176668030E+03  0.00000000000E+00 0. -1.
         22    1    3    3    0    0  0.17121768313E+01 -0.54050742589E+02 -0.51496715555E+02  0.74674801887E+02  0.00000000000E+00 0.  1.
         22    1    3    3    0    0 -0.14699234127E+02  0.31693850723E+02 -0.25438867522E+03  0.25677648985E+03  0.00000000000E+00 0.  1.
</event>
<event>
 7    1  0.6262315E-006  0.4917872E+02  0.7818608E-02  0.1476844E+00
          2   -1    0    0  502    0  0.00000000000E+00  0.00000000000E+00  0.29981395737E+02  0.29981395737E+02  0.00000000000E+00 0. -1.
          1   -1    0    0  501    0 -0.00000000000E+00 -0.00000000000E+00 -0.17419328369E+04  0.17419328369E+04  0.00000000000E+00 0. -1.
         25    2    1    2    0    0 -0.73435885187E+02  0.48504555016E+02 -0.25488327947E+03  0.29721209950E+03  0.12499609930E+03 0.  0.
          2    1    1    2  501    0  0.36667452316E+02 -0.31642851291E+02 -0.14167923325E+04  0.14176199369E+04  0.00000000000E+00 0. -1.
          1    1    1    2  502    0  0.36768432872E+02 -0.16861703725E+02 -0.40275829150E+02  0.57082196191E+02  0.00000000000E+00 0. -1.
         22    1    3    3    0    0 -0.81164001309E+02  0.45309667611E+01 -0.23438946905E+03  0.24808576736E+03  0.00000000000E+00 0.  1.
         22    1    3    3    0    0  0.77281161217E+01  0.43973588255E+02 -0.20493810427E+02  0.49126332131E+02  0.00000000000E+00 0.  1.
</event>
<event>
 7    1  0.6262315E-006  0.2411576E+03  0.7818608E-02  0.1287946E+00
          2   -1    0    0  502    0  0.00000000000E+00  0.00000000000E+00  0.10105035664E+04  0.10105035664E+04  0.00000000000E+00 0. -1.
          1   -1    0    0  501    0 -0.00000000000E+00 -0.00000000000E+00 -0.35319429441E+03  0.35319429441E+03  0.00000000000E+00 0. -1.
         25    2    1    2    0    0  0.20390822203E+03 -0.84341718380E+02  0.28601454826E+03  0.38225763139E+03  0.12499794584E+03 0.  0.
          2    1    1    2  501    0  0.17924501936E+02 -0.34156156652E+02 -0.28032715531E+03  0.28296862867E+03  0.00000000000E+00 0. -1.
          1    1    1    2  502    0 -0.22183272397E+03  0.11849787503E+03  0.65162187900E+03  0.69847160072E+03  0.00000000000E+00 0. -1.
         22    1    3    3    0    0  0.14381681476E+03 -0.10333952250E+03  0.14897719708E+03  0.23142285619E+03  0.00000000000E+00 0. -1.
         22    1    3    3    0    0  0.60091407276E+02  0.18997804121E+02  0.13703735118E+03  0.15083477520E+03  0.00000000000E+00 0. -1.
</event>
<event>
 7    1  0.6262315E-006  0.9857398E+02  0.7818608E-02  0.1361762E+00
          2   -1    0    0  502    0  0.00000000000E+00  0.00000000000E+00  0.35314130155E+03  0.35314130155E+03  0.00000000000E+00 0. -1.
          1   -1    0    0  501    0 -0.00000000000E+00 -0.00000000000E+00 -0.78275176556E+03  0.78275176556E+03  0.00000000000E+00 0. -1.
         25    2    1    2    0    0  0.15791552209E+02 -0.11771247993E+03 -0.27319267483E+02  0.17457528099E+03  0.12499834121E+03 0.  0.
          2    1    1    2  501    0  0.27222638704E+02  0.94207482519E+02 -0.67609066420E+03  0.68316521284E+03  0.00000000000E+00 0. -1.
          1    1    1    2  502    0 -0.43014190913E+02  0.23504997408E+02  0.27379946767E+03  0.27815257327E+03  0.00000000000E+00 0. -1.
         22    1    3    3    0    0  0.34914887226E+02 -0.26494592213E+02 -0.61313683060E+02  0.75368299018E+02  0.00000000000E+00 0. -1.
         22    1    3    3    0    0 -0.19123335017E+02 -0.91217887714E+02  0.33994415577E+02  0.99206981969E+02  0.00000000000E+00 0. -1.
</event>
<event>
 7    1  0.6262315E-006  0.1058435E+03  0.7818608E-02  0.1326806E+00
          2   -1    0    0  502    0  0.00000000000E+00  0.00000000000E+00  0.11560717871E+04  0.11560717871E+04  0.00000000000E+00 0. -1.
          1   -1    0    0  501    0 -0.00000000000E+00 -0.00000000000E+00 -0.33847950096E+04  0.33847950096E+04  0.00000000000E+00 0. -1.
         25    2    1    2    0    0 -0.10794719316E+03  0.12591736991E+03  0.95830748913E+03  0.98055404107E+03  0.12500081269E+03 0.  0.
          2    1    1    2  501    0  0.76960526153E+02 -0.72589299932E+02 -0.33677229036E+04  0.33693841699E+04  0.00000000000E+00 0. -1.
          1    1    1    2  502    0  0.30986667005E+02 -0.53328069977E+02  0.18069219196E+03  0.19092858564E+03  0.00000000000E+00 0. -1.
         22    1    3    3    0    0 -0.13547376157E+03  0.11063650644E+03  0.84747463415E+03  0.86533625381E+03  0.00000000000E+00 0.  1.
         22    1    3    3    0    0  0.27526568415E+02  0.15280863468E+02  0.11083285498E+03  0.11521778726E+03  0.00000000000E+00 0.  1.
</event>
<event>
 7    1  0.6262315E-006  0.5203555E+02  0.7818608E-02  0.1466182E+00
          2   -1    0    0  502    0  0.00000000000E+00  0.00000000000E+00  0.89333559648E+03  0.89333559648E+03  0.00000000000E+00 0. -1.
          1   -1    0    0  501    0 -0.00000000000E+00 -0.00000000000E+00 -0.16944828964E+03  0.16944828964E+03  0.00000000000E+00 0. -1.
         25    2    1    2    0    0  0.80347647670E+02 -0.36810371489E+02  0.12676227448E+03  0.19875781958E+03  0.12500099471E+03 0.  0.
          2    1    1    2  501    0 -0.41065416973E+02  0.39707925467E+01 -0.12933910228E+03  0.13575985799E+03  0.00000000000E+00 0. -1.
          1    1    1    2  502    0 -0.39282230697E+02  0.32839578943E+02  0.72646413464E+03  0.72826620855E+03  0.00000000000E+00 0. -1.
         22    1    3    3    0    0  0.93327506412E+02 -0.70017350603E+02  0.88353748670E+02  0.14635176030E+03  0.00000000000E+00 0.  1.
         22    1    3    3    0    0 -0.12979858743E+02  0.33206979113E+02  0.38408525806E+02  0.52406059281E+02  0.00000000000E+00 0.  1.
</event>
<event>
 7    1  0.6262315E-006  0.7218223E+02  0.7818608E-02  0.1380031E+00
          2   -1    0    0  502    0  0.00000000000E+00  0.00000000000E+00  0.12517378110E+04  0.12517378110E+04  0.00000000000E+00 0. -1.
          1   -1    0    0  501    0 -0.00000000000E+00 -0.00000000000E+00 -0.50084196681E+03  0.50084196681E+03  0.00000000000E+00 0. -1.
         25    2    1    2    0    0  0.63516297657E+02  0.11469350901E+02 -0.65435843315E+02  0.15515254269E+03  0.12499838332E+03 0.  0.
          2    1    1    2  501    0 -0.72082839813E+01 -0.57102939650E+02 -0.38733122710E+03  0.39158419856E+03  0.00000000000E+00 0. -1.
          1    1    1    2  502    0 -0.56308013676E+02  0.45633588750E+02  0.12036629146E+04  0.12058430366E+04  0.00000000000E+00 0. -1.
         22    1    3    3    0    0 -0.10435942967E+02 -0.10690955168E+02  0.29333011139E+02  0.32918550553E+02  0.00000000000E+00 0.  1.
         22    1    3    3    0    0  0.73952240624E+02  0.22160306069E+02 -0.94768854454E+02  0.12223399213E+03  0.00000000000E+00 0.  1.
</event>
<event>
 7    1  0.6262315E-006  0.4604240E+02  0.7818608E-02  0.1529458E+00
          2   -1    0    0  502    0  0.00000000000E+00  0.00000000000E+00  0.21449851357E+04  0.21449851357E+04  0.00000000000E+00 0. -1.
          1   -1    0    0  501    0 -0.00000000000E+00 -0.00000000000E+00 -0.83982431910E+02  0.83982431910E+02  0.00000000000E+00 0. -1.
         25    2    1    2    0    0 -0.12510563206E+02  0.66674619611E+02  0.94306846854E+03  0.95373133087E+03  0.12499318397E+03 0.  0.
          2    1    1    2  501    0 -0.10310262450E+02 -0.28323103528E+02 -0.75330728998E+02  0.81137034926E+02  0.00000000000E+00 0. -1.
          1    1    1    2  502    0  0.22820825656E+02 -0.38351516083E+02  0.11932649643E+04  0.11940992018E+04  0.00000000000E+00 0. -1.
         22    1    3    3    0    0 -0.43543761023E+02  0.82610590178E+02  0.45875942174E+03  0.46816746552E+03  0.00000000000E+00 0.  1.
         22    1    3    3    0    0  0.31033197817E+02 -0.15935970567E+02  0.48430904680E+03  0.48556386535E+03  0.00000000000E+00 0.  1.
</event>
<event>
 7    1  0.6262315E-006  0.7862046E+02  0.7818608E-02  0.1337451E+00
          2   -1    0    0  502    0  0.00000000000E+00  0.00000000000E+00  0.34166048608E+02  0.34166048608E+02  0.00000000000E+00 0. -1.
          1   -1    0    0  501    0 -0.00000000000E+00 -0.00000000000E+00 -0.15253785720E+04  0.15253785720E+04  0.00000000000E+00 0. -1.
         25    2    1    2    0    0  0.14512844714E+02 -0.75526144215E+01 -0.43220952119E+03  0.45021915448E+03  0.12499820883E+03 0.  0.
          2    1    1    2  501    0  0.50183958796E+02 -0.56586660490E+02 -0.99527909055E+03  0.99814876044E+03  0.00000000000E+00 0. -1.
          1    1    1    2  502    0 -0.64696803511E+02  0.64139274912E+02 -0.63723911639E+02  0.11117670568E+03  0.00000000000E+00 0. -1.
         22    1    3    3    0    0 -0.25741605786E+02 -0.39658257030E+02 -0.70644078264E+02  0.85005843404E+02  0.00000000000E+00 0. -1.
         22    1    3    3    0    0  0.40254450501E+02  0.32105642608E+02 -0.36156544292E+03  0.36521331108E+03  0.00000000000E+00 0. -1.
</event>
<event>
 7    1  0.6262315E-006  0.7500359E+02  0.7818608E-02  0.1401412E+00
          2   -1    0    0  502    0  0.00000000000E+00  0.00000000000E+00  0.35774227642E+03  0.35774227642E+03  0.00000000000E+00 0. -1.
          1   -1    0    0  501    0 -0.00000000000E+00 -0.00000000000E+00 -0.12114423002E+03  0.12114423002E+03  0.00000000000E+00 0. -1.
         25    2    1    2    0    0 -0.67391242773E+02 -0.89749116619E+02  0.18417752648E+03  0.24927825511E+03  0.12498721404E+03 0.  0.
          2    1    1    2  501    0  0.30762717498E+02  0.35076786313E+02 -0.73772105846E+02  0.87287165877E+02  0.00000000000E+00 0. -1.
          1    1    1    2  502    0  0.36628525275E+02  0.54672330306E+02  0.12619262577E+03  0.14232108545E+03  0.00000000000E+00 0. -1.
         22    1    3    3    0    0 -0.57504157473E+02 -0.16770367234E+02  0.16145314405E+03  0.17220653608E+03  0.00000000000E+00 0. -1.
         22    1    3    3    0    0 -0.98870852999E+01 -0.72978749385E+02  0.22724382428E+02  0.77071719030E+02  0.00000000000E+00 0. -1.
</event>
<event>
 7    1  0.6909272E-006  0.5519605E+02  0.7818608E-02  0.1473649E+00
          2   -1    0    0  502    0  0.00000000000E+00  0.00000000000E+00  0.10268108065E+04  0.10268108065E+04  0.00000000000E+00 0. -1.
          1   -1    0    0  501    0 -0.00000000000E+00 -0.00000000000E+00 -0.83986782079E+03  0.83986782079E+03  0.00000000000E+00 0. -1.
         25    2    1    2    0    0 -0.49105967345E+02  0.71967408634E+02 -0.38793438472E+03  0.41678688380E+03  0.12501006249E+03 0.  0.
          2    1    1    2  501    0  0.21966238681E+02 -0.47012315356E+02 -0.43563117349E+03  0.43871083045E+03  0.00000000000E+00 0. -1.
          1    1    1    2  502    0  0.27139728664E+02 -0.24955093278E+02  0.10105085440E+04  0.10111809131E+04  0.00000000000E+00 0. -1.
         22    1    3    3    0    0 -0.89437848328E+02  0.66268253512E+02 -0.27147803077E+03  0.29341256164E+03  0.00000000000E+00 0. -1.
         22    1    3    3    0    0  0.40331880983E+02  0.56991551225E+01 -0.11645635395E+03  0.12337432216E+03  0.00000000000E+00 0. -1.
</event>
<event>
 7    1  0.6262315E-006  0.9697301E+02  0.7818608E-02  0.1336812E+00
          2   -1    0    0  502    0  0.00000000000E+00  0.00000000000E+00  0.45407153467E+03  0.45407153467E+03  0.00000000000E+00 0. -1.
          1   -1    0    0  501    0 -0.00000000000E+00 -0.00000000000E+00 -0.10522563980E+04  0.10522563980E+04  0.00000000000E+00 0. -1.
         25    2    1    2    0    0  0.20057490119E+02  0.14924928361E+03 -0.24439278066E+03  0.31309897477E+03  0.12500194076E+03 0.  0.
          2    1    1    2  501    0 -0.30153725590E+02 -0.53785621972E+02 -0.76676767494E+03  0.76924300948E+03  0.00000000000E+00 0. -1.
          1    1    1    2  502    0  0.10096235471E+02 -0.95463661636E+02  0.41297559226E+03  0.42398594843E+03  0.00000000000E+00 0. -1.
         22    1    3    3    0    0 -0.22249561914E+02  0.10492404974E+02  0.45093512078E+01  0.25009354566E+02  0.00000000000E+00 0. -1.
         22    1    3    3    0    0  0.42307052032E+02  0.13875687863E+03 -0.24890213187E+03  0.28808962020E+03  0.00000000000E+00 0. -1.
</event>
<event>
 7    1  0.6262315E-006  0.6983728E+02  0.7818608E-02  0.1416042E+00
          2   -1    0    0  502    0  0.00000000000E+00  0.00000000000E+00  0.27367261379E+04  0.27367261379E+04  0.00000000000E+00 0. -1.
          1   -1    0    0  501    0 -0.00000000000E+00 -0.00000000000E+00 -0.16085436293E+02  0.16085436293E+02  0.00000000000E+00 0. -1.
         25    2    1    2    0    0  0.92042135694E+02 -0.30445782240E+02  0.15364134205E+04  0.15445356625E+04  0.12500205499E+03 0.  0.
          2    1    1    2  501    0 -0.68181042466E+02 -0.73427441749E+01  0.90059403339E+02  0.11319570033E+03  0.00000000000E+00 0. -1.
          1    1    1    2  502    0 -0.23861093227E+02  0.37788526415E+02  0.10941678778E+04  0.10950802114E+04  0.00000000000E+00 0. -1.
         22    1    3    3    0    0  0.10326560493E+03 -0.28773028399E+02  0.15238120725E+04  0.15275781173E+04  0.00000000000E+00 0.  1.
         22    1    3    3    0    0 -0.11223469234E+02 -0.16727538416E+01  0.12601347991E+02  0.16957545172E+02  0.00000000000E+00 0.  1.
</event>
<event>
 7    1  0.6262315E-006  0.1803060E+03  0.7818608E-02  0.1238417E+00
          2   -1    0    0  502    0  0.00000000000E+00  0.00000000000E+00  0.22724417936E+03  0.22724417936E+03  0.00000000000E+00 0. -1.
          1   -1    0    0  501    0 -0.00000000000E+00 -0.00000000000E+00 -0.21971107134E+04  0.21971107134E+04  0.00000000000E+00 0. -1.
         25    2    1    2    0    0  0.56434746585E+02 -0.10912054003E+03 -0.20987843200E+03  0.27343406900E+03  0.12500024398E+03 0.  0.
          2    1    1    2  501    0 -0.22893233179E+02 -0.80556695289E+02 -0.19068574202E+04  0.19086955499E+04  0.00000000000E+00 0. -1.
          1    1    1    2  502    0 -0.33541513406E+02  0.18967723532E+03  0.14686931811E+03  0.24222527391E+03  0.00000000000E+00 0. -1.
         22    1    3    3    0    0 -0.89443881733E+01 -0.10132564577E+03 -0.86243204959E+02  0.13335958523E+03  0.00000000000E+00 0. -1.
         22    1    3    3    0    0  0.65379134759E+02 -0.77948942532E+01 -0.12363522704E+03  0.14007448377E+03  0.00000000000E+00 0. -1.
</event>
<event>
 7    1  0.6262315E-006  0.5037664E+02  0.7818608E-02  0.1562344E+00
          2   -1    0    0  502    0  0.00000000000E+00  0.00000000000E+00  0.25822805090E+04  0.25822805090E+04  0.00000000000E+00 0. -1.
          1   -1    0    0  501    0 -0.00000000000E+00 -0.00000000000E+00 -0.55048712773E+03  0.55048712773E+03  0.00000000000E+00 0. -1.
         25    2    1    2    0    0  0.57596039167E+02 -0.28574448099E+02  0.43268827288E+03  0.45494825621E+03  0.12499988611E+03 0.  0.
          2    1    1    2  501    0 -0.81276101445E+01  0.20740887345E+02 -0.53883370500E+03  0.53929398671E+03  0.00000000000E+00 0. -1.
          1    1    1    2  502    0 -0.49468429022E+02  0.78335607543E+01  0.21379388134E+04  0.21385253938E+04  0.00000000000E+00 0. -1.
         22    1    3    3    0    0 -0.18837522815E+02 -0.56160355503E+02  0.18961319516E+03  0.19865045073E+03  0.00000000000E+00 0. -1.
         22    1    3    3    0    0  0.76433561981E+02  0.27585907405E+02  0.24307507772E+03  0.25629780548E+03  0.00000000000E+00 0. -1.
</event>
<event>
 7    1  0.6262315E-006  0.1618595E+03  0.7818608E-02  0.1338083E+00
          2   -1    0    0  502    0  0.00000000000E+00  0.00000000000E+00  0.16378351460E+03  0.16378351460E+03  0.00000000000E+00 0. -1.
          1   -1    0    0  501    0 -0.00000000000E+00 -0.00000000000E+00 -0.72034402129E+03  0.72034402129E+03  0.00000000000E+00 0. -1.
         25    2    1    2    0    0 -0.14566058834E+03  0.13245077018E+02 -0.35835582140E+03  0.40673965634E+03  0.12500325694E+03 0.  0.
          2    1    1    2  501    0  0.17751411642E+03  0.46507255464E+01 -0.31138308458E+03  0.35845824881E+03  0.00000000000E+00 0. -1.
          1    1    1    2  502    0 -0.31853528079E+02 -0.17895802564E+02  0.11317839930E+03  0.11892963074E+03  0.00000000000E+00 0. -1.
         22    1    3    3    0    0 -0.14819368539E+03 -0.23863430791E+02 -0.31921289651E+03  0.35274311477E+03  0.00000000000E+00 0.  1.
         22    1    3    3    0    0  0.25330970471E+01  0.37108507809E+02 -0.39142924887E+02  0.53996541567E+02  0.00000000000E+00 0.  1.
</event>
<event>
 7    1  0.6262315E-006  0.4309189E+02  0.7818608E-02  0.1536107E+00
          2   -1    0    0  502    0  0.00000000000E+00  0.00000000000E+00  0.41580354080E+03  0.41580354080E+03  0.00000000000E+00 0. -1.
          1   -1    0    0  501    0 -0.00000000000E+00 -0.00000000000E+00 -0.20404309358E+04  0.20404309358E+04  0.00000000000E+00 0. -1.
         25    2    1    2    0    0 -0.36489896546E+02  0.38155266568E+02 -0.46504902908E+03  0.48444236204E+03  0.12500586296E+03 0.  0.
          2    1    1    2  501    0  0.59940386023E+01 -0.42670012297E+02 -0.15648031853E+04  0.15653963291E+04  0.00000000000E+00 0. -1.
          1    1    1    2  502    0  0.30495857944E+02  0.45147457288E+01  0.40522481933E+03  0.40639578551E+03  0.00000000000E+00 0. -1.
         22    1    3    3    0    0  0.52490592508E+01  0.55675992746E+02 -0.40702873538E+03  0.41085247987E+03  0.00000000000E+00 0.  1.
         22    1    3    3    0    0 -0.41738955797E+02 -0.17520726178E+02 -0.58020293702E+02  0.73589882172E+02  0.00000000000E+00 0.  1.
</event>
<event>
 7    1  0.6262315E-006  0.6634865E+02  0.7818608E-02  0.1484642E+00
          2   -1    0    0  502    0  0.00000000000E+00  0.00000000000E+00  0.61447174256E+03  0.61447174256E+03  0.00000000000E+00 0. -1.
          1   -1    0    0  501    0 -0.00000000000E+00 -0.00000000000E+00 -0.69500714952E+03  0.69500714952E+03  0.00000000000E+00 0. -1.
         25    2    1    2    0    0  0.52197161585E+01  0.88833466422E+02  0.21948768822E+03  0.26779793822E+03  0.12498904049E+03 0.  0.
          2    1    1    2  501    0  0.96514953143E+01 -0.26685737862E+02 -0.66779550273E+03  0.66839816983E+03  0.00000000000E+00 0. -1.
          1    1    1    2  502    0 -0.14871211473E+02 -0.62147728560E+02  0.36777240755E+03  0.37328278403E+03  0.00000000000E+00 0. -1.
         22    1    3    3    0    0 -0.29062512574E+02 -0.22571706361E+02  0.56210808135E+02  0.67184570523E+02  0.00000000000E+00 0. -1.
         22    1    3    3    0    0  0.34282228733E+02  0.11140517278E+03  0.16327688008E+03  0.20061336770E+03  0.00000000000E+00 0. -1.
</event>
<event>
 7    1  0.6262315E-006  0.2631134E+03  0.7818608E-02  0.1120001E+00
          2   -1    0    0  502    0  0.00000000000E+00  0.00000000000E+00  0.96357208315E+03  0.96357208315E+03  0.00000000000E+00 0. -1.
          1   -1    0    0  501    0 -0.00000000000E+00 -0.00000000000E+00 -0.16933671126E+04  0.16933671126E+04  0.00000000000E+00 0. -1.
         25    2    1    2    0    0 -0.26073606345E+03 -0.13797386826E+03 -0.12189328684E+04  0.12603342988E+04  0.12500049590E+03 0.  0.
          2    1    1    2  501    0  0.92447998242E+01  0.21815143347E+03 -0.40728744152E+03  0.46212398149E+03  0.00000000000E+00 0. -1.
          1    1    1    2  502    0  0.25149126363E+03 -0.80177565205E+02  0.89642528053E+03  0.93448091539E+03  0.00000000000E+00 0. -1.
         22    1    3    3    0    0 -0.22278622703E+03 -0.68612792479E+02 -0.77075118107E+03  0.80523214129E+03  0.00000000000E+00 0. -1.
         22    1    3    3    0    0 -0.37949836425E+02 -0.69361075784E+02 -0.44818168737E+03  0.45510215755E+03  0.00000000000E+00 0. -1.
</event>
<event>
 7    1  0.6262315E-006  0.4213803E+02  0.7818608E-02  0.1516520E+00
          2   -1    0    0  502    0  0.00000000000E+00  0.00000000000E+00  0.56563226803E+03  0.56563226803E+03  0.00000000000E+00 0. -1.
          1   -1    0    0  501    0 -0.00000000000E+00 -0.00000000000E+00 -0.50802609092E+02  0.50802609092E+02  0.00000000000E+00 0. -1.
         25    2    1    2    0    0  0.10033542928E+02  0.16819747409E+02  0.22331119061E+03  0.25666276286E+03  0.12499724036E+03 0.  0.
          2    1    1    2  501    0  0.34435971463E+02 -0.10139701239E+02 -0.22620838864E+02  0.42430555296E+02  0.00000000000E+00 0. -1.
          1    1    1    2  502    0 -0.44469514391E+02 -0.66800461707E+01  0.31413930719E+03  0.31734155897E+03  0.00000000000E+00 0. -1.
         22    1    3    3    0    0 -0.33809040545E+01  0.24477935871E+02 -0.71190550472E+01  0.25715380641E+02  0.00000000000E+00 0. -1.
         22    1    3    3    0    0  0.13414446982E+02 -0.76581884617E+01  0.23043024566E+03  0.23094738222E+03  0.00000000000E+00 0. -1.
</event>
<event>
 7    1  0.6262315E-006  0.2189772E+03  0.7818608E-02  0.1179124E+00
          2   -1    0    0  502    0  0.00000000000E+00  0.00000000000E+00  0.79669854590E+03  0.79669854590E+03  0.00000000000E+00 0. -1.
          1   -1    0    0  501    0 -0.00000000000E+00 -0.00000000000E+00 -0.10902786068E+04  0.10902786068E+04  0.00000000000E+00 0. -1.
         25    2    1    2    0    0  0.19776496254E+03 -0.27701998621E+03 -0.97612874968E+02  0.37550455447E+03  0.12499737558E+03 0.  0.
          2    1    1    2  501    0 -0.74580513312E+02  0.10659173495E+03 -0.83172609838E+03  0.84183867436E+03  0.00000000000E+00 0. -1.
          1    1    1    2  502    0 -0.12318444923E+03  0.17042825126E+03  0.63575891240E+03  0.66963392392E+03  0.00000000000E+00 0. -1.
         22    1    3    3    0    0  0.13281210058E+03 -0.26274038560E+03 -0.65251755107E+02  0.30154494827E+03  0.00000000000E+00 0.  1.
         22    1    3    3    0    0  0.64952861959E+02 -0.14279600609E+02 -0.32361119861E+02  0.73959606198E+02  0.00000000000E+00 0.  1.
</event>
<event>
 7    1  0.6262315E-006  0.9465690E+02  0.7818608E-02  0.1353861E+00
          2   -1    0    0  502    0  0.00000000000E+00  0.00000000000E+00  0.18851978955E+03  0.18851978955E+03  0.00000000000E+00 0. -1.
          1   -1    0    0  501    0 -0.00000000000E+00 -0.00000000000E+00 -0.19203067868E+04  0.19203067868E+04  0.00000000000E+00 0. -1.
         25    2    1    2    0    0 -0.40657373341E+02 -0.93337293196E+01 -0.26293107634E+02  0.13437271201E+03  0.12499823084E+03 0.  0.
          2    1    1    2  501    0  0.90767574735E+02  0.30920284681E+02 -0.18331344015E+04  0.18356406376E+04  0.00000000000E+00 0. -1.
          1    1    1    2  502    0 -0.50110201394E+02 -0.21586555362E+02  0.12764051184E+03  0.13881322674E+03  0.00000000000E+00 0. -1.
         22    1    3    3    0    0 -0.73305454290E+02 -0.14523288746E+02  0.20118887679E+02  0.77391118263E+02  0.00000000000E+00 0. -1.
         22    1    3    3    0    0  0.32648080949E+02  0.51895594268E+01 -0.46411995313E+02  0.56981593744E+02  0.00000000000E+00 0. -1.
</event>
<event>
 7    1  0.6262315E-006  0.4860303E+02  0.7818608E-02  0.1476186E+00
          2   -1    0    0  502    0  0.00000000000E+00  0.00000000000E+00  0.47932725528E+03  0.47932725528E+03  0.00000000000E+00 0. -1.
          1   -1    0    0  501    0 -0.00000000000E+00 -0.00000000000E+00 -0.16502468418E+03  0.16502468418E+03  0.00000000000E+00 0. -1.
         25    2    1    2    0    0 -0.17681061970E+02 -0.95963553271E+01  0.16944402672E+03  0.21152045465E+03  0.12499965822E+03 0.  0.
          2    1    1    2  501    0  0.61029350374E+01  0.49053862731E+02 -0.13821401591E+03  0.14678774287E+03  0.00000000000E+00 0. -1.
          1    1    1    2  502    0  0.11578126932E+02 -0.39457507404E+02  0.28307256028E+03  0.28604374193E+03  0.00000000000E+00 0. -1.
         22    1    3    3    0    0  0.36413027355E+02 -0.24608119695E+02  0.14274341291E+03  0.14935578344E+03  0.00000000000E+00 0. -1.
         22    1    3    3    0    0 -0.54094089325E+02  0.15011764368E+02  0.26700613813E+02  0.62164671216E+02  0.00000000000E+00 0. -1.
</event>
<event>
 7    1  0.6262315E-006  0.2157875E+03  0.7818608E-02  0.1271384E+00
          2   -1    0    0  502    0  0.00000000000E+00  0.00000000000E+00  0.25352305358E+03  0.25352305358E+03  0.00000000000E+00 0. -1.
          1   -1    0    0  501    0 -0.00000000000E+00 -0.00000000000E+00 -0.29182950204E+04  0.29182950204E+04  0.00000000000E+00 0. -1.
         25    2    1    2    0    0 -0.24456370953E+03  0.49563387248E+02 -0.52420850125E+02  0.28397341262E+03  0.12500006468E+03 0.  0.
          2    1    1    2  501    0  0.50382243863E+02  0.30059542426E+01 -0.26762828983E+04  0.26767587784E+04  0.00000000000E+00 0. -1.
          1    1    1    2  502    0  0.19418146567E+03 -0.52569341491E+02  0.63931781584E+02  0.21108588293E+03  0.00000000000E+00 0. -1.
         22    1    3    3    0    0 -0.16245541653E+03  0.97058911806E+01 -0.89180669502E+02  0.18557790412E+03  0.00000000000E+00 0. -1.
         22    1    3    3    0    0 -0.82108293003E+02  0.39857496068E+02  0.36759819377E+02  0.98395508502E+02  0.00000000000E+00 0. -1.
</event>
<event>
 7    1  0.6262315E-006  0.1399289E+03  0.7818608E-02  0.1285887E+00
          2   -1    0    0  502    0  0.00000000000E+00  0.00000000000E+00  0.90094298426E+03  0.90094298426E+03  0.00000000000E+00 0. -1.
          1   -1    0    0  501    0 -0.00000000000E+00 -0.00000000000E+00 -0.19994005690E+03  0.19994005690E+03  0.00000000000E+00 0. -1.
         25    2    1    2    0    0 -0.31577879215E+02 -0.17414344832E+03  0.92786690414E+02  0.23570374300E+03  0.12499512590E+03 0.  0.
          2    1    1    2  501    0  0.55580193244E+02  0.38794332978E+02 -0.11257097489E+03  0.13140160782E+03  0.00000000000E+00 0. -1.
          1    1    1    2  502    0 -0.24002314029E+02  0.13534911534E+03  0.72078721183E+03  0.73377769034E+03  0.00000000000E+00 0. -1.
         22    1    3    3    0    0 -0.17274698499E+02  0.15010032426E+02 -0.32003989169E+01  0.23107549305E+02  0.00000000000E+00 0. -1.
         22    1    3    3    0    0 -0.14303180716E+02 -0.18915348075E+03  0.95987089331E+02  0.21259619370E+03  0.00000000000E+00 0. -1.
</event>
<event>
 7    1  0.6262315E-006  0.8943977E+02  0.7818608E-02  0.1436575E+00
          2   -1    0    0  502    0  0.00000000000E+00  0.00000000000E+00  0.23642672979E+03  0.23642672979E+03  0.00000000000E+00 0. -1.
          1   -1    0    0  501    0 -0.00000000000E+00 -0.00000000000E+00 -0.52605361584E+03  0.52605361584E+03  0.00000000000E+00 0. -1.
         25    2    1    2    0    0 -0.22211113010E+02 -0.79658226085E+02 -0.24631486480E+03  0.28833161267E+03  0.12500135888E+03 0.  0.
          2    1    1    2  501    0  0.51981199473E+02  0.77593675862E+02 -0.24919095562E+03  0.26611831203E+03  0.00000000000E+00 0. -1.
          1    1    1    2  502    0 -0.29770086464E+02  0.20645502225E+01  0.20587893437E+03  0.20803042093E+03  0.00000000000E+00 0. -1.
         22    1    3    3    0    0 -0.82929385086E+01 -0.89850465344E+02 -0.25392204097E+03  0.26947779471E+03  0.00000000000E+00 0.  1.
         22    1    3    3    0    0 -0.13918174501E+02  0.10192239259E+02  0.76071761701E+01  0.18853817965E+02  0.00000000000E+00 0.  1.
</event>
<event>
 7    1  0.6262315E-006  0.9046359E+02  0.7818608E-02  0.1351303E+00
          2   -1    0    0  502    0  0.00000000000E+00  0.00000000000E+00  0.22937414427E+04  0.22937414427E+04  0.00000000000E+00 0. -1.
          1   -1    0    0  501    0 -0.00000000000E+00 -0.00000000000E+00 -0.25813774797E+02  0.25813774797E+02  0.00000000000E+00 0. -1.
         25    2    1    2    0    0  0.10271775629E+03  0.22685785125E+02  0.51485203279E+03  0.54015065594E+03  0.12499813256E+03 0.  0.
          2    1    1    2  501    0 -0.83916194088E+02  0.32547779070E+02  0.14766613927E+03  0.17293517352E+03  0.00000000000E+00 0. -1.
          1    1    1    2  502    0 -0.18801562205E+02 -0.55233564195E+02  0.16054094958E+04  0.16064693880E+04  0.00000000000E+00 0. -1.
         22    1    3    3    0    0  0.55376175625E+02 -0.32734797867E+02  0.39247526911E+03  0.39771211281E+03  0.00000000000E+00 0.  1.
         22    1    3    3    0    0  0.47341580669E+02  0.55420582991E+02  0.12237676368E+03  0.14243854313E+03  0.00000000000E+00 0.  1.
</event>
<event>
 7    1  0.6262315E-006  0.1007464E+03  0.7818608E-02  0.1387712E+00
          2   -1    0    0  502    0  0.00000000000E+00  0.00000000000E+00  0.19048628308E+03  0.19048628308E+03  0.00000000000E+00 0. -1.
          1   -1    0    0  501    0 -0.00000000000E+00 -0.00000000000E+00 -0.14573863448E+03  0.14573863448E+03  0.00000000000E+00 0. -1.
         25    2    1    2    0    0  0.11214732970E+03 -0.29908948640E+01 -0.30463353293E+02  0.17070575135E+03  0.12500587442E+03 0.  0.
          2    1    1    2  501    0 -0.88033788419E+02  0.33320909997E+02  0.17092071410E+02  0.95668018959E+02  0.00000000000E+00 0. -1.
          1    1    1    2  502    0 -0.24113541277E+02 -0.30330015133E+02  0.58118930491E+02  0.69851147252E+02  0.00000000000E+00 0. -1.
         22    1    3    3    0    0  0.37554585811E+02 -0.15415735432E+02 -0.73303336918E+02  0.83793621581E+02  0.00000000000E+00 0.  1.
         22    1    3    3    0    0  0.74592743886E+02  0.12424840568E+02  0.42839983625E+02  0.86912129766E+02  0.00000000000E+00 0.  1.
</event>
<event>
 7    1  0.6262315E-006  0.1042577E+03  0.7818608E-02  0.1360366E+00
          2   -1    0    0  502    0  0.00000000000E+00  0.00000000000E+00  0.14794032040E+04  0.14794032040E+04  0.00000000000E+00 0. -1.
          1   -1    0    0  501    0 -0.00000000000E+00 -0.00000000000E+00 -0.14843360469E+03  0.14843360469E+03  0.00000000000E+00 0. -1.
         25    2    1    2    0    0  0.69976924032E+02 -0.69919017244E+02  0.38225024846E+03  0.41415676920E+03  0.12500055264E+03 0.  0.
          2    1    1    2  501    0 -0.35297646293E+02 -0.30868753112E+02 -0.12560953701E+03  0.13407669276E+03  0.00000000000E+00 0. -1.
          1    1    1    2  502    0 -0.34679277739E+02  0.10078777036E+03  0.10743288879E+04  0.10796033468E+04  0.00000000000E+00 0. -1.
         22    1    3    3    0    0  0.30401298852E+02 -0.75236428191E+02  0.98545657624E+02  0.12765580964E+03  0.00000000000E+00 0. -1.
         22    1    3    3    0    0  0.39575625180E+02  0.53174109476E+01  0.28370459084E+03  0.28650095956E+03  0.00000000000E+00 0. -1.
</event>
<event>
 7    1  0.6262315E-006  0.4637576E+02  0.7818608E-02  0.1568814E+00
          2   -1    0    0  502    0  0.00000000000E+00  0.00000000000E+00  0.12419053677E+04  0.12419053677E+04  0.00000000000E+00 0. -1.
          1   -1    0    0  501    0 -0.00000000000E+00 -0.00000000000E+00 -0.36317844275E+03  0.36317844275E+03  0.00000000000E+00 0. -1.
         25    2    1    2    0    0 -0.29903098796E+02 -0.48679848236E+02  0.17898858906E+03  0.22566733948E+03  0.12499964061E+03 0.  0.
          2    1    1    2  501    0  0.37773787626E+02  0.26820577500E+02 -0.33812962203E+03  0.34128850509E+03  0.00000000000E+00 0. -1.
          1    1    1    2  502    0 -0.78706888307E+01  0.21859270736E+02  0.10378679579E+04  0.10381279659E+04  0.00000000000E+00 0. -1.
         22    1    3    3    0    0 -0.64224973355E+02  0.76558507952E+00  0.13978668559E+03  0.15383676671E+03  0.00000000000E+00 0. -1.
         22    1    3    3    0    0  0.34321874559E+02 -0.49445433315E+02  0.39201903469E+02  0.71830572771E+02  0.00000000000E+00 0. -1.
</event>
<event>
 7    1  0.6262315E-006  0.1136845E+03  0.7818608E-02  0.1289360E+00
          2   -1    0    0  502    0  0.00000000000E+00  0.00000000000E+00  0.10125333448E+04  0.10125333448E+04  0.00000000000E+00 0. -1.
          1   -1    0    0  501    0 -0.00000000000E+00 -0.00000000000E+00 -0.11381312246E+04  0.11381312246E+04  0.00000000000E+00 0. -1.
         25    2    1    2    0    0 -0.82857361986E+02 -0.15697580146E+02 -0.38478103083E+03  0.41327215407E+03  0.12500270073E+03 0.  0.
          2    1    1    2  501    0  0.11812624204E+03 -0.56940240703E+02 -0.73163275749E+03  0.74329166005E+03  0.00000000000E+00 0. -1.
          1    1    1    2  502    0 -0.35268880056E+02  0.72637820849E+02  0.99081590854E+03  0.99410075523E+03  0.00000000000E+00 0. -1.
         22    1    3    3    0    0  0.23736593122E+02  0.15432580459E+02 -0.28854382253E+02  0.40424816238E+02  0.00000000000E+00 0. -1.
         22    1    3    3    0    0 -0.10659395511E+03 -0.31130160605E+02 -0.35592664857E+03  0.37284733783E+03  0.00000000000E+00 0. -1.
</event>
<event>
 7    1  0.6430815E-006  0.7122671E+02  0.7818608E-02  0.1464331E+00
          2   -1    0    0  502    0  0.00000000000E+00  0.00000000000E+00  0.13637454661E+04  0.13637454661E+04  0.00000000000E+00 0. -1.
          1   -1    0    0  501    0 -0.00000000000E+00 -0.00000000000E+00 -0.11850084499E+04  0.11850084499E+04  0.00000000000E+00 0. -1.
         25    2    1    2    0    0 -0.32984508110E+02 -0.42910341334E+02 -0.28340180202E+03  0.31443345369E+03  0.12499016057E+03 0.  0.
          2    1    1    2  501    0  0.63017837860E+02  0.37338541601E+02 -0.88440353044E+03  0.88743169835E+03  0.00000000000E+00 0. -1.
          1    1    1    2  502    0 -0.30033329749E+02  0.55717997328E+01  0.13465423487E+04  0.13468887640E+04  0.00000000000E+00 0. -1.
         22    1    3    3    0    0 -0.80514872829E+02 -0.21688851010E+02 -0.15789572409E+03  0.17856122393E+03  0.00000000000E+00 0.  1.
         22    1    3    3    0    0  0.47530364719E+02 -0.21221490324E+02 -0.12550607794E+03  0.13587222976E+03  0.00000000000E+00 0.  1.
</event>
<event>
 7    1  0.6262315E-006  0.1009968E+03  0.7818608E-02  0.1429988E+00
          2   -1    0    0  502    0  0.00000000000E+00  0.00000000000E+00  0.50762538073E+03  0.50762538073E+03  0.00000000000E+00 0. -1.
          1   -1    0    0  501    0 -0.00000000000E+00 -0.00000000000E+00 -0.58766340267E+03  0.58766340267E+03  0.00000000000E+00 0. -1.
         25    2    1    2    0    0  0.91198300099E+02 -0.68901059614E+02  0.27759032945E+03  0.32518266148E+03  0.12499154519E+03 0.  0.
          2    1    1    2  501    0 -0.64732154214E+02  0.77321163068E+02 -0.55839510624E+03  0.56742744798E+03  0.00000000000E+00 0. -1.
          1    1    1    2  502    0 -0.26466145885E+02 -0.84201034537E+01  0.20076675484E+03  0.20267867394E+03  0.00000000000E+00 0. -1.
         22    1    3    3    0    0 -0.26253338184E+02 -0.31022644984E+02  0.37812962155E+02  0.55510921218E+02  0.00000000000E+00 0. -1.
         22    1    3    3    0    0  0.11745163828E+03 -0.37878414631E+02  0.23977736730E+03  0.26967174027E+03  0.00000000000E+00 0. -1.
</event>
<event>
 7    1  0.6262315E-006  0.9722251E+02  0.7818608E-02  0.1312161E+00
          2   -1    0    0  502    0  0.00000000000E+00  0.00000000000E+00  0.52741268446E+03  0.52741268446E+03  0.00000000000E+00 0. -1.
          1   -1    0    0  501    0 -0.00000000000E+00 -0.00000000000E+00 -0.25680694716E+04  0.25680694716E+04  0.00000000000E+00 0. -1.
         25    2    1    2    0    0  0.46251416811E+02 -0.15835413066E+02  0.17140158077E+03  0.21770068616E+03  0.12500053201E+03 0.  0.
          2    1    1    2  501    0  0.50320083425E+02 -0.57673622516E+02 -0.25332597800E+04  0.25344158046E+04  0.00000000000E+00 0. -1.
          1    1    1    2  502    0 -0.96571500236E+02  0.73509035583E+02  0.32120141211E+03  0.34336566530E+03  0.00000000000E+00 0. -1.
         22    1    3    3    0    0 -0.32117737764E+02  0.26655303012E+02  0.33621047141E+02  0.53595047053E+02  0.00000000000E+00 0. -1.
         22    1    3    3    0    0  0.78369154574E+02 -0.42490716079E+02  0.13778053362E+03  0.16410563911E+03  0.00000000000E+00 0. -1.
</event>
<event>
 7    1  0.6262315E-006  0.1301057E+03  0.7818608E-02  0.1299401E+00
          2   -1    0    0  502    0  0.00000000000E+00  0.00000000000E+00  0.37034858763E+02  0.37034858763E+02  0.00000000000E+00 0. -1.
          1   -1    0    0  501    0 -0.00000000000E+00 -0.00000000000E+00 -0.21123986646E+04  0.21123986646E+04  0.00000000000E+00 0. -1.
         25    2    1    2    0    0 -0.10534818710E+03 -0.24860361094E+02 -0.61567681596E+03  0.63749453125E+03  0.12500023034E+03 0.  0.
          2    1    1    2  501    0 -0.21776609054E+01 -0.64228772104E+02 -0.12925504417E+04  0.12941471020E+04  0.00000000000E+00 0. -1.
          1    1    1    2  502    0  0.10752584801E+03  0.89089133198E+02 -0.16713654816E+03  0.21779189005E+03  0.00000000000E+00 0. -1.
         22    1    3    3    0    0 -0.67872629463E+02 -0.73043486741E+02 -0.30522550123E+03  0.32109913015E+03  0.00000000000E+00 0. -1.
         22    1    3    3    0    0 -0.37475557637E+02  0.48183125646E+02 -0.31045131473E+03  0.31639540110E+03  0.00000000000E+00 0. -1.
</event>
<event>
 7    1  0.6262315E-006  0.6445522E+02  0.7818608E-02  0.1409410E+00
          2   -1    0    0  502    0  0.00000000000E+00  0.00000000000E+00  0.88587870068E+03  0.88587870068E+03  0.00000000000E+00 0. -1.
          1   -1    0    0  501    0 -0.00000000000E+00 -0.00000000000E+00 -0.59529587157E+03  0.59529587157E+03  0.00000000000E+00 0. -1.
         25    2    1    2    0    0 -0.21416632050E+02  0.13047490659E+01 -0.64109901407E+02  0.14211293159E+03  0.12500252545E+03 0.  0.
          2    1    1    2  501    0 -0.24609816859E+02  0.44651833555E+02 -0.48960994723E+03  0.49225738161E+03  0.00000000000E+00 0. -1.
          1    1    1    2  502    0  0.46026448909E+02 -0.45956582620E+02  0.84430267774E+03  0.84680425904E+03  0.00000000000E+00 0. -1.
         22    1    3    3    0    0  0.13824533952E+02 -0.14235248858E+01 -0.94488820820E+02  0.95505399963E+02  0.00000000000E+00 0. -1.
         22    1    3    3    0    0 -0.35241166002E+02  0.27282739518E+01  0.30378919413E+02  0.46607531630E+02  0.00000000000E+00 0. -1.
</event>
<event>
 7    1  0.6262315E-006  0.3057402E+03  0.7818608E-02  0.1282759E+00
          2   -1    0    0  502    0  0.00000000000E+00  0.00000000000E+00  0.19832543378E+04  0.19832543378E+04  0.00000000000E+00 0. -1.
          1   -1    0    0  501    0 -0.00000000000E+00 -0.00000000000E+00 -0.19471447409E+03  0.19471447409E+03  0.00000000000E+00 0. -1.
         25    2    1    2    0    0  0.85625180362E+02  0.27831785116E+03  0.43709192992E+03  0.53987668361E+03  0.12499992207E+03 0.  0.
          2    1    1    2  501    0  0.30428074133E+02  0.97490194230E+01 -0.12516202130E+03  0.12917601423E+03  0.00000000000E+00 0. -1.
          1    1    1    2  502    0 -0.11605325449E+03 -0.28806687058E+03  0.14766099550E+04  0.15089161140E+04  0.00000000000E+00 0. -1.
         22    1    3    3    0    0  0.46212475491E+02  0.12357865127E+02  0.72835262042E+02  0.87139457872E+02  0.00000000000E+00 0. -1.
         22    1    3    3    0    0  0.39412704871E+02  0.26595998603E+03  0.36425666788E+03  0.45273722574E+03  0.00000000000E+00 0. -1.
</event>
<event>
 7    1  0.7839600E-006  0.4515212E+02  0.7818608E-02  0.1478495E+00
          2   -1    0    0  502    0  0.00000000000E+00  0.00000000000E+00  0.99019537000E+03  0.99019537000E+03  0.00000000000E+00 0. -1.
          1   -1    0    0  501    0 -0.00000000000E+00 -0.00000000000E+00 -0.79068551637E+03  0.79068551637E+03  0.00000000000E+00 0. -1.
         25    2    1    2    0    0  0.78084280031E+02  0.21570758363E+02 -0.43337649401E+03  0.45825913317E+03  0.12499518057E+03 0.  0.
          2    1    1    2  501    0 -0.43009671671E+02  0.68090084242E+01 -0.34296981861E+03  0.34572314202E+03  0.00000000000E+00 0. -1.
          1    1    1    2  502    0 -0.35074608360E+02 -0.28379766787E+02  0.97585616625E+03  0.97689861118E+03  0.00000000000E+00 0. -1.
         22    1    3    3    0    0 -0.16208650933E+01  0.18699739257E+02 -0.12254195546E+01  0.18809814061E+02  0.00000000000E+00 0. -1.
         22    1    3    3    0    0  0.79705145124E+02  0.28710191057E+01 -0.43215107446E+03  0.43944931911E+03  0.00000000000E+00 0. -1.
</event>
<event>
 7    1  0.6262315E-006  0.1709638E+03  0.7818608E-02  0.1316589E+00
          2   -1    0    0  502    0  0.00000000000E+00  0.00000000000E+00  0.38520735805E+03  0.38520735805E+03  0.00000000000E+00 0. -1.
          1   -1    0    0  501    0 -0.00000000000E+00 -0.00000000000E+00 -0.16236565990E+04  0.16236565990E+04  0.00000000000E+00 0. -1.
         25    2    1    2    0    0  0.14799406535E+03 -0.10934095624E+03 -0.42639849333E+03  0.48094627449E+03  0.12504381531E+03 0.  0.
          2    1    1    2  501    0 -0.36749079993E+02 -0.19967480362E+02 -0.11492599214E+04  0.11500206789E+04  0.00000000000E+00 0. -1.
          1    1    1    2  502    0 -0.11124498535E+03  0.12930843660E+03  0.33720917370E+03  0.37789700365E+03  0.00000000000E+00 0. -1.
         22    1    3    3    0    0 -0.81162532396E+01 -0.24956782494E+02 -0.96022286081E+01  0.27944898521E+02  0.00000000000E+00 0.  1.
         22    1    3    3    0    0  0.15611031859E+03 -0.84384173743E+02 -0.41679626472E+03  0.45300137597E+03  0.00000000000E+00 0.  1.
</event>
<event>
 7    1  0.6262315E-006  0.9147680E+02  0.7818608E-02  0.1307456E+00
          2   -1    0    0  502    0  0.00000000000E+00  0.00000000000E+00  0.28138429811E+04  0.28138429811E+04  0.00000000000E+00 0. -1.
          1   -1    0    0  501    0 -0.00000000000E+00 -0.00000000000E+00 -0.21384840198E+04  0.21384840198E+04  0.00000000000E+00 0. -1.
         25    2    1    2    0    0 -0.57616252525E+01 -0.54924153523E+01 -0.34783854605E+02  0.12999541330E+03  0.12500211193E+03 0.  0.
          2    1    1    2  501    0 -0.79600995555E+02 -0.29514614506E+02 -0.20544481637E+04  0.20562015194E+04  0.00000000000E+00 0. -1.
          1    1    1    2  502    0  0.85362620807E+02  0.35007029859E+02  0.27645909797E+04  0.27661300682E+04  0.00000000000E+00 0. -1.
         22    1    3    3    0    0 -0.53976884024E+01 -0.44871467151E+02 -0.65828362655E+02  0.79849589443E+02  0.00000000000E+00 0.  1.
         22    1    3    3    0    0 -0.36393685015E+00  0.39379051798E+02  0.31044508050E+02  0.50145823860E+02  0.00000000000E+00 0.  1.
</event>
<event>
 7    1  0.6262315E-006  0.1797138E+03  0.7818608E-02  0.1268125E+00
          2   -1    0    0  502    0  0.00000000000E+00  0.00000000000E+00  0.38818140159E+03  0.38818140159E+03  0.00000000000E+00 0. -1.
          1   -1    0    0  501    0 -0.00000000000E+00 -0.00000000000E+00 -0.70728392504E+03  0.70728392504E+03  0.00000000000E+00 0. -1.
         25    2    1    2    0    0  0.15256526153E+02 -0.15894643610E+03  0.11496725128E+03  0.23310590073E+03  0.12499664375E+03 0.  0.
          2    1    1    2  501    0 -0.51036819816E+02 -0.36152388332E+02 -0.60030752570E+03  0.60355685529E+03  0.00000000000E+00 0. -1.
          1    1    1    2  502    0  0.35780293664E+02  0.19509882443E+03  0.16623775096E+03  0.25880257061E+03  0.00000000000E+00 0. -1.
         22    1    3    3    0    0 -0.25444254963E+02  0.94423264006E+01  0.28972358101E+02  0.39698427833E+02  0.00000000000E+00 0.  1.
         22    1    3    3    0    0  0.40700781116E+02 -0.16838876250E+03  0.85994893179E+02  0.19340747290E+03  0.00000000000E+00 0.  1.
</event>
<event>
 7    1  0.6262315E-006  0.1369453E+03  0.7818608E-02  0.1382219E+00
          2   -1    0    0  502    0  0.00000000000E+00  0.00000000000E+00  0.58842625910E+03  0.58842625910E+03  0.00000000000E+00 0. -1.
          1   -1    0    0  501    0 -0.00000000000E+00 -0.00000000000E+00 -0.31789132726E+03  0.31789132726E+03  0.00000000000E+00 0. -1.
         25    2    1    2    0    0  0.11203113918E+03 -0.11972926936E+03 -0.11459099076E+03  0.23588272523E+03  0.12499396309E+03 0.  0.
          2    1    1    2  501    0 -0.25632415806E+02  0.15202094705E+02 -0.13225769849E+03  0.13557368194E+03  0.00000000000E+00 0. -1.
          1    1    1    2  502    0 -0.86398723371E+02  0.10452717466E+03  0.51738362109E+03  0.53486117920E+03  0.00000000000E+00 0. -1.
         22    1    3    3    0    0 -0.18612448070E+02 -0.25319368074E+02  0.90902476699E+01  0.32712783824E+02  0.00000000000E+00 0. -1.
         22    1    3    3    0    0  0.13064358725E+03 -0.94409901286E+02 -0.12368123843E+03  0.20316994140E+03  0.00000000000E+00 0. -1.
</event>
<event>
 7    1  0.6901423E-006  0.8686609E+02  0.7818608E-02  0.1372192E+00
          2   -1    0    0  502    0  0.00000000000E+00  0.00000000000E+00  0.89545403714E+03  0.89545403714E+03  0.00000000000E+00 0. -1.
          1   -1    0    0  501    0 -0.00000000000E+00 -0.00000000000E+00 -0.12351080298E+04  0.12351080298E+04  0.00000000000E+00 0. -1.
         25    2    1    2    0    0 -0.10991247731E+03 -0.54175824296E+02 -0.66427332709E+03  0.68694949071E+03  0.12499910839E+03 0.  0.
          2    1    1    2  501    0  0.58939016186E+02  0.52441684587E+02 -0.55597401500E+03  0.56154344735E+03  0.00000000000E+00 0. -1.
          1    1    1    2  502    0  0.50973461126E+02  0.17341397090E+01  0.88059334946E+03  0.88206912886E+03  0.00000000000E+00 0. -1.
         22    1    3    3    0    0 -0.32905484055E+02 -0.25878938554E+02 -0.42030974438E+02  0.59321944959E+02  0.00000000000E+00 0. -1.
         22    1    3    3    0    0 -0.77006993257E+02 -0.28296885742E+02 -0.62224235265E+03  0.62762754575E+03  0.00000000000E+00 0. -1.
</event>
<event>
 7    1  0.6262315E-006  0.1057146E+03  0.7818608E-02  0.1443609E+00
          2   -1    0    0  502    0  0.00000000000E+00  0.00000000000E+00  0.15462185864E+04  0.15462185864E+04  0.00000000000E+00 0. -1.
          1   -1    0    0  501    0 -0.00000000000E+00 -0.00000000000E+00 -0.36949675755E+03  0.36949675755E+03  0.00000000000E+00 0. -1.
         25    2    1    2    0    0 -0.59555095811E+02  0.10963755634E+03 -0.10147697061E+03  0.20369446785E+03  0.12500662972E+03 0.  0.
          2    1    1    2  501    0  0.44429512726E+02 -0.91062182068E+02 -0.20497665521E+03  0.22865198837E+03  0.00000000000E+00 0. -1.
          1    1    1    2  502    0  0.15125583086E+02 -0.18575374269E+02  0.14831754547E+04  0.14833688877E+04  0.00000000000E+00 0. -1.
         22    1    3    3    0    0 -0.33307868656E+02  0.13497069048E+03 -0.70687807455E+02  0.15595918545E+03  0.00000000000E+00 0.  1.
         22    1    3    3    0    0 -0.26247227155E+02 -0.25333134140E+02 -0.30789163153E+02  0.47735282406E+02  0.00000000000E+00 0.  1.
</event>
<event>
 7    1  0.6262315E-006  0.1294053E+03  0.7818608E-02  0.1290826E+00
          2   -1    0    0  502    0  0.00000000000E+00  0.00000000000E+00  0.24503014387E+03  0.24503014387E+03  0.00000000000E+00 0. -1.
          1   -1    0    0  501    0 -0.00000000000E+00 -0.00000000000E+00 -0.73702416753E+03  0.73702416753E+03  0.00000000000E+00 0. -1.
         25    2    1    2    0    0  0.14029865576E+03 -0.58537326736E+01 -0.47944968521E+02  0.19401480372E+03  0.12500018025E+03 0.  0.
          2    1    1    2  501    0 -0.24507391713E+02  0.65538234031E+02 -0.58900677940E+03  0.59314826017E+03  0.00000000000E+00 0. -1.
          1    1    1    2  502    0 -0.11579126404E+03 -0.59684501357E+02  0.14495772427E+03  0.19489124751E+03  0.00000000000E+00 0. -1.
         22    1    3    3    0    0  0.12157278372E+03 -0.46598225021E+02 -0.65640238023E+02  0.14580801475E+03  0.00000000000E+00 0. -1.
         22    1    3    3    0    0  0.18725872036E+02  0.40744492347E+02  0.17695269501E+02  0.48206788971E+02  0.00000000000E+00 0. -1.
</event>
<event>
 7    1  0.6262315E-006  0.6484667E+02  0.7818608E-02  0.1449686E+00
          2   -1    0    0  502    0  0.00000000000E+00  0.00000000000E+00  0.23037791925E+04  0.23037791925E+04  0.00000000000E+00 0. -1.
          1   -1    0    0  501    0 -0.00000000000E+00 -0.00000000000E+00 -0.40819769583E+03  0.40819769583E+03  0.00000000000E+00 0. -1.
         25    2    1    2    0    0 -0.37705329115E+02  0.78565814336E+02  0.13978567859E+03  0.20678532460E+03  0.12500342198E+03 0.  0.
          2    1    1    2  501    0  0.34600643907E+02 -0.14021570558E+02 -0.37327650499E+03  0.37513885187E+03  0.00000000000E+00 0. -1.
          1    1    1    2  502    0  0.31046852088E+01 -0.64544243778E+02  0.21290723231E+04  0.21300527119E+04  0.00000000000E+00 0. -1.
         22    1    3    3    0    0 -0.76895210180E+02  0.64021822364E+02  0.59883431733E+02  0.11660914408E+03  0.00000000000E+00 0.  1.
         22    1    3    3    0    0  0.39189881064E+02  0.14543991972E+02  0.79902246857E+02  0.90176180520E+02  0.00000000000E+00 0.  1.
</event>
<event>
 7    1  0.6262315E-006  0.8877969E+02  0.7818608E-02  0.1462746E+00
          2   -1    0    0  502    0  0.00000000000E+00  0.00000000000E+00  0.32616370423E+02  0.32616370423E+02  0.00000000000E+00 0. -1.
          1   -1    0    0  501    0 -0.00000000000E+00 -0.00000000000E+00 -0.17539788272E+04  0.17539788272E+04  0.00000000000E+00 0. -1.
         25    2    1    2    0    0  0.16568694211E+02  0.77143949417E+02 -0.12838216253E+04  0.12923032385E+04  0.12499593595E+03 0.  0.
          2    1    1    2  501    0 -0.21583111572E+02  0.12192314089E+02 -0.39400812652E+03  0.39478714137E+03  0.00000000000E+00 0. -1.
          1    1    1    2  502    0  0.50144173612E+01 -0.89336263506E+02 -0.43532704933E+02  0.99504817760E+02  0.00000000000E+00 0. -1.
         22    1    3    3    0    0 -0.48102439361E+02  0.50789274430E+02 -0.43234110241E+03  0.43796372441E+03  0.00000000000E+00 0.  1.
         22    1    3    3    0    0  0.64671133572E+02  0.26354674987E+02 -0.85148052288E+03  0.85433951405E+03  0.00000000000E+00 0.  1.
</event>
<event>
 7    1  0.6262315E-006  0.1280988E+03  0.7818608E-02  0.1345834E+00
          2   -1    0    0  502    0  0.00000000000E+00  0.00000000000E+00  0.90665122234E+03  0.90665122234E+03  0.00000000000E+00 0. -1.
          1   -1    0    0  501    0 -0.00000000000E+00 -0.00000000000E+00 -0.19497465278E+03  0.19497465278E+03  0.00000000000E+00 0. -1.
         25    2    1    2    0    0  0.12015779166E+03  0.16711093910E+02  0.31721975653E+03  0.36189864939E+03  0.12500041175E+03 0.  0.
          2    1    1    2  501    0 -0.11450815364E+03 -0.59516289251E+02 -0.14753837684E+03  0.19601499579E+03  0.00000000000E+00 0. -1.
          1    1    1    2  502    0 -0.56496380193E+01  0.42805195341E+02  0.54199518986E+03  0.54371222995E+03  0.00000000000E+00 0. -1.
         22    1    3    3    0    0 -0.18046945166E+02 -0.11914800332E+02  0.10031851813E+02  0.23838891492E+02  0.00000000000E+00 0. -1.
         22    1    3    3    0    0  0.13820473683E+03  0.28625894242E+02  0.30718790472E+03  0.33805975789E+03  0.00000000000E+00 0. -1.
</event>
<event>
 7    1  0.6262315E-006  0.1380784E+03  0.7818608E-02  0.1265879E+00
          2   -1    0    0  502    0  0.00000000000E+00  0.00000000000E+00  0.16242977549E+04  0.16242977549E+04  0.00000000000E+00 0. -1.
          1   -1    0    0  501    0 -0.00000000000E+00 -0.00000000000E+00 -0.55675268755E+03  0.55675268755E+03  0.00000000000E+00 0. -1.
         25    2    1    2    0    0  0.61488463708E+02 -0.52687521675E+02  0.35476796902E+02  0.15310367639E+03  0.12500130598E+03 0.  0.
          2    1    1    2  501    0  0.78277096572E+02  0.28191709686E+02 -0.49114325010E+03  0.49814031001E+03  0.00000000000E+00 0. -1.
          1    1    1    2  502    0 -0.13976556028E+03  0.24495811988E+02  0.15232115206E+04  0.15298064561E+04  0.00000000000E+00 0. -1.
         22    1    3    3    0    0  0.79874065045E+01 -0.84861855363E+02  0.30287182695E+02  0.90457982478E+02  0.00000000000E+00 0. -1.
         22    1    3    3    0    0  0.53501057204E+02  0.32174333689E+02  0.51896142063E+01  0.62645693913E+02  0.00000000000E+00 0. -1.
</event>
<event>
 7    1  0.6262315E-006  0.2771761E+02  0.7818608E-02  0.1658138E+00
          2   -1    0    0  502    0  0.00000000000E+00  0.00000000000E+00  0.35718688336E+02  0.35718688336E+02  0.00000000000E+00 0. -1.
          1   -1    0    0  501    0 -0.00000000000E+00 -0.00000000000E+00 -0.54302774090E+03  0.54302774090E+03  0.00000000000E+00 0. -1.
         25    2    1    2    0    0  0.44891017594E+02  0.75575470054E+01 -0.14333062876E+03  0.19555066562E+03  0.12499629477E+03 0.  0.
          2    1    1    2  501    0 -0.19292944462E+02 -0.12358958818E+02 -0.35486342147E+03  0.35560231927E+03  0.00000000000E+00 0. -1.
          1    1    1    2  502    0 -0.25598073133E+02  0.48014118126E+01 -0.91150023345E+01  0.27593444349E+02  0.00000000000E+00 0. -1.
         22    1    3    3    0    0  0.35127077859E+02  0.65447171947E+02 -0.77600355635E+02  0.10742001261E+03  0.00000000000E+00 0. -1.
         22    1    3    3    0    0  0.97639397357E+01 -0.57889624941E+02 -0.65730273121E+02  0.88130653008E+02  0.00000000000E+00 0. -1.
</event>
<event>
 7    1  0.6262315E-006  0.5611861E+02  0.7818608E-02  0.1444758E+00
          2   -1    0    0  502    0  0.00000000000E+00  0.00000000000E+00  0.33287161273E+04  0.33287161273E+04  0.00000000000E+00 0. -1.
          1   -1    0    0  501    0 -0.00000000000E+00 -0.00000000000E+00 -0.28454715886E+03  0.28454715886E+03  0.00000000000E+00 0. -1.
         25    2    1    2    0    0 -0.69316319072E+02  0.61093089867E+02  0.10822736470E+04  0.10933795041E+04  0.12500150121E+03 0.  0.
          2    1    1    2  501    0  0.42517362778E+02 -0.13931903468E+02 -0.27686980783E+03  0.28046160978E+03  0.00000000000E+00 0. -1.
          1    1    1    2  502    0  0.26798956294E+02 -0.47161186399E+02  0.22387651293E+04  0.22394221722E+04  0.00000000000E+00 0. -1.
         22    1    3    3    0    0 -0.52678253640E+02  0.93868380679E+02  0.95050244074E+03  0.95657783852E+03  0.00000000000E+00 0. -1.
         22    1    3    3    0    0 -0.16638065432E+02 -0.32775290812E+02  0.13177120624E+03  0.13680166557E+03  0.00000000000E+00 0. -1.
</event>
<event>
 7    1  0.6262315E-006  0.2138466E+03  0.7818608E-02  0.1203976E+00
          2   -1    0    0  502    0  0.00000000000E+00  0.00000000000E+00  0.27179387445E+04  0.27179387445E+04  0.00000000000E+00 0. -1.
          1   -1    0    0  501    0 -0.00000000000E+00 -0.00000000000E+00 -0.12895483444E+04  0.12895483444E+04  0.00000000000E+00 0. -1.
         25    2    1    2    0    0 -0.10629846185E+03  0.28514062249E+03  0.54651904001E+03  0.63789814935E+03  0.12500580091E+03 0.  0.
          2    1    1    2  501    0  0.46914955761E+02 -0.89783900253E+02 -0.12368801751E+04  0.12410216474E+04  0.00000000000E+00 0. -1.
          1    1    1    2  502    0  0.59383506087E+02 -0.19535672224E+03  0.21187515351E+04  0.21285672922E+04  0.00000000000E+00 0. -1.
         22    1    3    3    0    0 -0.33329049103E+02  0.17833106164E+03  0.41743596594E+03  0.45515445589E+03  0.00000000000E+00 0. -1.
         22    1    3    3    0    0 -0.72969412745E+02  0.10680956086E+03  0.12908307407E+03  0.18274369345E+03  0.00000000000E+00 0. -1.
</event>
<event>
 7    1  0.6262315E-006  0.6508011E+02  0.7818608E-02  0.1438872E+00
          2   -1    0    0  502    0  0.00000000000E+00  0.00000000000E+00  0.61087182680E+03  0.61087182680E+03  0.00000000000E+00 0. -1.
          1   -1    0    0  501    0 -0.00000000000E+00 -0.00000000000E+00 -0.22286088020E+03  0.22286088020E+03  0.00000000000E+00 0. -1.
         25    2    1    2    0    0  0.10062213647E+03  0.60808533557E+01 -0.84229556930E+02  0.18133232791E+03  0.12500001504E+03 0.  0.
          2    1    1    2  501    0 -0.36836740466E+02 -0.16372013656E+02 -0.83603170975E+02  0.92814214840E+02  0.00000000000E+00 0. -1.
          1    1    1    2  502    0 -0.63785396003E+02  0.10291160301E+02  0.55584367451E+03  0.55958616424E+03  0.00000000000E+00 0. -1.
         22    1    3    3    0    0  0.95876527276E+02 -0.15030307855E+02 -0.28117078029E+01  0.97088229655E+02  0.00000000000E+00 0. -1.
         22    1    3    3    0    0  0.47456091923E+01  0.21111161211E+02 -0.81417849127E+02  0.84244098255E+02  0.00000000000E+00 0. -1.
</event>
<event>
 7    1  0.6262315E-006  0.3740369E+02  0.7818608E-02  0.1562915E+00
          2   -1    0    0  502    0  0.00000000000E+00  0.00000000000E+00  0.12471434930E+03  0.12471434930E+03  0.00000000000E+00 0. -1.
          1   -1    0    0  501    0 -0.00000000000E+00 -0.00000000000E+00 -0.18270004143E+03  0.18270004143E+03  0.00000000000E+00 0. -1.
         25    2    1    2    0    0 -0.79225734687E+01 -0.16787762183E+02 -0.31438767078E+02  0.13023032581E+03  0.12500778198E+03 0.  0.
          2    1    1    2  501    0  0.37446351375E+02  0.12092125931E+02 -0.94815520981E+02  0.10265686416E+03  0.00000000000E+00 0. -1.
          1    1    1    2  502    0 -0.29523777907E+02  0.46956362514E+01  0.68268595929E+02  0.74527200751E+02  0.00000000000E+00 0. -1.
         22    1    3    3    0    0  0.12291013008E+02 -0.16771585004E+02  0.45848627760E+02  0.50343338505E+02  0.00000000000E+00 0.  1.
         22    1    3    3    0    0 -0.20213586477E+02 -0.16177178528E-01 -0.77287394838E+02  0.79886987306E+02  0.00000000000E+00 0.  1.
</event>
<event>
 7    1  0.6262315E-006  0.4644358E+02  0.7818608E-02  0.1553384E+00
          2   -1    0    0  502    0  0.00000000000E+00  0.00000000000E+00  0.12748553313E+04  0.12748553313E+04  0.00000000000E+00 0. -1.
          1   -1    0    0  501    0 -0.00000000000E+00 -0.00000000000E+00 -0.39965617590E+03  0.39965617590E+03  0.00000000000E+00 0. -1.
         25    2    1    2    0    0 -0.53355622711E+02 -0.40445225835E+02  0.94203487727E+03  0.95264601187E+03  0.12498830017E+03 0.  0.
          2    1    1    2  501    0  0.28007503187E+02  0.37015824122E+02 -0.39248143010E+03  0.39521673097E+03  0.00000000000E+00 0. -1.
          1    1    1    2  502    0  0.25348119525E+02  0.34294017129E+01  0.32564570821E+03  0.32664876432E+03  0.00000000000E+00 0. -1.
         22    1    3    3    0    0  0.16946122341E+02  0.34842403566E+02  0.26751342247E+03  0.27030463435E+03  0.00000000000E+00 0.  1.
         22    1    3    3    0    0 -0.70301745052E+02 -0.75287629400E+02  0.67452145479E+03  0.68234137752E+03  0.00000000000E+00 0.  1.
</event>
<event>
 7    1  0.6262315E-006  0.1091743E+03  0.7818608E-02  0.1265134E+00
          2   -1    0    0  502    0  0.00000000000E+00  0.00000000000E+00  0.14179699181E+04  0.14179699181E+04  0.00000000000E+00 0. -1.
          1   -1    0    0  501    0 -0.00000000000E+00 -0.00000000000E+00 -0.21306494416E+04  0.21306494416E+04  0.00000000000E+00 0. -1.
         25    2    1    2    0    0  0.40853805715E+02  0.10188644833E+03  0.16986745132E+03  0.23776057370E+03  0.12500103037E+03 0.  0.
          2    1    1    2  501    0  0.69724788628E+02 -0.79830314591E+02 -0.20927408858E+04  0.20954233081E+04  0.00000000000E+00 0. -1.
          1    1    1    2  502    0 -0.11057859434E+03 -0.22056133735E+02  0.12101939110E+04  0.12154354778E+04  0.00000000000E+00 0. -1.
         22    1    3    3    0    0 -0.43326544196E+02  0.54641743476E+02  0.75163112273E+02  0.10253001028E+03  0.00000000000E+00 0.  1.
         22    1    3    3    0    0  0.84180349911E+02  0.47244704850E+02  0.94704339050E+02  0.13523056342E+03  0.00000000000E+00 0.  1.
</event>
<event>
 7    1  0.6262315E-006  0.1231549E+03  0.7818608E-02  0.1370050E+00
          2   -1    0    0  502    0  0.00000000000E+00  0.00000000000E+00  0.40114378373E+04  0.40114378373E+04  0.00000000000E+00 0. -1.
          1   -1    0    0  501    0 -0.00000000000E+00 -0.00000000000E+00 -0.41604420858E+03  0.41604420858E+03  0.00000000000E+00 0. -1.
         25    2    1    2    0    0 -0.67811270862E+02  0.12622181310E+03  0.18332872951E+03  0.26413192609E+03  0.12500374697E+03 0.  0.
          2    1    1    2  501    0  0.35793473147E+02 -0.77221950016E+01 -0.37375317852E+03  0.37554259875E+03  0.00000000000E+00 0. -1.
          1    1    1    2  502    0  0.32017797715E+02 -0.11849961810E+03  0.37858180778E+04  0.37878075211E+04  0.00000000000E+00 0. -1.
         22    1    3    3    0    0 -0.99403849032E+02  0.10518441857E+03  0.11078536999E+03  0.18225884153E+03  0.00000000000E+00 0.  1.
         22    1    3    3    0    0  0.31592578169E+02  0.21037394530E+02  0.72543359523E+02  0.81873084557E+02  0.00000000000E+00 0.  1.
</event>
<event>
 7    1  0.6262315E-006  0.5776460E+02  0.7818608E-02  0.1472594E+00
          2   -1    0    0  502    0  0.00000000000E+00  0.00000000000E+00  0.56129819460E+02  0.56129819460E+02  0.00000000000E+00 0. -1.
          1   -1    0    0  501    0 -0.00000000000E+00 -0.00000000000E+00 -0.32890857441E+03  0.32890857441E+03  0.00000000000E+00 0. -1.
         25    2    1    2    0    0  0.83554621403E+02 -0.20489089800E+02 -0.11874598420E+03  0.19268853175E+03  0.12500833551E+03 0.  0.
          2    1    1    2  501    0 -0.33468323995E+02  0.11823748909E+02 -0.13245595608E+03  0.13712953748E+03  0.00000000000E+00 0. -1.
          1    1    1    2  502    0 -0.50086297408E+02  0.86653408915E+01 -0.21576814672E+02  0.55220324630E+02  0.00000000000E+00 0. -1.
         22    1    3    3    0    0  0.53253313375E+02 -0.71366946335E+02 -0.50640248780E+02  0.10243823120E+03  0.00000000000E+00 0.  1.
         22    1    3    3    0    0  0.30301308029E+02  0.50877856535E+02 -0.68105735416E+02  0.90250300556E+02  0.00000000000E+00 0.  1.
</event>
<event>
 7    1  0.6262315E-006  0.1906880E+03  0.7818608E-02  0.1217192E+00
          2   -1    0    0  502    0  0.00000000000E+00  0.00000000000E+00  0.88713094974E+03  0.88713094974E+03  0.00000000000E+00 0. -1.
          1   -1    0    0  501    0 -0.00000000000E+00 -0.00000000000E+00 -0.13103106089E+04  0.13103106089E+04  0.00000000000E+00 0. -1.
         25    2    1    2    0    0  0.17992580797E+03 -0.11372580568E+03  0.14662225567E+03  0.28711242578E+03  0.12501441489E+03 0.  0.
          2    1    1    2  501    0  0.97301434973E+01  0.98187263544E+02 -0.12245348726E+04  0.12285035891E+04  0.00000000000E+00 0. -1.
          1    1    1    2  502    0 -0.18965595147E+03  0.15538542134E+02  0.65473295770E+03  0.68182554376E+03  0.00000000000E+00 0. -1.
         22    1    3    3    0    0  0.77458099567E+02 -0.59797326243E+02  0.14042153515E+03  0.17115398023E+03  0.00000000000E+00 0. -1.
         22    1    3    3    0    0  0.10246770840E+03 -0.53928479435E+02  0.62007205144E+01  0.11595844555E+03  0.00000000000E+00 0. -1.
</event>
<event>
 7    1  0.6262315E-006  0.6436279E+02  0.7818608E-02  0.1421364E+00
          2   -1    0    0  502    0  0.00000000000E+00  0.00000000000E+00  0.10496315866E+04  0.10496315866E+04  0.00000000000E+00 0. -1.
          1   -1    0    0  501    0 -0.00000000000E+00 -0.00000000000E+00 -0.13630288424E+03  0.13630288424E+03  0.00000000000E+00 0. -1.
         25    2    1    2    0    0 -0.64750342494E+02 -0.30083974868E+02  0.16063279404E+03  0.21569740396E+03  0.12499929262E+03 0.  0.
          2    1    1    2  501    0  0.21169161624E+01  0.46496353838E+02 -0.10251087564E+03  0.11258273348E+03  0.00000000000E+00 0. -1.
          1    1    1    2  502    0  0.62633426331E+02 -0.16412378970E+02  0.85520678394E+03  0.85765433339E+03  0.00000000000E+00 0. -1.
         22    1    3    3    0    0 -0.93568583808E+02 -0.52442507195E+02  0.12489137715E+03  0.16463035116E+03  0.00000000000E+00 0. -1.
         22    1    3    3    0    0  0.28818241314E+02  0.22358532327E+02  0.35741416886E+02  0.51067052796E+02  0.00000000000E+00 0. -1.
</event>
<event>
 7    1  0.6262315E-006  0.5196539E+02  0.7818608E-02  0.1468046E+00
          2   -1    0    0  502    0  0.00000000000E+00  0.00000000000E+00  0.19852884331E+04  0.19852884331E+04  0.00000000000E+00 0. -1.
          1   -1    0    0  501    0 -0.00000000000E+00 -0.00000000000E+00 -0.59331198695E+03  0.59331198695E+03  0.00000000000E+00 0. -1.
         25    2    1    2    0    0 -0.13697830871E+02 -0.89252559188E+02  0.11452626691E+04  0.11555978237E+04  0.12500439581E+03 0.  0.
          2    1    1    2  501    0  0.17983026400E+02  0.48715805736E+02 -0.58649894604E+03  0.58879337010E+03  0.00000000000E+00 0. -1.
          1    1    1    2  502    0 -0.42851955291E+01  0.40536753452E+02  0.83321272308E+03  0.83420922627E+03  0.00000000000E+00 0. -1.
         22    1    3    3    0    0 -0.33582183943E+02 -0.61964712571E+02  0.10783334790E+04  0.10806342955E+04  0.00000000000E+00 0. -1.
         22    1    3    3    0    0  0.19884353073E+02 -0.27287846617E+02  0.66929190127E+02  0.74963528206E+02  0.00000000000E+00 0. -1.
</event>
<event>
 7    1  0.7614531E-006  0.8417424E+02  0.7818608E-02  0.1380099E+00
          2   -1    0    0  502    0  0.00000000000E+00  0.00000000000E+00  0.11816454067E+04  0.11816454067E+04  0.00000000000E+00 0. -1.
          1   -1    0    0  501    0 -0.00000000000E+00 -0.00000000000E+00 -0.56414123162E+03  0.56414123162E+03  0.00000000000E+00 0. -1.
         25    2    1    2    0    0  0.53055251186E+02 -0.32453250549E+02 -0.50598483588E+02  0.14850441755E+03  0.12500112936E+03 0.  0.
          2    1    1    2  501    0 -0.19489365725E+02 -0.45315725614E+02 -0.46169050444E+03  0.46431828766E+03  0.00000000000E+00 0. -1.
          1    1    1    2  502    0 -0.33565885461E+02  0.77768976163E+02  0.11297931631E+04  0.11329639331E+04  0.00000000000E+00 0. -1.
         22    1    3    3    0    0 -0.41216192719E+02 -0.70916041043E+01 -0.18591885801E+02  0.45768150593E+02  0.00000000000E+00 0. -1.
         22    1    3    3    0    0  0.94271443906E+02 -0.25361646445E+02 -0.32006597786E+02  0.10273626696E+03  0.00000000000E+00 0. -1.
</event>
<event>
 7    1  0.6262315E-006  0.9826580E+02  0.7818608E-02  0.1447068E+00
          2   -1    0    0  502    0  0.00000000000E+00  0.00000000000E+00  0.66552973786E+03  0.66552973786E+03  0.00000000000E+00 0. -1.
          1   -1    0    0  501    0 -0.00000000000E+00 -0.00000000000E+00 -0.42513950576E+03  0.42513950576E+03  0.00000000000E+00 0. -1.
         25    2    1    2    0    0 -0.75889903315E+02  0.90208416750E+01 -0.21799904419E+02  0.14812650547E+03  0.12500229110E+03 0.  0.
          2    1    1    2  501    0  0.10073180861E+03 -0.53071276136E+01 -0.33242754024E+03  0.34739477886E+03  0.00000000000E+00 0. -1.
          1    1    1    2  502    0 -0.24841905294E+02 -0.37137140615E+01  0.59461767676E+03  0.59514795929E+03  0.00000000000E+00 0. -1.
         22    1    3    3    0    0  0.96724176650E+01 -0.10074056970E+02 -0.53202371480E+02  0.55004859952E+02  0.00000000000E+00 0.  1.
         22    1    3    3    0    0 -0.85562320980E+02  0.19094898645E+02  0.31402467061E+02  0.93121645514E+02  0.00000000000E+00 0.  1.
</event>
<event>
 7    1  0.6262315E-006  0.5858066E+02  0.7818608E-02  0.1541433E+00
          2   -1    0    0  502    0  0.00000000000E+00  0.00000000000E+00  0.36335668603E+02  0.36335668603E+02  0.00000000000E+00 0. -1.
          1   -1    0    0  501    0 -0.00000000000E+00 -0.00000000000E+00 -0.71991139709E+03  0.71991139709E+03  0.00000000000E+00 0. -1.
         25    2    1    2    0    0  0.37753278229E+02  0.62072864710E+02 -0.48067792789E+03  0.50195076371E+03  0.12499979312E+03 0.  0.
          2    1    1    2  501    0  0.34894356382E+01 -0.21623555811E+02 -0.19472537808E+03  0.19595338016E+03  0.00000000000E+00 0. -1.
          1    1    1    2  502    0 -0.41242713867E+02 -0.40449308899E+02 -0.81724225205E+01  0.58342921828E+02  0.00000000000E+00 0. -1.
         22    1    3    3    0    0  0.15169481197E+02 -0.32665076036E+02 -0.58606037965E+02  0.68787993416E+02  0.00000000000E+00 0.  1.
         22    1    3    3    0    0  0.22583797032E+02  0.94737940746E+02 -0.42207188992E+03  0.43316277029E+03  0.00000000000E+00 0.  1.
</event>
<event>
 7    1  0.6262315E-006  0.2036388E+03  0.7818608E-02  0.1254496E+00
          2   -1    0    0  502    0  0.00000000000E+00  0.00000000000E+00  0.73279753354E+03  0.73279753354E+03  0.00000000000E+00 0. -1.
          1   -1    0    0  501    0 -0.00000000000E+00 -0.00000000000E+00 -0.15069073733E+03  0.15069073733E+03  0.00000000000E+00 0. -1.
         25    2    1    2    0    0 -0.20918248858E+03  0.12957104834E+03  0.31568650914E+03  0.41931948775E+03  0.12499956264E+03 0.  0.
          2    1    1    2  501    0  0.47672404404E+02 -0.41322359360E+02 -0.61516182749E+02  0.88116038635E+02  0.00000000000E+00 0. -1.
          1    1    1    2  502    0  0.16151008418E+03 -0.88248688976E+02  0.32793646982E+03  0.37605274449E+03  0.00000000000E+00 0. -1.
         22    1    3    3    0    0 -0.14663671317E+03  0.10161030176E+03  0.29999724512E+03  0.34903484949E+03  0.00000000000E+00 0. -1.
         22    1    3    3    0    0 -0.62545775410E+02  0.27960746577E+02  0.15689264011E+02  0.70284638265E+02  0.00000000000E+00 0. -1.
</event>
<event>
 7    1  0.6262315E-006  0.5660355E+02  0.7818608E-02  0.1450019E+00
          2   -1    0    0  502    0  0.00000000000E+00  0.00000000000E+00  0.16833155406E+03  0.16833155406E+03  0.00000000000E+00 0. -1.
          1   -1    0    0  501    0 -0.00000000000E+00 -0.00000000000E+00 -0.18132475252E+04  0.18132475252E+04  0.00000000000E+00 0. -1.
         25    2    1    2    0    0 -0.99753920089E+01  0.65547534401E+02 -0.13615586969E+03  0.19636598302E+03  0.12500076290E+03 0.  0.
          2    1    1    2  501    0  0.39192468620E+02 -0.16862488812E+02 -0.16408667959E+04  0.16414214069E+04  0.00000000000E+00 0. -1.
          1    1    1    2  502    0 -0.29217076612E+02 -0.48685045590E+02  0.13210669441E+03  0.14379168939E+03  0.00000000000E+00 0. -1.
         22    1    3    3    0    0  0.67590337367E+01 -0.32850497420E+02 -0.90181135732E+01  0.34729901961E+02  0.00000000000E+00 0. -1.
         22    1    3    3    0    0 -0.16734425746E+02  0.98398031821E+02 -0.12713775612E+03  0.16163608106E+03  0.00000000000E+00 0. -1.
</event>
<event>
 7    1  0.6262315E-006  0.5225708E+02  0.7818608E-02  0.1444374E+00
          2   -1    0    0  502    0  0.00000000000E+00  0.00000000000E+00  0.16412596925E+04  0.16412596925E+04  0.00000000000E+00 0. -1.
          1   -1    0    0  501    0 -0.00000000000E+00 -0.00000000000E+00 -0.15531432405E+02  0.15531432405E+02  0.00000000000E+00 0. -1.
         25    2    1    2    0    0 -0.13313267315E+02  0.32809999374E+02  0.47013363079E+03  0.48776486876E+03  0.12504078235E+03 0.  0.
          2    1    1    2  501    0  0.46995646362E+02  0.10640462518E+02  0.90626284730E+02  0.10263982513E+03  0.00000000000E+00 0. -1.
          1    1    1    2  502    0 -0.33682379047E+02 -0.43450461892E+02  0.10649683446E+04  0.10663864310E+04  0.00000000000E+00 0. -1.
         22    1    3    3    0    0 -0.11188283085E+02  0.43787391552E+02  0.49674324762E+02  0.67156919806E+02  0.00000000000E+00 0.  1.
         22    1    3    3    0    0 -0.21249842306E+01 -0.10977392178E+02  0.42045930603E+03  0.42060794896E+03  0.00000000000E+00 0.  1.
</event>
<event>
 7    1  0.6262315E-006  0.4025063E+02  0.7818608E-02  0.1534413E+00
          2   -1    0    0  502    0  0.00000000000E+00  0.00000000000E+00  0.52944882907E+03  0.52944882907E+03  0.00000000000E+00 0. -1.
          1   -1    0    0  501    0 -0.00000000000E+00 -0.00000000000E+00 -0.11987907323E+04  0.11987907323E+04  0.00000000000E+00 0. -1.
         25    2    1    2    0    0  0.77066390915E+01 -0.17622034810E+02 -0.54759077542E+03  0.56200827368E+03  0.12501085539E+03 0.  0.
          2    1    1    2  501    0  0.17866542777E+02  0.39063673609E+02 -0.64274042151E+03  0.64417422596E+03  0.00000000000E+00 0. -1.
          1    1    1    2  502    0 -0.25573181868E+02 -0.21441638799E+02  0.52098929372E+03  0.52205706171E+03  0.00000000000E+00 0. -1.
         22    1    3    3    0    0  0.37158045435E+02  0.35091278098E+01 -0.46583066893E+02  0.59691008030E+02  0.00000000000E+00 0. -1.
         22    1    3    3    0    0 -0.29451406343E+02 -0.21131162619E+02 -0.50100770852E+03  0.50231726565E+03  0.00000000000E+00 0. -1.
</event>
<event>
 7    1  0.6262315E-006  0.4842009E+02  0.7818608E-02  0.1531646E+00
          2   -1    0    0  502    0  0.00000000000E+00  0.00000000000E+00  0.15291907428E+02  0.15291907428E+02  0.00000000000E+00 0. -1.
          1   -1    0    0  501    0 -0.00000000000E+00 -0.00000000000E+00 -0.26958957815E+04  0.26958957815E+04  0.00000000000E+00 0. -1.
         25    2    1    2    0    0 -0.65363475352E+02  0.34974498568E+02 -0.10062494700E+04  0.10166896674E+04  0.12499713807E+03 0.  0.
          2    1    1    2  501    0  0.38261096575E+02 -0.27001572143E+02 -0.16636163271E+04  0.16642753018E+04  0.00000000000E+00 0. -1.
          1    1    1    2  502    0  0.27102378777E+02 -0.79729264244E+01 -0.10738077043E+02  0.30222719761E+02  0.00000000000E+00 0. -1.
         22    1    3    3    0    0 -0.23495781029E+02 -0.46326950900E+02 -0.44772025019E+03  0.45072348567E+03  0.00000000000E+00 0.  1.
         22    1    3    3    0    0 -0.41867694322E+02  0.81301449468E+02 -0.55852921981E+03  0.56596618176E+03  0.00000000000E+00 0.  1.
</event>
<event>
 7    1  0.6262315E-006  0.1223230E+03  0.7818608E-02  0.1303314E+00
          2   -1    0    0  502    0  0.00000000000E+00  0.00000000000E+00  0.33019731625E+04  0.33019731625E+04  0.00000000000E+00 0. -1.
          1   -1    0    0  501    0 -0.00000000000E+00 -0.00000000000E+00 -0.42432472339E+02  0.42432472339E+02  0.00000000000E+00 0. -1.
         25    2    1    2    0    0  0.40752438938E+02 -0.13124835501E+03  0.38857929823E+03  0.43069303681E+03  0.12496291037E+03 0.  0.
          2    1    1    2  501    0  0.23922778195E+02  0.11840771880E+03  0.15294747237E+03  0.19489899049E+03  0.00000000000E+00 0. -1.
          1    1    1    2  502    0 -0.64675217133E+02  0.12840636208E+02  0.27180139195E+04  0.27188136075E+04  0.00000000000E+00 0. -1.
         22    1    3    3    0    0  0.79525023495E+02 -0.12214963779E+03  0.31249248548E+03  0.34481345225E+03  0.00000000000E+00 0.  1.
         22    1    3    3    0    0 -0.38772584557E+02 -0.90987172178E+01  0.76086812751E+02  0.85879584552E+02  0.00000000000E+00 0.  1.
</event>
<event>
 7    1  0.6262315E-006  0.6896469E+02  0.7818608E-02  0.1456687E+00
          2   -1    0    0  502    0  0.00000000000E+00  0.00000000000E+00  0.13327001341E+04  0.13327001341E+04  0.00000000000E+00 0. -1.
          1   -1    0    0  501    0 -0.00000000000E+00 -0.00000000000E+00 -0.24329626800E+03  0.24329626800E+03  0.00000000000E+00 0. -1.
         25    2    1    2    0    0 -0.30630731520E+02  0.82382421210E+02 -0.13044141865E+03  0.20090897690E+03  0.12499739302E+03 0.  0.
          2    1    1    2  501    0  0.30496185391E+02 -0.13492666391E+02 -0.73079524437E+02  0.80328614214E+02  0.00000000000E+00 0. -1.
          1    1    1    2  502    0  0.13454612871E+00 -0.68889754820E+02  0.12929248092E+04  0.12947588110E+04  0.00000000000E+00 0. -1.
         22    1    3    3    0    0  0.20928256141E+02  0.76569477646E+02 -0.24714164810E+02  0.83136434578E+02  0.00000000000E+00 0.  1.
         22    1    3    3    0    0 -0.51558987661E+02  0.58129435645E+01 -0.10572725384E+03  0.11777254232E+03  0.00000000000E+00 0.  1.
</event>
<event>
 7    1  0.6262315E-006  0.3343359E+02  0.7818608E-02  0.1572674E+00
          2   -1    0    0  502    0  0.00000000000E+00  0.00000000000E+00  0.57600491509E+03  0.57600491509E+03  0.00000000000E+00 0. -1.
          1   -1    0    0  501    0 -0.00000000000E+00 -0.00000000000E+00 -0.18645353120E+04  0.18645353120E+04  0.00000000000E+00 0. -1.
         25    2    1    2    0    0  0.32473105633E+02  0.29471796545E+01  0.41601375407E+03  0.43560947462E+03  0.12499992937E+03 0.  0.
          2    1    1    2  501    0 -0.13990270866E+02  0.28176336372E+02 -0.18524209573E+04  0.18526880571E+04  0.00000000000E+00 0. -1.
          1    1    1    2  502    0 -0.18482834767E+02 -0.31123516027E+02  0.14787680638E+03  0.15224269537E+03  0.00000000000E+00 0. -1.
         22    1    3    3    0    0 -0.96166638175E+01  0.57625445864E+02  0.22689828817E+03  0.23429896587E+03  0.00000000000E+00 0. -1.
         22    1    3    3    0    0  0.42089769450E+02 -0.54678266209E+02  0.18911546590E+03  0.20131050875E+03  0.00000000000E+00 0. -1.
</event>
<event>
 7    1  0.6262315E-006  0.6715502E+02  0.7818608E-02  0.1477058E+00
          2   -1    0    0  502    0  0.00000000000E+00  0.00000000000E+00  0.25257023338E+02  0.25257023338E+02  0.00000000000E+00 0. -1.
          1   -1    0    0  501    0 -0.00000000000E+00 -0.00000000000E+00 -0.33347147591E+04  0.33347147591E+04  0.00000000000E+00 0. -1.
         25    2    1    2    0    0 -0.58493808734E+01  0.52745114942E+02 -0.33889348767E+03  0.36508988268E+03  0.12500225614E+03 0.  0.
          2    1    1    2  501    0  0.34958397197E+02 -0.57989582142E+02 -0.29637577694E+04  0.29645311597E+04  0.00000000000E+00 0. -1.
          1    1    1    2  502    0 -0.29109016324E+02  0.52444671998E+01 -0.68064786416E+01  0.30350740008E+02  0.00000000000E+00 0. -1.
         22    1    3    3    0    0  0.11244390558E+02  0.91990102717E+02 -0.24316922301E+03  0.26023044852E+03  0.00000000000E+00 0.  1.
         22    1    3    3    0    0 -0.17093771432E+02 -0.39244987775E+02 -0.95724264664E+02  0.10485943416E+03  0.00000000000E+00 0.  1.
</event>
<event>
 7    1  0.6262315E-006  0.5051206E+02  0.7818608E-02  0.1451898E+00
          2   -1    0    0  502    0  0.00000000000E+00  0.00000000000E+00  0.27109334393E+04  0.27109334393E+04  0.00000000000E+00 0. -1.
          1   -1    0    0  501    0 -0.00000000000E+00 -0.00000000000E+00 -0.61037461375E+03  0.61037461375E+03  0.00000000000E+00 0. -1.
         25    2    1    2    0    0 -0.65942910562E+02 -0.75075421947E+00  0.18068046324E+04  0.18123245819E+04  0.12501351690E+03 0.  0.
          2    1    1    2  501    0  0.30947341263E+02 -0.35578719046E+02 -0.60599223613E+03  0.60782413035E+03  0.00000000000E+00 0. -1.
          1    1    1    2  502    0  0.34995569299E+02  0.36329473266E+02  0.89974642929E+03  0.90115934081E+03  0.00000000000E+00 0. -1.
         22    1    3    3    0    0 -0.58453555030E+02 -0.46419915952E+02  0.15181224097E+04  0.15199563406E+04  0.00000000000E+00 0. -1.
         22    1    3    3    0    0 -0.74893555324E+01  0.45669161733E+02  0.28868222270E+03  0.29236824123E+03  0.00000000000E+00 0. -1.
</event>
<event>
 7    1  0.6262315E-006  0.1301736E+03  0.7818608E-02  0.1360290E+00
          2   -1    0    0  502    0  0.00000000000E+00  0.00000000000E+00  0.86567419393E+03  0.86567419393E+03  0.00000000000E+00 0. -1.
          1   -1    0    0  501    0 -0.00000000000E+00 -0.00000000000E+00 -0.14855586838E+04  0.14855586838E+04  0.00000000000E+00 0. -1.
         25    2    1    2    0    0  0.13933723388E+03 -0.16158174694E+02 -0.26693481690E+02  0.18977744857E+03  0.12500794641E+03 0.  0.
          2    1    1    2  501    0 -0.10945153535E+02  0.35950451402E+02 -0.13716835572E+04  0.13721982409E+04  0.00000000000E+00 0. -1.
          1    1    1    2  502    0 -0.12839208035E+03 -0.19792276707E+02  0.77849254895E+03  0.78925718830E+03  0.00000000000E+00 0. -1.
         22    1    3    3    0    0 -0.14957449250E+02  0.17990010856E+02  0.13102958592E+02  0.26815169261E+02  0.00000000000E+00 0. -1.
         22    1    3    3    0    0  0.15429468313E+03 -0.34148185550E+02 -0.39796440282E+02  0.16296227931E+03  0.00000000000E+00 0. -1.
</event>
<event>
 7    1  0.6262315E-006  0.2013186E+03  0.7818608E-02  0.1245693E+00
          2   -1    0    0  502    0  0.00000000000E+00  0.00000000000E+00  0.17416651423E+04  0.17416651423E+04  0.00000000000E+00 0. -1.
          1   -1    0    0  501    0 -0.00000000000E+00 -0.00000000000E+00 -0.90900034816E+03  0.90900034816E+03  0.00000000000E+00 0. -1.
         25    2    1    2    0    0 -0.15261046670E+03  0.49214125531E+02 -0.30948314799E+03  0.37029330774E+03  0.12500132067E+03 0.  0.
          2    1    1    2  501    0 -0.11610209663E+02  0.68706782914E+02 -0.56097775464E+03  0.56528882899E+03  0.00000000000E+00 0. -1.
          1    1    1    2  502    0  0.16422067636E+03 -0.11792090844E+03  0.17031256967E+04  0.17150833537E+04  0.00000000000E+00 0. -1.
         22    1    3    3    0    0 -0.73432184688E+02 -0.40008597394E+02 -0.11618471284E+03  0.14314978558E+03  0.00000000000E+00 0. -1.
         22    1    3    3    0    0 -0.79178282007E+02  0.89222722925E+02 -0.19329843515E+03  0.22714352216E+03  0.00000000000E+00 0. -1.
</event>
<event>
 7    1  0.1110216E-005  0.7097046E+02  0.7818608E-02  0.1369739E+00
          2   -1    0    0  502    0  0.00000000000E+00  0.00000000000E+00  0.52198782086E+03  0.52198782086E+03  0.00000000000E+00 0. -1.
          1   -1    0    0  501    0 -0.00000000000E+00 -0.00000000000E+00 -0.16629554453E+04  0.16629554453E+04  0.00000000000E+00 0. -1.
         25    2    1    2    0    0  0.27048487799E+02  0.18409791016E+02 -0.46556460276E+03  0.48316098469E+03  0.12499438659E+03 0.  0.
          2    1    1    2  501    0 -0.50508468462E+01 -0.78196593922E+02 -0.11853169824E+04  0.11879042752E+04  0.00000000000E+00 0. -1.
          1    1    1    2  502    0 -0.21997640953E+02  0.59786802906E+02  0.50991396069E+03  0.51387800626E+03  0.00000000000E+00 0. -1.
         22    1    3    3    0    0  0.69363890126E+02 -0.14466969760E+02 -0.32715657940E+03  0.33474179588E+03  0.00000000000E+00 0. -1.
         22    1    3    3    0    0 -0.42315402327E+02  0.32876760776E+02 -0.13840802336E+03  0.14841918880E+03  0.00000000000E+00 0. -1.
</event>
<event>
 7    1  0.6262315E-006  0.1860549E+03  0.7818608E-02  0.1323591E+00
          2   -1    0    0  502    0  0.00000000000E+00  0.00000000000E+00  0.35962511526E+04  0.35962511526E+04  0.00000000000E+00 0. -1.
          1   -1    0    0  501    0 -0.00000000000E+00 -0.00000000000E+00 -0.23727011147E+03  0.23727011147E+03  0.00000000000E+00 0. -1.
         25    2    1    2    0    0  0.97482994905E+02 -0.15207916245E+03  0.95849189830E+02  0.23967250930E+03  0.12499935430E+03 0.  0.
          2    1    1    2  501    0 -0.29146454975E+02 -0.21301554287E+02 -0.16082342345E+03  0.16482550040E+03  0.00000000000E+00 0. -1.
          1    1    1    2  502    0 -0.68336539931E+02  0.17338071673E+03  0.34239552747E+04  0.34290232543E+04  0.00000000000E+00 0. -1.
         22    1    3    3    0    0  0.57252020670E+02  0.45791184191E+01  0.32300822523E+02  0.65894653288E+02  0.00000000000E+00 0. -1.
         22    1    3    3    0    0  0.40230974236E+02 -0.15665828087E+03  0.63548367307E+02  0.17377785601E+03  0.00000000000E+00 0. -1.
</event>
<event>
 7    1  0.6262315E-006  0.1273978E+03  0.7818608E-02  0.1296596E+00
          2   -1    0    0  502    0  0.00000000000E+00  0.00000000000E+00  0.13174625652E+03  0.13174625652E+03  0.00000000000E+00 0. -1.
          1   -1    0    0  501    0 -0.00000000000E+00 -0.00000000000E+00 -0.30332807212E+04  0.30332807212E+04  0.00000000000E+00 0. -1.
         25    2    1    2    0    0  0.16171972833E+03  0.35806779967E+02 -0.14718446191E+04  0.14863998008E+04  0.12498955513E+03 0.  0.
          2    1    1    2  501    0 -0.11679549024E+03  0.14379483241E+02 -0.15426380669E+04  0.15471199570E+04  0.00000000000E+00 0. -1.
          1    1    1    2  502    0 -0.44924238092E+02 -0.50186263207E+02  0.11294822133E+03  0.13150721989E+03  0.00000000000E+00 0. -1.
         22    1    3    3    0    0  0.65392130125E+02 -0.40794530223E+02 -0.76984666575E+03  0.77369516810E+03  0.00000000000E+00 0. -1.
         22    1    3    3    0    0  0.96327598205E+02  0.76601310190E+02 -0.70199795340E+03  0.71270463270E+03  0.00000000000E+00 0. -1.
</event>
<event>
 7    1  0.6262315E-006  0.4325896E+02  0.7818608E-02  0.1525219E+00
          2   -1    0    0  502    0  0.00000000000E+00  0.00000000000E+00  0.99264038322E+03  0.99264038322E+03  0.00000000000E+00 0. -1.
          1   -1    0    0  501    0 -0.00000000000E+00 -0.00000000000E+00 -0.36105645523E+02  0.36105645523E+02  0.00000000000E+00 0. -1.
         25    2    1    2    0    0 -0.43850758076E+02 -0.31204657106E+02  0.19028042660E+03  0.23395000635E+03  0.12501737925E+03 0.  0.
          2    1    1    2  501    0  0.31369246819E+02 -0.10225922199E+02  0.62742912897E+01  0.33585203022E+02  0.00000000000E+00 0. -1.
          1    1    1    2  502    0  0.12481511257E+02  0.41430579306E+02  0.75998001981E+03  0.76121081938E+03  0.00000000000E+00 0. -1.
         22    1    3    3    0    0 -0.23301276502E+01  0.46357254527E+02  0.48813761077E+02  0.67358799073E+02  0.00000000000E+00 0.  1.
         22    1    3    3    0    0 -0.41520630425E+02 -0.77561911633E+02  0.14146666552E+03  0.16659120727E+03  0.00000000000E+00 0.  1.
</event>
<event>
 7    1  0.6262315E-006  0.8313702E+02  0.7818608E-02  0.1502171E+00
          2   -1    0    0  502    0  0.00000000000E+00  0.00000000000E+00  0.37136163106E+03  0.37136163106E+03  0.00000000000E+00 0. -1.
          1   -1    0    0  501    0 -0.00000000000E+00 -0.00000000000E+00 -0.84061296467E+02  0.84061296467E+02  0.00000000000E+00 0. -1.
         25    2    1    2    0    0  0.15713088458E+01  0.73297811242E+02  0.48460138073E+02  0.15280032931E+03  0.12499807002E+03 0.  0.
          2    1    1    2  501    0 -0.14656187222E+02 -0.88496126047E+02  0.32649181118E+02  0.95458562616E+02  0.00000000000E+00 0. -1.
          1    1    1    2  502    0  0.13084878376E+02  0.15198314804E+02  0.20619101540E+03  0.20716403560E+03  0.00000000000E+00 0. -1.
         22    1    3    3    0    0  0.22421900287E+02 -0.10791838127E+02 -0.27851005722E+02  0.37348144564E+02  0.00000000000E+00 0.  1.
         22    1    3    3    0    0 -0.20850591441E+02  0.84089649370E+02  0.76311143795E+02  0.11545218474E+03  0.00000000000E+00 0.  1.
</event>
<event>
 7    1  0.6262315E-006  0.2752900E+03  0.7818608E-02  0.1147466E+00
          2   -1    0    0  502    0  0.00000000000E+00  0.00000000000E+00  0.12167242625E+04  0.12167242625E+04  0.00000000000E+00 0. -1.
          1   -1    0    0  501    0 -0.00000000000E+00 -0.00000000000E+00 -0.57303187377E+03  0.57303187377E+03  0.00000000000E+00 0. -1.
         25    2    1    2    0    0 -0.19328550214E+03 -0.67574913426E+02  0.14842206934E+03  0.28209862755E+03  0.12499948295E+03 0.  0.
          2    1    1    2  501    0 -0.24488652595E+02 -0.14725428518E+03 -0.47101667230E+03  0.49410547881E+03  0.00000000000E+00 0. -1.
          1    1    1    2  502    0  0.21777415473E+03  0.21482919860E+03  0.96628699165E+03  0.10135520299E+04  0.00000000000E+00 0. -1.
         22    1    3    3    0    0 -0.50971008283E+02  0.34916164806E+02  0.58175275225E+02  0.84861916651E+02  0.00000000000E+00 0. -1.
         22    1    3    3    0    0 -0.14231449385E+03 -0.10249107823E+03  0.90246794112E+02  0.19723671090E+03  0.00000000000E+00 0. -1.
</event>
<event>
 7    1  0.6262315E-006  0.4734273E+02  0.7818608E-02  0.1495171E+00
          2   -1    0    0  502    0  0.00000000000E+00  0.00000000000E+00  0.10964854263E+04  0.10964854263E+04  0.00000000000E+00 0. -1.
          1   -1    0    0  501    0 -0.00000000000E+00 -0.00000000000E+00 -0.23692089515E+03  0.23692089515E+03  0.00000000000E+00 0. -1.
         25    2    1    2    0    0 -0.82466859390E+02  0.14916492618E+02 -0.87907635567E+02  0.17428741065E+03  0.12500025788E+03 0.  0.
          2    1    1    2  501    0  0.36849717778E+02 -0.28099454489E+01 -0.10205019503E+03  0.10853589176E+03  0.00000000000E+00 0. -1.
          1    1    1    2  502    0  0.45617141612E+02 -0.12106547169E+02  0.10495223617E+04  0.10505830190E+04  0.00000000000E+00 0. -1.
         22    1    3    3    0    0  0.95091811730E+01  0.47911899057E+02 -0.11336652675E+02  0.50144733439E+02  0.00000000000E+00 0.  1.
         22    1    3    3    0    0 -0.91976040563E+02 -0.32995406438E+02 -0.76570982892E+02  0.12414267721E+03  0.00000000000E+00 0.  1.
</event>
<event>
 7    1  0.6262315E-006  0.6003497E+02  0.7818608E-02  0.1526340E+00
          2   -1    0    0  502    0  0.00000000000E+00  0.00000000000E+00  0.40402489620E+04  0.40402489620E+04  0.00000000000E+00 0. -1.
          1   -1    0    0  501    0 -0.00000000000E+00 -0.00000000000E+00 -0.58748285956E+03  0.58748285956E+03  0.00000000000E+00 0. -1.
         25    2    1    2    0    0 -0.73590006751E+02  0.39273949062E+02 -0.35077052220E+03  0.38160524426E+03  0.12499868414E+03 0.  0.
          2    1    1    2  501    0  0.21926956087E+02 -0.87220644449E+01 -0.22044143901E+03  0.22170091079E+03  0.00000000000E+00 0. -1.
          1    1    1    2  502    0  0.51663050665E+02 -0.30551884617E+02  0.40239780636E+04  0.40244256665E+04  0.00000000000E+00 0. -1.
         22    1    3    3    0    0 -0.97064420440E+02  0.59809305982E+02 -0.22775924764E+03  0.25470164838E+03  0.00000000000E+00 0.  1.
         22    1    3    3    0    0  0.23474413689E+02 -0.20535356920E+02 -0.12301127456E+03  0.12690359589E+03  0.00000000000E+00 0.  1.
</event>
<event>
 7    1  0.6262315E-006  0.3601571E+03  0.7818608E-02  0.1105365E+00
          2   -1    0    0  502    0  0.00000000000E+00  0.00000000000E+00  0.11420210257E+04  0.11420210257E+04  0.00000000000E+00 0. -1.
          1   -1    0    0  501    0 -0.00000000000E+00 -0.00000000000E+00 -0.22946829635E+04  0.22946829635E+04  0.00000000000E+00 0. -1.
         25    2    1    2    0    0  0.16539787197E+02 -0.32444211313E+03 -0.75770355880E+03  0.83383291742E+03  0.12500560718E+03 0.  0.
          2    1    1    2  501    0  0.19028534927E+03  0.25792364797E+02 -0.14625826273E+04  0.14751344691E+04  0.00000000000E+00 0. -1.
          1    1    1    2  502    0 -0.20682513647E+03  0.29864974834E+03  0.10676242484E+04  0.11277366027E+04  0.00000000000E+00 0. -1.
         22    1    3    3    0    0  0.69550445197E+02 -0.20784977438E+03 -0.45001345242E+03  0.50055059734E+03  0.00000000000E+00 0. -1.
         22    1    3    3    0    0 -0.53010658000E+02 -0.11659233875E+03 -0.30769010638E+03  0.33328232009E+03  0.00000000000E+00 0. -1.
</event>
<event>
 7    1  0.6262315E-006  0.1289829E+03  0.7818608E-02  0.1294882E+00
          2   -1    0    0  502    0  0.00000000000E+00  0.00000000000E+00  0.20468113199E+04  0.20468113199E+04  0.00000000000E+00 0. -1.
          1   -1    0    0  501    0 -0.00000000000E+00 -0.00000000000E+00 -0.23759154462E+03  0.23759154462E+03  0.00000000000E+00 0. -1.
         25    2    1    2    0    0  0.96590786005E+02  0.14310770721E+03  0.66618108319E+02  0.22332269089E+03  0.12500182440E+03 0.  0.
          2    1    1    2  501    0 -0.33740565945E+02 -0.11822965117E+03 -0.13480737887E+03  0.18245466726E+03  0.00000000000E+00 0. -1.
          1    1    1    2  502    0 -0.62850220059E+02 -0.24878056046E+02  0.18774090459E+04  0.18786255064E+04  0.00000000000E+00 0. -1.
         22    1    3    3    0    0 -0.70587860639E+01  0.36245921583E+00 -0.23987917277E+02  0.25007559111E+02  0.00000000000E+00 0. -1.
         22    1    3    3    0    0  0.10364957207E+03  0.14274524800E+03  0.90606025597E+02  0.19831513177E+03  0.00000000000E+00 0. -1.
</event>
<event>
 7    1  0.6262315E-006  0.2925868E+02  0.7818608E-02  0.1654146E+00
          2   -1    0    0  502    0  0.00000000000E+00  0.00000000000E+00  0.18235153793E+03  0.18235153793E+03  0.00000000000E+00 0. -1.
          1   -1    0    0  501    0 -0.00000000000E+00 -0.00000000000E+00 -0.53843373029E+03  0.53843373029E+03  0.00000000000E+00 0. -1.
         25    2    1    2    0    0 -0.33804656706E+02  0.18626592777E+02  0.71104185086E+02  0.14889768528E+03  0.12500004308E+03 0.  0.
          2    1    1    2  501    0  0.12949904530E+02 -0.26226174831E+02 -0.49739480032E+03  0.49825405132E+03  0.00000000000E+00 0. -1.
          1    1    1    2  502    0  0.20854752176E+02  0.75995820541E+01  0.70208422879E+02  0.73633531620E+02  0.00000000000E+00 0. -1.
         22    1    3    3    0    0  0.10406016162E+02  0.44199304826E+02 -0.15815426503E+02  0.48083172056E+02  0.00000000000E+00 0. -1.
         22    1    3    3    0    0 -0.44210672868E+02 -0.25572712049E+02  0.86919611589E+02  0.10081451322E+03  0.00000000000E+00 0. -1.
</event>
<event>
 7    1  0.6262315E-006  0.7332000E+02  0.7818608E-02  0.1357623E+00
          2   -1    0    0  502    0  0.00000000000E+00  0.00000000000E+00  0.32566818332E+03  0.32566818332E+03  0.00000000000E+00 0. -1.
          1   -1    0    0  501    0 -0.00000000000E+00 -0.00000000000E+00 -0.25842505234E+04  0.25842505234E+04  0.00000000000E+00 0. -1.
         25    2    1    2    0    0 -0.11972981624E+02 -0.15757602117E+02 -0.41288455732E+03  0.43184678716E+03  0.12500534226E+03 0.  0.
          2    1    1    2  501    0  0.77862847007E+02 -0.19749998743E+01 -0.21574926187E+04  0.21588980808E+04  0.00000000000E+00 0. -1.
          1    1    1    2  502    0 -0.65889865382E+02  0.17732601991E+02  0.31179483602E+03  0.31917383868E+03  0.00000000000E+00 0. -1.
         22    1    3    3    0    0  0.13131228910E+02 -0.63019973911E+02 -0.14467402846E+03  0.15834936310E+03  0.00000000000E+00 0. -1.
         22    1    3    3    0    0 -0.25104210535E+02  0.47262371794E+02 -0.26821052887E+03  0.27349742406E+03  0.00000000000E+00 0. -1.
</event>
<event>
 7    1  0.6262315E-006  0.7619608E+02  0.7818608E-02  0.1381872E+00
          2   -1    0    0  502    0  0.00000000000E+00  0.00000000000E+00  0.11043196463E+03  0.11043196463E+03  0.00000000000E+00 0. -1.
          1   -1    0    0  501    0 -0.00000000000E+00 -0.00000000000E+00 -0.14851735994E+04  0.14851735994E+04  0.00000000000E+00 0. -1.
         25    2    1    2    0    0  0.11161281960E+03  0.57804334418E+02 -0.67124955121E+03  0.69426108684E+03  0.12499493638E+03 0.  0.
          2    1    1    2  501    0 -0.52506594292E+02 -0.11319020652E+02 -0.78707999734E+03  0.78891063175E+03  0.00000000000E+00 0. -1.
          1    1    1    2  502    0 -0.59106225311E+02 -0.46485313767E+02  0.83587913790E+02  0.11243384543E+03  0.00000000000E+00 0. -1.
         22    1    3    3    0    0 -0.24493152250E+02  0.20376400685E+02 -0.74191597342E+02  0.80743453779E+02  0.00000000000E+00 0.  1.
         22    1    3    3    0    0  0.13610597185E+03  0.37427933733E+02 -0.59705795387E+03  0.61351763306E+03  0.00000000000E+00 0.  1.
</event>
<event>
 7    1  0.6262315E-006  0.7890720E+02  0.7818608E-02  0.1333811E+00
          2   -1    0    0  502    0  0.00000000000E+00  0.00000000000E+00  0.64971095604E+03  0.64971095604E+03  0.00000000000E+00 0. -1.
          1   -1    0    0  501    0 -0.00000000000E+00 -0.00000000000E+00 -0.44733135618E+03  0.44733135618E+03  0.00000000000E+00 0. -1.
         25    2    1    2    0    0 -0.24312942880E+02 -0.34467157201E+02  0.36435488668E+03  0.38750298344E+03  0.12499989844E+03 0.  0.
          2    1    1    2  501    0 -0.65490352829E+02 -0.44015457849E+02 -0.41890817314E+03  0.42627503371E+03  0.00000000000E+00 0. -1.
          1    1    1    2  502    0  0.89803295708E+02  0.78482615050E+02  0.25693288632E+03  0.28326429506E+03  0.00000000000E+00 0. -1.
         22    1    3    3    0    0  0.16874851752E+02 -0.83637212996E+01  0.32304689794E+03  0.32359544299E+03  0.00000000000E+00 0. -1.
         22    1    3    3    0    0 -0.41187794632E+02 -0.26103435901E+02  0.41307988739E+02  0.63907540448E+02  0.00000000000E+00 0. -1.
</event>
<event>
 7    1  0.6262315E-006  0.1011777E+03  0.7818608E-02  0.1399142E+00
          2   -1    0    0  502    0  0.00000000000E+00  0.00000000000E+00  0.66471384737E+03  0.66471384737E+03  0.00000000000E+00 0. -1.
          1   -1    0    0  501    0 -0.00000000000E+00 -0.00000000000E+00 -0.22165299568E+03  0.22165299568E+03  0.00000000000E+00 0. -1.
         25    2    1    2    0    0  0.92509131267E+02 -0.40394938188E+02  0.10778593981E+03  0.19347848446E+03  0.12500569878E+03 0.  0.
          2    1    1    2  501    0 -0.73682629406E+02  0.70152519623E+02 -0.16366416517E+03  0.19270823762E+03  0.00000000000E+00 0. -1.
          1    1    1    2  502    0 -0.18826501860E+02 -0.29757581435E+02  0.49893907704E+03  0.50018012098E+03  0.00000000000E+00 0. -1.
         22    1    3    3    0    0  0.46783858730E+02 -0.40129881656E+02  0.12907709950E+03  0.14303857680E+03  0.00000000000E+00 0.  1.
         22    1    3    3    0    0  0.45725272536E+02 -0.26505653168E+00 -0.21291159682E+02  0.50439907653E+02  0.00000000000E+00 0.  1.
</event>
<event>
 7    1  0.6262315E-006  0.1299330E+03  0.7818608E-02  0.1232304E+00
          2   -1    0    0  502    0  0.00000000000E+00  0.00000000000E+00  0.47799953100E+03  0.47799953100E+03  0.00000000000E+00 0. -1.
          1   -1    0    0  501    0 -0.00000000000E+00 -0.00000000000E+00 -0.45851548006E+03  0.45851548006E+03  0.00000000000E+00 0. -1.
         25    2    1    2    0    0  0.17244648203E+03 -0.93814348110E+02  0.19365665116E+03  0.30277097097E+03  0.12501376424E+03 0.  0.
          2    1    1    2  501    0 -0.12700058557E+03 -0.21251175941E+02 -0.37576603943E+03  0.39721641155E+03  0.00000000000E+00 0. -1.
          1    1    1    2  502    0 -0.45445896452E+02  0.11506552405E+03  0.20159343921E+03  0.23652762854E+03  0.00000000000E+00 0. -1.
         22    1    3    3    0    0  0.48557674866E+02 -0.51499498552E+02  0.21768290086E+01  0.70815144736E+02  0.00000000000E+00 0.  1.
         22    1    3    3    0    0  0.12388880716E+03 -0.42314849558E+02  0.19147982215E+03  0.23195582624E+03  0.00000000000E+00 0.  1.
</event>
<event>
 7    1  0.6262315E-006  0.1191800E+03  0.7818608E-02  0.1406072E+00
          2   -1    0    0  502    0  0.00000000000E+00  0.00000000000E+00  0.22024149048E+03  0.22024149048E+03  0.00000000000E+00 0. -1.
          1   -1    0    0  501    0 -0.00000000000E+00 -0.00000000000E+00 -0.16105568962E+04  0.16105568962E+04  0.00000000000E+00 0. -1.
         25    2    1    2    0    0 -0.35935016227E+02 -0.13303340679E+03 -0.14437204793E+03  0.23549273534E+03  0.12499730982E+03 0.  0.
          2    1    1    2  501    0 -0.11740977639E+02  0.25753735626E+02 -0.14007409768E+04  0.14010269054E+04  0.00000000000E+00 0. -1.
          1    1    1    2  502    0  0.47675993866E+02  0.10727967116E+03  0.15479761908E+03  0.19427874590E+03  0.00000000000E+00 0. -1.
         22    1    3    3    0    0 -0.62561160224E+02 -0.66383430724E+02 -0.22330351087E+02  0.93911145361E+02  0.00000000000E+00 0.  1.
         22    1    3    3    0    0  0.26626143996E+02 -0.66649976065E+02 -0.12204169684E+03  0.14158158998E+03  0.00000000000E+00 0.  1.
</event>
<event>
 7    1  0.6262315E-006  0.6810469E+02  0.7818608E-02  0.1405601E+00
          2   -1    0    0  502    0  0.00000000000E+00  0.00000000000E+00  0.79350023222E+03  0.79350023222E+03  0.00000000000E+00 0. -1.
          1   -1    0    0  501    0 -0.00000000000E+00 -0.00000000000E+00 -0.46838996404E+03  0.46838996404E+03  0.00000000000E+00 0. -1.
         25    2    1    2    0    0  0.67287899154E+02  0.87891737191E+02  0.12526183431E+03  0.20872881607E+03  0.12499829073E+03 0.  0.
          2    1    1    2  501    0 -0.24266593130E+02 -0.62979083998E+02 -0.42299067317E+03  0.42834138505E+03  0.00000000000E+00 0. -1.
          1    1    1    2  502    0 -0.43021306024E+02 -0.24912653193E+02  0.62283910704E+03  0.62481999514E+03  0.00000000000E+00 0. -1.
         22    1    3    3    0    0  0.21554600213E+02  0.78635829576E+02  0.72867004699E+01  0.81861410244E+02  0.00000000000E+00 0. -1.
         22    1    3    3    0    0  0.45733298941E+02  0.92559076154E+01  0.11797513384E+03  0.12686740583E+03  0.00000000000E+00 0. -1.
</event>
<event>
 7    1  0.6262315E-006  0.6153853E+02  0.7818608E-02  0.1439797E+00
          2   -1    0    0  502    0  0.00000000000E+00  0.00000000000E+00  0.30400022282E+02  0.30400022282E+02  0.00000000000E+00 0. -1.
          1   -1    0    0  501    0 -0.00000000000E+00 -0.00000000000E+00 -0.14165217648E+04  0.14165217648E+04  0.00000000000E+00 0. -1.
         25    2    1    2    0    0 -0.11335555122E+02  0.95198563911E+02 -0.30582047519E+03  0.34400794726E+03  0.12499617335E+03 0.  0.
          2    1    1    2  501    0 -0.15671429623E+01 -0.42308022583E+02 -0.10229931979E+04  0.10238688918E+04  0.00000000000E+00 0. -1.
          1    1    1    2  502    0  0.12902698085E+02 -0.52890541328E+02 -0.57308069400E+02  0.79044947961E+02  0.00000000000E+00 0. -1.
         22    1    3    3    0    0  0.51489808461E+02  0.69287548226E+02 -0.13587443684E+03  0.16097772300E+03  0.00000000000E+00 0. -1.
         22    1    3    3    0    0 -0.62825363583E+02  0.25911015685E+02 -0.16994603834E+03  0.18303022426E+03  0.00000000000E+00 0. -1.
</event>
<event>
 7    1  0.6262315E-006  0.1873798E+03  0.7818608E-02  0.1320603E+00
          2   -1    0    0  502    0  0.00000000000E+00  0.00000000000E+00  0.18615278703E+03  0.18615278703E+03  0.00000000000E+00 0. -1.
          1   -1    0    0  501    0 -0.00000000000E+00 -0.00000000000E+00 -0.12852798075E+04  0.12852798075E+04  0.00000000000E+00 0. -1.
         25    2    1    2    0    0 -0.86400319667E+02  0.13030190533E+03 -0.16399409073E+03  0.25877212888E+03  0.12500140446E+03 0.  0.
          2    1    1    2  501    0  0.10889591515E+03 -0.15944091636E+03 -0.10625922426E+04  0.10799916667E+04  0.00000000000E+00 0. -1.
          1    1    1    2  502    0 -0.22495595486E+02  0.29139011024E+02  0.12745931285E+03  0.13266879894E+03  0.00000000000E+00 0. -1.
         22    1    3    3    0    0 -0.95886479843E+02  0.15015813635E+03 -0.14541894981E+03  0.22997468098E+03  0.00000000000E+00 0. -1.
         22    1    3    3    0    0  0.94861601761E+01 -0.19856231018E+02 -0.18575140921E+02  0.28797447897E+02  0.00000000000E+00 0. -1.
</event>
<event>
 7    1  0.6262315E-006  0.1315998E+03  0.7818608E-02  0.1435263E+00
          2   -1    0    0  502    0  0.00000000000E+00  0.00000000000E+00  0.33358471883E+03  0.33358471883E+03  0.00000000000E+00 0. -1.
          1   -1    0    0  501    0 -0.00000000000E+00 -0.00000000000E+00 -0.15792129900E+04  0.15792129900E+04  0.00000000000E+00 0. -1.
         25    2    1    2    0    0 -0.14758150494E+03  0.15503079287E+02 -0.38177337884E+03  0.42824642872E+03  0.12499377924E+03 0.  0.
          2    1    1    2  501    0  0.16586991384E+02 -0.12016448344E+02 -0.11602760468E+04  0.11604568187E+04  0.00000000000E+00 0. -1.
          1    1    1    2  502    0  0.13099451356E+03 -0.34866309438E+01  0.29642115440E+03  0.32409446147E+03  0.00000000000E+00 0. -1.
         22    1    3    3    0    0 -0.99044829200E+02  0.11882178778E+02 -0.96298960469E+02  0.13865263846E+03  0.00000000000E+00 0.  1.
         22    1    3    3    0    0 -0.48536675742E+02  0.36209005097E+01 -0.28547441837E+03  0.28959379026E+03  0.00000000000E+00 0.  1.
</event>
<event>
 7    1  0.6262315E-006  0.9379099E+02  0.7818608E-02  0.1360789E+00
          2   -1    0    0  502    0  0.00000000000E+00  0.00000000000E+00  0.92373441979E+03  0.92373441979E+03  0.00000000000E+00 0. -1.
          1   -1    0    0  501    0 -0.00000000000E+00 -0.00000000000E+00 -0.33803337530E+03  0.33803337530E+03  0.00000000000E+00 0. -1.
         25    2    1    2    0    0  0.96410312362E+02 -0.21537998498E+02  0.13034867440E+00  0.15932132298E+03  0.12499773300E+03 0.  0.
          2    1    1    2  501    0 -0.28411150505E+02 -0.43480160088E+02 -0.25317141592E+03  0.25844435307E+03  0.00000000000E+00 0. -1.
          1    1    1    2  502    0 -0.67999161857E+02  0.65018158586E+02  0.83874211174E+03  0.84400211905E+03  0.00000000000E+00 0. -1.
         22    1    3    3    0    0 -0.21138110066E+02  0.10204497781E+02 -0.25749646353E+02  0.34842441927E+02  0.00000000000E+00 0. -1.
         22    1    3    3    0    0  0.11754842243E+03 -0.31742496278E+02  0.25879995028E+02  0.12447888105E+03  0.00000000000E+00 0. -1.
</event>
<event>
 7    1  0.6262315E-006  0.5634254E+02  0.7818608E-02  0.1487849E+00
          2   -1    0    0  502    0  0.00000000000E+00  0.00000000000E+00  0.68621741334E+03  0.68621741334E+03  0.00000000000E+00 0. -1.
          1   -1    0    0  501    0 -0.00000000000E+00 -0.00000000000E+00 -0.66886342268E+03  0.66886342268E+03  0.00000000000E+00 0. -1.
         25    2    1    2    0    0  0.20646371065E+02 -0.78938065511E+02  0.21275388986E+02  0.15077357129E+03  0.12499014680E+03 0.  0.
          2    1    1    2  501    0 -0.29646670776E+02  0.47527168746E+02 -0.60236920223E+03  0.60496810879E+03  0.00000000000E+00 0. -1.
          1    1    1    2  502    0  0.90002997109E+01  0.31410896765E+02  0.59844780391E+03  0.59933915594E+03  0.00000000000E+00 0. -1.
         22    1    3    3    0    0 -0.37682401478E+02 -0.38150654666E+02 -0.31478596503E+02  0.62179883165E+02  0.00000000000E+00 0. -1.
         22    1    3    3    0    0  0.58328772543E+02 -0.40787410845E+02  0.52753985489E+02  0.88593688121E+02  0.00000000000E+00 0. -1.
</event>
<event>
 7    1  0.6262315E-006  0.6861238E+02  0.7818608E-02  0.1387600E+00
          2   -1    0    0  502    0  0.00000000000E+00  0.00000000000E+00  0.10192231403E+04  0.10192231403E+04  0.00000000000E+00 0. -1.
          1   -1    0    0  501    0 -0.00000000000E+00 -0.00000000000E+00 -0.32801390971E+03  0.32801390971E+03  0.00000000000E+00 0. -1.
         25    2    1    2    0    0  0.12910366088E+02  0.94678406123E+01  0.73027073103E+02  0.14565163847E+03  0.12500051530E+03 0.  0.
          2    1    1    2  501    0 -0.31878232551E+02 -0.63161875189E+02 -0.28650314746E+03  0.29510963674E+03  0.00000000000E+00 0. -1.
          1    1    1    2  502    0  0.18967866462E+02  0.53694034577E+02  0.90468530495E+03  0.90647577480E+03  0.00000000000E+00 0. -1.
         22    1    3    3    0    0  0.20469962471E+02  0.62333129815E+02  0.16014830982E+02  0.67534533740E+02  0.00000000000E+00 0.  1.
         22    1    3    3    0    0 -0.75595963826E+01 -0.52865289203E+02  0.57012242121E+02  0.78117104731E+02  0.00000000000E+00 0.  1.
</event>
<event>
 7    1  0.6262315E-006  0.1515803E+03  0.7818608E-02  0.1318179E+00
          2   -1    0    0  502    0  0.00000000000E+00  0.00000000000E+00  0.60335210176E+03  0.60335210176E+03  0.00000000000E+00 0. -1.
          1   -1    0    0  501    0 -0.00000000000E+00 -0.00000000000E+00 -0.28893108231E+04  0.28893108231E+04  0.00000000000E+00 0. -1.
         25    2    1    2    0    0  0.98085029830E+02 -0.73247680144E+02 -0.13156929996E+02  0.17544177949E+03  0.12498326872E+03 0.  0.
          2    1    1    2  501    0  0.44916547651E+02  0.12045754338E+02 -0.27832298678E+04  0.27836183455E+04  0.00000000000E+00 0. -1.
          1    1    1    2  502    0 -0.14300157748E+03  0.61201925806E+02  0.51042807641E+03  0.53360279991E+03  0.00000000000E+00 0. -1.
         22    1    3    3    0    0  0.12344481628E+03 -0.51166321110E+02  0.10936062216E+02  0.13407539871E+03  0.00000000000E+00 0.  1.
         22    1    3    3    0    0 -0.25359786446E+02 -0.22081359034E+02 -0.24092992211E+02  0.41366380782E+02  0.00000000000E+00 0.  1.
</event>
<event>
 7    1  0.6262315E-006  0.7841749E+02  0.7818608E-02  0.1360806E+00
          2   -1    0    0  502    0  0.00000000000E+00  0.00000000000E+00  0.92021439982E+02  0.92021439982E+02  0.00000000000E+00 0. -1.
          1   -1    0    0  501    0 -0.00000000000E+00 -0.00000000000E+00 -0.17526983402E+04  0.17526983402E+04  0.00000000000E+00 0. -1.
         25    2    1    2    0    0  0.47932033773E+02  0.28272800504E+02 -0.11904277203E+03  0.18137241899E+03  0.12501176620E+03 0.  0.
          2    1    1    2  501    0 -0.11946916316E+02 -0.78900086974E+02 -0.15853725356E+04  0.15873796109E+04  0.00000000000E+00 0. -1.
          1    1    1    2  502    0 -0.35985117457E+02  0.50627286469E+02  0.43738407348E+02  0.75967750335E+02  0.00000000000E+00 0. -1.
         22    1    3    3    0    0  0.69775075492E+02 -0.24636146670E+01 -0.15973989630E+02  0.71622614459E+02  0.00000000000E+00 0. -1.
         22    1    3    3    0    0 -0.21843041720E+02  0.30736415171E+02 -0.10306878240E+03  0.10974980453E+03  0.00000000000E+00 0. -1.
</event>
<event>
 7    1  0.6262315E-006  0.1119535E+03  0.7818608E-02  0.1258859E+00
          2   -1    0    0  502    0  0.00000000000E+00  0.00000000000E+00  0.97908350218E+03  0.97908350218E+03  0.00000000000E+00 0. -1.
          1   -1    0    0  501    0 -0.00000000000E+00 -0.00000000000E+00 -0.47535860502E+02  0.47535860502E+02  0.00000000000E+00 0. -1.
         25    2    1    2    0    0  0.88015454600E+01  0.13224585516E+03  0.28573212705E+03  0.33886223282E+03  0.12497332114E+03 0.  0.
          2    1    1    2  501    0 -0.96635084620E+02 -0.62827890671E+02  0.23186070221E+03  0.25893062518E+03  0.00000000000E+00 0. -1.
          1    1    1    2  502    0  0.87833539161E+02 -0.69417964484E+02  0.41395481241E+03  0.42882650468E+03  0.00000000000E+00 0. -1.
         22    1    3    3    0    0  0.62917970493E+02  0.38226807814E+02  0.11108387995E+03  0.13326510508E+03  0.00000000000E+00 0.  1.
         22    1    3    3    0    0 -0.54116425033E+02  0.94019047342E+02  0.17464824710E+03  0.20559712774E+03  0.00000000000E+00 0.  1.
</event>
<event>
 7    1  0.6262315E-006  0.1333792E+03  0.7818608E-02  0.1305042E+00
          2   -1    0    0  502    0  0.00000000000E+00  0.00000000000E+00  0.24818320121E+03  0.24818320121E+03  0.00000000000E+00 0. -1.
          1   -1    0    0  501    0 -0.00000000000E+00 -0.00000000000E+00 -0.54300376093E+03  0.54300376093E+03  0.00000000000E+00 0. -1.
         25    2    1    2    0    0 -0.14610073909E+03  0.81156398428E+02 -0.11274514292E+03  0.23720975537E+03  0.12500085528E+03 0.  0.
          2    1    1    2  501    0  0.57825656240E+02  0.14112579219E+02 -0.34246275778E+03  0.34759705390E+03  0.00000000000E+00 0. -1.
          1    1    1    2  502    0  0.88275082848E+02 -0.95268977648E+02  0.16038734098E+03  0.20638015288E+03  0.00000000000E+00 0. -1.
         22    1    3    3    0    0 -0.84971520335E+02  0.22994519334E+02  0.96428194881E+01  0.88554453050E+02  0.00000000000E+00 0. -1.
         22    1    3    3    0    0 -0.61129218753E+02  0.58161879094E+02 -0.12238796240E+03  0.14865530232E+03  0.00000000000E+00 0. -1.
</event>
<event>
 7    1  0.6262315E-006  0.1022565E+03  0.7818608E-02  0.1311047E+00
          2   -1    0    0  502    0  0.00000000000E+00  0.00000000000E+00  0.10983290752E+04  0.10983290752E+04  0.00000000000E+00 0. -1.
          1   -1    0    0  501    0 -0.00000000000E+00 -0.00000000000E+00 -0.10272383329E+03  0.10272383329E+03  0.00000000000E+00 0. -1.
         25    2    1    2    0    0  0.93494442989E+02  0.96882072181E+02  0.54679756001E+03  0.57683634690E+03  0.12500101074E+03 0.  0.
          2    1    1    2  501    0 -0.73481752330E+02 -0.20219286333E+01 -0.66948807646E+02  0.99427355220E+02  0.00000000000E+00 0. -1.
          1    1    1    2  502    0 -0.20012690659E+02 -0.94860143548E+02  0.51575648958E+03  0.52478920641E+03  0.00000000000E+00 0. -1.
         22    1    3    3    0    0  0.42961807691E+02 -0.15564398979E+02  0.26983048074E+03  0.27367216843E+03  0.00000000000E+00 0. -1.
         22    1    3    3    0    0  0.50532635298E+02  0.11244647116E+03  0.27696707927E+03  0.30316417847E+03  0.00000000000E+00 0. -1.
</event>
<event>
 7    1  0.6262315E-006  0.4094048E+02  0.7818608E-02  0.1578687E+00
          2   -1    0    0  502    0  0.00000000000E+00  0.00000000000E+00  0.20849766056E+04  0.20849766056E+04  0.00000000000E+00 0. -1.
          1   -1    0    0  501    0 -0.00000000000E+00 -0.00000000000E+00 -0.50177635082E+02  0.50177635082E+02  0.00000000000E+00 0. -1.
         25    2    1    2    0    0 -0.22103833562E+02 -0.19635393094E+02  0.10204934798E+04  0.10285459993E+04  0.12500320908E+03 0.  0.
          2    1    1    2  501    0  0.83805056777E+01  0.40230726907E+02 -0.36828903348E+02  0.55182536954E+02  0.00000000000E+00 0. -1.
          1    1    1    2  502    0  0.13723327884E+02 -0.20595333813E+02  0.10511343940E+04  0.10514257044E+04  0.00000000000E+00 0. -1.
         22    1    3    3    0    0 -0.72083173143E+02 -0.18457657746E+02  0.47838972585E+03  0.48414192008E+03  0.00000000000E+00 0.  1.
         22    1    3    3    0    0  0.49979339581E+02 -0.11777353484E+01  0.54210375395E+03  0.54440407924E+03  0.00000000000E+00 0.  1.
</event>
<event>
 7    1  0.6262315E-006  0.5797286E+02  0.7818608E-02  0.1540134E+00
          2   -1    0    0  502    0  0.00000000000E+00  0.00000000000E+00  0.41824285683E+03  0.41824285683E+03  0.00000000000E+00 0. -1.
          1   -1    0    0  501    0 -0.00000000000E+00 -0.00000000000E+00 -0.28569140267E+03  0.28569140267E+03  0.00000000000E+00 0. -1.
         25    2    1    2    0    0 -0.41328133128E+02 -0.39255967899E+01  0.18074632584E+02  0.13294715149E+03  0.12499931139E+03 0.  0.
          2    1    1    2  501    0  0.54700057002E+02  0.21797470986E+02 -0.22408399521E+03  0.23169130948E+03  0.00000000000E+00 0. -1.
          1    1    1    2  502    0 -0.13371923874E+02 -0.17871874196E+02  0.33856081679E+03  0.33929579853E+03  0.00000000000E+00 0. -1.
         22    1    3    3    0    0  0.12558283987E+02  0.12992705959E+02 -0.44873453217E+02  0.48375073214E+02  0.00000000000E+00 0.  1.
         22    1    3    3    0    0 -0.53886417114E+02 -0.16918302749E+02  0.62948085802E+02  0.84572078273E+02  0.00000000000E+00 0.  1.
</event>
<event>
 7    1  0.6262315E-006  0.1368028E+03  0.7818608E-02  0.1232690E+00
          2   -1    0    0  502    0  0.00000000000E+00  0.00000000000E+00  0.56567588738E+04  0.56567588738E+04  0.00000000000E+00 0. -1.
          1   -1    0    0  501    0 -0.00000000000E+00 -0.00000000000E+00 -0.81568407115E+03  0.81568407115E+03  0.00000000000E+00 0. -1.
         25    2    1    2    0    0 -0.25646856340E+02 -0.24597378313E+03  0.78154100632E+03  0.82921180688E+03  0.12500005157E+03 0.  0.
          2    1    1    2  501    0 -0.12801063587E+02  0.13543144254E+03 -0.78529421383E+03  0.79698967693E+03  0.00000000000E+00 0. -1.
          1    1    1    2  502    0  0.38447919928E+02  0.11054234059E+03  0.48448280102E+04  0.48462414611E+04  0.00000000000E+00 0. -1.
         22    1    3    3    0    0 -0.58380474200E+02 -0.18571332887E+03  0.67497082322E+03  0.70248368842E+03  0.00000000000E+00 0.  1.
         22    1    3    3    0    0  0.32733617859E+02 -0.60260454256E+02  0.10657018309E+03  0.12672811847E+03  0.00000000000E+00 0.  1.
</event>
<event>
 7    1  0.6262315E-006  0.1351499E+03  0.7818608E-02  0.1394120E+00
          2   -1    0    0  502    0  0.00000000000E+00  0.00000000000E+00  0.26469692400E+04  0.26469692400E+04  0.00000000000E+00 0. -1.
          1   -1    0    0  501    0 -0.00000000000E+00 -0.00000000000E+00 -0.65543440674E+02  0.65543440674E+02  0.00000000000E+00 0. -1.
         25    2    1    2    0    0  0.11166662997E+03  0.71296509343E+02  0.60777454943E+03  0.63448236164E+03  0.12500134318E+03 0.  0.
          2    1    1    2  501    0  0.15371069211E+02 -0.22726289398E+02 -0.46131446748E+02  0.53673684218E+02  0.00000000000E+00 0. -1.
          1    1    1    2  502    0 -0.12703769918E+03 -0.48570219946E+02  0.20197826967E+04  0.20243566348E+04  0.00000000000E+00 0. -1.
         22    1    3    3    0    0 -0.40412134480E+01 -0.24459695712E+02  0.16680462373E+03  0.16863686020E+03  0.00000000000E+00 0.  1.
         22    1    3    3    0    0  0.11570784342E+03  0.95756205056E+02  0.44096992571E+03  0.46584550144E+03  0.00000000000E+00 0.  1.
</event>
<event>
 7    1  0.6262315E-006  0.5661521E+02  0.7818608E-02  0.1525958E+00
          2   -1    0    0  502    0  0.00000000000E+00  0.00000000000E+00  0.50436889572E+03  0.50436889572E+03  0.00000000000E+00 0. -1.
          1   -1    0    0  501    0 -0.00000000000E+00 -0.00000000000E+00 -0.14144583841E+04  0.14144583841E+04  0.00000000000E+00 0. -1.
         25    2    1    2    0    0 -0.38563981389E+02 -0.40918459974E+01 -0.30090932129E+03  0.32813913020E+03  0.12499978107E+03 0.  0.
          2    1    1    2  501    0  0.51864036380E+02  0.25363036299E+02 -0.10988552530E+04  0.11003708597E+04  0.00000000000E+00 0. -1.
          1    1    1    2  502    0 -0.13300054991E+02 -0.21271190302E+02  0.48967508592E+03  0.49031728989E+03  0.00000000000E+00 0. -1.
         22    1    3    3    0    0  0.40109380572E+02  0.11989692673E+02 -0.52939171148E+02  0.67491265968E+02  0.00000000000E+00 0.  1.
         22    1    3    3    0    0 -0.78673361960E+02 -0.16081538671E+02 -0.24797015014E+03  0.26064786424E+03  0.00000000000E+00 0.  1.
</event>
<event>
 7    1  0.6262315E-006  0.4538065E+02  0.7818608E-02  0.1562041E+00
          2   -1    0    0  502    0  0.00000000000E+00  0.00000000000E+00  0.11412144147E+03  0.11412144147E+03  0.00000000000E+00 0. -1.
          1   -1    0    0  501    0 -0.00000000000E+00 -0.00000000000E+00 -0.98261307455E+03  0.98261307455E+03  0.00000000000E+00 0. -1.
         25    2    1    2    0    0  0.65776069975E+02  0.14810777237E+02 -0.28136504338E+03  0.31517807596E+03  0.12500032569E+03 0.  0.
          2    1    1    2  501    0 -0.20779502187E+02 -0.13493731784E+02 -0.67889219289E+03  0.67934415289E+03  0.00000000000E+00 0. -1.
          1    1    1    2  502    0 -0.44996567789E+02 -0.13170454525E+01  0.91765603187E+02  0.10221228718E+03  0.00000000000E+00 0. -1.
         22    1    3    3    0    0  0.59168339143E+02 -0.98270764422E+01 -0.28331577493E+03  0.28959504849E+03  0.00000000000E+00 0. -1.
         22    1    3    3    0    0  0.66077308318E+01  0.24637853679E+02  0.19507315475E+01  0.25583027464E+02  0.00000000000E+00 0. -1.
</event>
<event>
 7    1  0.8067527E-006  0.1567122E+03  0.7818608E-02  0.1243634E+00
          2   -1    0    0  502    0  0.00000000000E+00  0.00000000000E+00  0.16471870610E+04  0.16471870610E+04  0.00000000000E+00 0. -1.
          1   -1    0    0  501    0 -0.00000000000E+00 -0.00000000000E+00 -0.16279619951E+04  0.16279619951E+04  0.00000000000E+00 0. -1.
         25    2    1    2    0    0 -0.63613458335E+02 -0.62322349642E+02 -0.95638302624E+02  0.18083728926E+03  0.12499877164E+03 0.  0.
          2    1    1    2  501    0  0.17323339158E+02 -0.89734449199E+02 -0.14843791473E+04  0.14871899080E+04  0.00000000000E+00 0. -1.
          1    1    1    2  502    0  0.46290119177E+02  0.15205679884E+03  0.15992425157E+04  0.16071218589E+04  0.00000000000E+00 0. -1.
         22    1    3    3    0    0 -0.22942235446E+02  0.35248886341E+02 -0.50962339443E+02  0.66075639967E+02  0.00000000000E+00 0.  1.
         22    1    3    3    0    0 -0.40671222889E+02 -0.97571235982E+02 -0.44675963180E+02  0.11476164929E+03  0.00000000000E+00 0.  1.
</event>
<event>
 7    1  0.6262315E-006  0.1312920E+03  0.7818608E-02  0.1335312E+00
          2   -1    0    0  502    0  0.00000000000E+00  0.00000000000E+00  0.12385590669E+04  0.12385590669E+04  0.00000000000E+00 0. -1.
          1   -1    0    0  501    0 -0.00000000000E+00 -0.00000000000E+00 -0.16490564279E+03  0.16490564279E+03  0.00000000000E+00 0. -1.
         25    2    1    2    0    0  0.47428889951E+02 -0.80598798413E+02  0.20229530760E+03  0.25552447811E+03  0.12499480600E+03 0.  0.
          2    1    1    2  501    0  0.34664552197E+02 -0.30455207535E+02 -0.12956414183E+03  0.13753551430E+03  0.00000000000E+00 0. -1.
          1    1    1    2  502    0 -0.82093442148E+02  0.11105400595E+03  0.10009222583E+04  0.10104047173E+04  0.00000000000E+00 0. -1.
         22    1    3    3    0    0  0.11210964457E+02 -0.86275276393E+02  0.53175398198E+02  0.10196436639E+03  0.00000000000E+00 0. -1.
         22    1    3    3    0    0  0.36217925494E+02  0.56764779797E+01  0.14911990940E+03  0.15356011172E+03  0.00000000000E+00 0. -1.
</event>
<event>
 7    1  0.6262315E-006  0.5814913E+02  0.7818608E-02  0.1482934E+00
          2   -1    0    0  502    0  0.00000000000E+00  0.00000000000E+00  0.23384151822E+04  0.23384151822E+04  0.00000000000E+00 0. -1.
          1   -1    0    0  501    0 -0.00000000000E+00 -0.00000000000E+00 -0.42949515972E+03  0.42949515972E+03  0.00000000000E+00 0. -1.
         25    2    1    2    0    0  0.54143890271E+02  0.63645809285E+02 -0.27376814803E+02  0.15283183321E+03  0.12500291741E+03 0.  0.
          2    1    1    2  501    0 -0.52425697216E+01 -0.32347670009E+02 -0.33822850699E+03  0.33981227057E+03  0.00000000000E+00 0. -1.
          1    1    1    2  502    0 -0.48901320549E+02 -0.31298139276E+02  0.22745253443E+04  0.22752662382E+04  0.00000000000E+00 0. -1.
         22    1    3    3    0    0  0.34129515007E+02  0.39901049208E+01 -0.69210381724E+02  0.77271092073E+02  0.00000000000E+00 0. -1.
         22    1    3    3    0    0  0.20014375264E+02  0.59655704364E+02  0.41833566921E+02  0.75560741141E+02  0.00000000000E+00 0. -1.
</event>
<event>
 7    1  0.6262315E-006  0.6140627E+02  0.7818608E-02  0.1454499E+00
          2   -1    0    0  502    0  0.00000000000E+00  0.00000000000E+00  0.61487437039E+03  0.61487437039E+03  0.00000000000E+00 0. -1.
          1   -1    0    0  501    0 -0.00000000000E+00 -0.00000000000E+00 -0.31590276023E+03  0.31590276023E+03  0.00000000000E+00 0. -1.
         25    2    1    2    0    0 -0.19864897464E+02 -0.27809538033E+02  0.21472881070E+03  0.25080163265E+03  0.12500004895E+03 0.  0.
          2    1    1    2  501    0  0.76564206395E+01 -0.37277960784E+02 -0.29376048207E+03  0.29621527301E+03  0.00000000000E+00 0. -1.
          1    1    1    2  502    0  0.12208476824E+02  0.65087498817E+02  0.37800328153E+03  0.38376022495E+03  0.00000000000E+00 0. -1.
         22    1    3    3    0    0  0.33494620064E+02 -0.13407523092E+02  0.18412277564E+03  0.18762421954E+03  0.00000000000E+00 0. -1.
         22    1    3    3    0    0 -0.53359517527E+02 -0.14402014941E+02  0.30606035064E+02  0.63177413111E+02  0.00000000000E+00 0. -1.
</event>
<event>
 7    1  0.6262315E-006  0.9359526E+02  0.7818608E-02  0.1399804E+00
          2   -1    0    0  502    0  0.00000000000E+00  0.00000000000E+00  0.71667704380E+03  0.71667704380E+03  0.00000000000E+00 0. -1.
          1   -1    0    0  501    0 -0.00000000000E+00 -0.00000000000E+00 -0.66438686441E+02  0.66438686441E+02  0.00000000000E+00 0. -1.
         25    2    1    2    0    0  0.11732278057E+03 -0.34403290320E+02  0.38732714637E+03  0.42495923370E+03  0.12497924135E+03 0.  0.
          2    1    1    2  501    0 -0.35320510796E+02  0.13650168555E+02 -0.33101686483E+02  0.50295002063E+02  0.00000000000E+00 0. -1.
          1    1    1    2  502    0 -0.82002269773E+02  0.20753121765E+02  0.29601289747E+03  0.30786149448E+03  0.00000000000E+00 0. -1.
         22    1    3    3    0    0 -0.23982005510E+02  0.87770764331E+01  0.79631768225E+02  0.83626503990E+02  0.00000000000E+00 0. -1.
         22    1    3    3    0    0  0.14130478608E+03 -0.43180366753E+02  0.30769537814E+03  0.34133272971E+03  0.00000000000E+00 0. -1.
</event>
<event>
 7    1  0.6262315E-006  0.1011447E+03  0.7818608E-02  0.1294997E+00
          2   -1    0    0  502    0  0.00000000000E+00  0.00000000000E+00  0.94066150135E+03  0.94066150135E+03  0.00000000000E+00 0. -1.
          1   -1    0    0  501    0 -0.00000000000E+00 -0.00000000000E+00 -0.45167996162E+03  0.45167996162E+03  0.00000000000E+00 0. -1.
         25    2    1    2    0    0 -0.29243529289E+01 -0.41938749508E+02 -0.80132300880E+02  0.15431793684E+03  0.12500171774E+03 0.  0.
          2    1    1    2  501    0 -0.52710171167E+02  0.10765951287E+03 -0.32157092642E+03  0.34318623744E+03  0.00000000000E+00 0. -1.
          1    1    1    2  502    0  0.55634524096E+02 -0.65720763358E+02  0.89068476702E+03  0.89483728868E+03  0.00000000000E+00 0. -1.
         22    1    3    3    0    0 -0.36102962652E+02  0.33636340078E+02 -0.29757297760E+02  0.57622253133E+02  0.00000000000E+00 0. -1.
         22    1    3    3    0    0  0.33178609724E+02 -0.75575089586E+02 -0.50375003120E+02  0.96695683711E+02  0.00000000000E+00 0. -1.
</event>
<event>
 7    1  0.6262315E-006  0.1658344E+03  0.7818608E-02  0.1206341E+00
          2   -1    0    0  502    0  0.00000000000E+00  0.00000000000E+00  0.94476365685E+03  0.94476365685E+03  0.00000000000E+00 0. -1.
          1   -1    0    0  501    0 -0.00000000000E+00 -0.00000000000E+00 -0.15502415148E+04  0.15502415148E+04  0.00000000000E+00 0. -1.
         25    2    1    2    0    0  0.69473505916E+01 -0.28949490935E+03  0.37449291608E+03  0.48961748236E+03  0.12499906650E+03 0.  0.
          2    1    1    2  501    0 -0.22119549058E+02  0.16305351417E+03 -0.14801413419E+04  0.14892595861E+04  0.00000000000E+00 0. -1.
          1    1    1    2  502    0  0.15172198466E+02  0.12644139517E+03  0.50017056780E+03  0.51612810320E+03  0.00000000000E+00 0. -1.
         22    1    3    3    0    0 -0.31712529504E+02 -0.18960983297E+03  0.30946756942E+03  0.36431819857E+03  0.00000000000E+00 0.  1.
         22    1    3    3    0    0  0.38659880095E+02 -0.99885076372E+02  0.65025346662E+02  0.12529928379E+03  0.00000000000E+00 0.  1.
</event>
<event>
 7    1  0.6262315E-006  0.7195154E+02  0.7818608E-02  0.1446027E+00
          2   -1    0    0  502    0  0.00000000000E+00  0.00000000000E+00  0.64197640817E+03  0.64197640817E+03  0.00000000000E+00 0. -1.
          1   -1    0    0  501    0 -0.00000000000E+00 -0.00000000000E+00 -0.49303065669E+03  0.49303065669E+03  0.00000000000E+00 0. -1.
         25    2    1    2    0    0  0.44918658544E+02 -0.96242978694E+02  0.30314364434E+03  0.34467616042E+03  0.12500075850E+03 0.  0.
          2    1    1    2  501    0 -0.31257861301E+02  0.64487261808E+02 -0.46859288041E+03  0.47404108303E+03  0.00000000000E+00 0. -1.
          1    1    1    2  502    0 -0.13660797243E+02  0.31755716885E+02  0.31439498754E+03  0.31628982141E+03  0.00000000000E+00 0. -1.
         22    1    3    3    0    0  0.65923056742E+02 -0.22079264390E+02  0.22254824754E+03  0.23315459637E+03  0.00000000000E+00 0. -1.
         22    1    3    3    0    0 -0.21004398198E+02 -0.74163714304E+02  0.80595396801E+02  0.11152156405E+03  0.00000000000E+00 0. -1.
</event>
<event>
 7    1  0.6262315E-006  0.1046790E+03  0.7818608E-02  0.1303640E+00
          2   -1    0    0  502    0  0.00000000000E+00  0.00000000000E+00  0.29129017407E+03  0.29129017407E+03  0.00000000000E+00 0. -1.
          1   -1    0    0  501    0 -0.00000000000E+00 -0.00000000000E+00 -0.61451048489E+03  0.61451048489E+03  0.00000000000E+00 0. -1.
         25    2    1    2    0    0 -0.86111476573E+02  0.59323106021E+02 -0.45853609472E+03  0.48663796620E+03  0.12500697055E+03 0.  0.
          2    1    1    2  501    0  0.12176954174E+03  0.87222862948E+01 -0.10862492457E+03  0.16341136378E+03  0.00000000000E+00 0. -1.
          1    1    1    2  502    0 -0.35658065171E+02 -0.68045392316E+02  0.24394070847E+03  0.25575132898E+03  0.00000000000E+00 0. -1.
         22    1    3    3    0    0 -0.46369830843E+02  0.56945280560E+02 -0.90924695567E+02  0.11687697145E+03  0.00000000000E+00 0.  1.
         22    1    3    3    0    0 -0.39741645730E+02  0.23778254611E+01 -0.36761139915E+03  0.36976099476E+03  0.00000000000E+00 0.  1.
</event>
<event>
 7    1  0.6262315E-006  0.4091252E+02  0.7818608E-02  0.1503450E+00
          2   -1    0    0  502    0  0.00000000000E+00  0.00000000000E+00  0.13807415173E+03  0.13807415173E+03  0.00000000000E+00 0. -1.
          1   -1    0    0  501    0 -0.00000000000E+00 -0.00000000000E+00 -0.87366222340E+02  0.87366222340E+02  0.00000000000E+00 0. -1.
         25    2    1    2    0    0 -0.96921571654E+01  0.42401404616E+01  0.26295934649E+02  0.12817112501E+03  0.12499777760E+03 0.  0.
          2    1    1    2  501    0  0.38885806330E+02 -0.32903094481E+02  0.28389635543E+01  0.51017440884E+02  0.00000000000E+00 0. -1.
          1    1    1    2  502    0 -0.29193649164E+02  0.28662954019E+02  0.21573031184E+02  0.46251808171E+02  0.00000000000E+00 0. -1.
         22    1    3    3    0    0  0.31983780576E+02 -0.40800748266E+02 -0.15281399865E+02  0.54047982949E+02  0.00000000000E+00 0. -1.
         22    1    3    3    0    0 -0.41675937741E+02  0.45040888728E+02  0.41577334514E+02  0.74123142063E+02  0.00000000000E+00 0. -1.
</event>
<event>
 7    1  0.6262315E-006  0.1363322E+03  0.7818608E-02  0.1345853E+00
          2   -1    0    0  502    0  0.00000000000E+00  0.00000000000E+00  0.80127352679E+03  0.80127352679E+03  0.00000000000E+00 0. -1.
          1   -1    0    0  501    0 -0.00000000000E+00 -0.00000000000E+00 -0.90473842837E+02  0.90473842837E+02  0.00000000000E+00 0. -1.
         25    2    1    2    0    0 -0.83238215991E+02 -0.88518087336E+02  0.23479213245E+03  0.29241047015E+03  0.12494993079E+03 0.  0.
          2    1    1    2  501    0  0.66585271384E+02  0.12550449273E+03  0.22292312354E+02  0.14381211093E+03  0.00000000000E+00 0. -1.
          1    1    1    2  502    0  0.16652944607E+02 -0.36986405391E+02  0.45371523915E+03  0.45552478855E+03  0.00000000000E+00 0. -1.
         22    1    3    3    0    0  0.16122176808E+02 -0.44371147189E+02  0.14142552328E+03  0.14909695477E+03  0.00000000000E+00 0. -1.
         22    1    3    3    0    0 -0.99360392799E+02 -0.44146940147E+02  0.93366609177E+02  0.14331351538E+03  0.00000000000E+00 0. -1.
</event>
<event>
 7    1  0.6262315E-006  0.1248094E+03  0.7818608E-02  0.1299219E+00
          2   -1    0    0  502    0  0.00000000000E+00  0.00000000000E+00  0.30447522660E+03  0.30447522660E+03  0.00000000000E+00 0. -1.
          1   -1    0    0  501    0 -0.00000000000E+00 -0.00000000000E+00 -0.13048276376E+03  0.13048276376E+03  0.00000000000E+00 0. -1.
         25    2    1    2    0    0 -0.10863616754E+03 -0.25796656744E+02 -0.23299981369E+01  0.16762376813E+03  0.12500005742E+03 0.  0.
          2    1    1    2  501    0 -0.19524221178E+02  0.64202416820E+02  0.61609064626E+02  0.91097872545E+02  0.00000000000E+00 0. -1.
          1    1    1    2  502    0  0.12816038872E+03 -0.38405760077E+02  0.11471339636E+03  0.17623634968E+03  0.00000000000E+00 0. -1.
         22    1    3    3    0    0  0.24686379521E+02 -0.15809212211E+02 -0.15711626683E+02  0.33259641273E+02  0.00000000000E+00 0.  1.
         22    1    3    3    0    0 -0.13332254707E+03 -0.99874445326E+01  0.13381628546E+02  0.13436412686E+03  0.00000000000E+00 0.  1.
</event>
<event>
 7    1  0.6262315E-006  0.8850348E+02  0.7818608E-02  0.1438864E+00
          2   -1    0    0  502    0  0.00000000000E+00  0.00000000000E+00  0.12427358776E+04  0.12427358776E+04  0.00000000000E+00 0. -1.
          1   -1    0    0  501    0 -0.00000000000E+00 -0.00000000000E+00 -0.12235528120E+04  0.12235528120E+04  0.00000000000E+00 0. -1.
         25    2    1    2    0    0  0.56658162873E+02  0.97418286221E+02  0.61320817335E+02  0.17912511989E+03  0.12500038410E+03 0.  0.
          2    1    1    2  501    0 -0.56425443973E+02 -0.67775134724E+02 -0.11627849241E+04  0.11661243841E+04  0.00000000000E+00 0. -1.
          1    1    1    2  502    0 -0.23271890027E+00 -0.29643151497E+02  0.11206471723E+04  0.11210391855E+04  0.00000000000E+00 0. -1.
         22    1    3    3    0    0  0.71753505497E+02  0.28904629334E+02 -0.11269219527E+02  0.78173131297E+02  0.00000000000E+00 0. -1.
         22    1    3    3    0    0 -0.15095342624E+02  0.68513656887E+02  0.72590036862E+02  0.10095198859E+03  0.00000000000E+00 0. -1.
</event>
<event>
 7    1  0.6262315E-006  0.5148100E+02  0.7818608E-02  0.1443847E+00
          2   -1    0    0  502    0  0.00000000000E+00  0.00000000000E+00  0.15149087337E+03  0.15149087337E+03  0.00000000000E+00 0. -1.
          1   -1    0    0  501    0 -0.00000000000E+00 -0.00000000000E+00 -0.94166825395E+03  0.94166825395E+03  0.00000000000E+00 0. -1.
         25    2    1    2    0    0  0.62859430279E+01 -0.16762818623E+01 -0.92829377979E+02  0.15583430729E+03  0.12499885964E+03 0.  0.
          2    1    1    2  501    0  0.41620587080E+02  0.26055342650E+02 -0.81053577889E+03  0.81202179959E+03  0.00000000000E+00 0. -1.
          1    1    1    2  502    0 -0.47906530108E+02 -0.24379060788E+02  0.11318777628E+03  0.12530302044E+03  0.00000000000E+00 0. -1.
         22    1    3    3    0    0 -0.48952899013E+02  0.27631462901E+02 -0.19583833046E+02  0.59526553576E+02  0.00000000000E+00 0.  1.
         22    1    3    3    0    0  0.55238842041E+02 -0.29307744763E+02 -0.73245544933E+02  0.96307753715E+02  0.00000000000E+00 0.  1.
</event>
<event>
 7    1  0.6262315E-006  0.1359369E+03  0.7818608E-02  0.1397360E+00
          2   -1    0    0  502    0  0.00000000000E+00  0.00000000000E+00  0.38219488396E+04  0.38219488396E+04  0.00000000000E+00 0. -1.
          1   -1    0    0  501    0 -0.00000000000E+00 -0.00000000000E+00 -0.88296759651E+03  0.88296759651E+03  0.00000000000E+00 0. -1.
         25    2    1    2    0    0 -0.46421406279E+02 -0.13532648696E+03  0.15845445695E+02  0.19064037020E+03  0.12499787026E+03 0.  0.
          2    1    1    2  501    0 -0.20410441511E+02  0.17030254618E+02 -0.79410660978E+03  0.79455139758E+03  0.00000000000E+00 0. -1.
          1    1    1    2  502    0  0.66831847790E+02  0.11829623234E+03  0.37172424072E+04  0.37197246683E+04  0.00000000000E+00 0. -1.
         22    1    3    3    0    0 -0.72249698170E+02 -0.14283843259E+03  0.25443230815E+02  0.16208082769E+03  0.00000000000E+00 0.  1.
         22    1    3    3    0    0  0.25828291891E+02  0.75119456364E+01 -0.95977851191E+01  0.28559542511E+02  0.00000000000E+00 0.  1.
</event>
<event>
 7    1  0.6262315E-006  0.1151195E+03  0.7818608E-02  0.1352882E+00
          2   -1    0    0  502    0  0.00000000000E+00  0.00000000000E+00  0.31969547585E+04  0.31969547585E+04  0.00000000000E+00 0. -1.
          1   -1    0    0  501    0 -0.00000000000E+00 -0.00000000000E+00 -0.69020678654E+02  0.69020678654E+02  0.00000000000E+00 0. -1.
         25    2    1    2    0    0  0.73711140113E+02 -0.72376751372E+02  0.36354277883E+03  0.39807332166E+03  0.12500916388E+03 0.  0.
          2    1    1    2  501    0 -0.10960226343E+03  0.44839488627E+02  0.16413320594E+02  0.11955180041E+03  0.00000000000E+00 0. -1.
          1    1    1    2  502    0  0.35891123315E+02  0.27537262745E+02  0.27479779804E+04  0.27483503151E+04  0.00000000000E+00 0. -1.
         22    1    3    3    0    0  0.34203187322E+02  0.33098261090E+02  0.13788384250E+03  0.14586742931E+03  0.00000000000E+00 0.  1.
         22    1    3    3    0    0  0.39507952791E+02 -0.10547501246E+03  0.22565893633E+03  0.25220589235E+03  0.00000000000E+00 0.  1.
</event>
<event>
 7    1  0.6262315E-006  0.7096510E+02  0.7818608E-02  0.1425526E+00
          2   -1    0    0  502    0  0.00000000000E+00  0.00000000000E+00  0.11868730733E+04  0.11868730733E+04  0.00000000000E+00 0. -1.
          1   -1    0    0  501    0 -0.00000000000E+00 -0.00000000000E+00 -0.34296012542E+03  0.34296012542E+03  0.00000000000E+00 0. -1.
         25    2    1    2    0    0 -0.18232250534E+02 -0.92344067528E+02  0.66163084354E+02  0.16988374294E+03  0.12499236224E+03 0.  0.
          2    1    1    2  501    0 -0.22119627653E+02  0.34391649644E+02 -0.28849006368E+03  0.29137360954E+03  0.00000000000E+00 0. -1.
          1    1    1    2  502    0  0.40351878188E+02  0.57952417884E+02  0.10662399272E+04  0.10685758463E+04  0.00000000000E+00 0. -1.
         22    1    3    3    0    0 -0.51505605007E+02 -0.71342512177E+02 -0.54634572469E+01  0.88161390392E+02  0.00000000000E+00 0.  1.
         22    1    3    3    0    0  0.33273354473E+02 -0.21001555351E+02  0.71626541600E+02  0.81722352552E+02  0.00000000000E+00 0.  1.
</event>
<event>
 7    1  0.6262315E-006  0.6187056E+02  0.7818608E-02  0.1482404E+00
          2   -1    0    0  502    0  0.00000000000E+00  0.00000000000E+00  0.14459948534E+04  0.14459948534E+04  0.00000000000E+00 0. -1.
          1   -1    0    0  501    0 -0.00000000000E+00 -0.00000000000E+00 -0.54039665499E+03  0.54039665499E+03  0.00000000000E+00 0. -1.
         25    2    1    2    0    0  0.18268915022E+02 -0.32018525962E+02  0.93829003540E+02  0.16058587152E+03  0.12500000386E+03 0.  0.
          2    1    1    2  501    0 -0.92624383413E+01  0.61591193699E+02 -0.50492332532E+03  0.50875026521E+03  0.00000000000E+00 0. -1.
          1    1    1    2  502    0 -0.90064766806E+01 -0.29572667737E+02  0.13166925202E+04  0.13170553717E+04  0.00000000000E+00 0. -1.
         22    1    3    3    0    0  0.17956960866E+01  0.48210805297E+02  0.30793854545E+02  0.57234323177E+02  0.00000000000E+00 0.  1.
         22    1    3    3    0    0  0.16473218935E+02 -0.80229331259E+02  0.63035148995E+02  0.10335154834E+03  0.00000000000E+00 0.  1.
</event>
<event>
 7    1  0.6262315E-006  0.6864088E+02  0.7818608E-02  0.1423052E+00
          2   -1    0    0  502    0  0.00000000000E+00  0.00000000000E+00  0.53036448726E+03  0.53036448726E+03  0.00000000000E+00 0. -1.
          1   -1    0    0  501    0 -0.00000000000E+00 -0.00000000000E+00 -0.44821540372E+02  0.44821540372E+02  0.00000000000E+00 0. -1.
         25    2    1    2    0    0 -0.56410114499E+02 -0.39616917377E+02  0.22254020577E+03  0.26438696522E+03  0.12499889213E+03 0.  0.
          2    1    1    2  501    0  0.33144666959E+02 -0.27523641558E+02  0.52147635686E+01  0.43397160639E+02  0.00000000000E+00 0. -1.
          1    1    1    2  502    0  0.23265447539E+02  0.67140558935E+02  0.25778797754E+03  0.26740190177E+03  0.00000000000E+00 0. -1.
         22    1    3    3    0    0 -0.97861744301E+01  0.17162057365E+02 -0.88246194990E+01  0.21637452075E+02  0.00000000000E+00 0.  1.
         22    1    3    3    0    0 -0.46623940069E+02 -0.56778974742E+02  0.23136482527E+03  0.24274951315E+03  0.00000000000E+00 0.  1.
</event>
<event>
 7    1  0.6262315E-006  0.5264176E+02  0.7818608E-02  0.1496751E+00
          2   -1    0    0  502    0  0.00000000000E+00  0.00000000000E+00  0.66940219004E+03  0.66940219004E+03  0.00000000000E+00 0. -1.
          1   -1    0    0  501    0 -0.00000000000E+00 -0.00000000000E+00 -0.13843031350E+04  0.13843031350E+04  0.00000000000E+00 0. -1.
         25    2    1    2    0    0 -0.31243550073E+02  0.27464404785E+02  0.30271702579E+03  0.33014173995E+03  0.12500207117E+03 0.  0.
          2    1    1    2  501    0 -0.24073829719E+02 -0.22388676846E+02 -0.13682065361E+04  0.13686014495E+04  0.00000000000E+00 0. -1.
          1    1    1    2  502    0  0.55317379792E+02 -0.50757279393E+01  0.35058856537E+03  0.35496213557E+03  0.00000000000E+00 0. -1.
         22    1    3    3    0    0 -0.40825530221E+02  0.71332168903E+02  0.23438201134E+03  0.24837457494E+03  0.00000000000E+00 0. -1.
         22    1    3    3    0    0  0.95819801477E+01 -0.43867764118E+02  0.68335014453E+02  0.81767165002E+02  0.00000000000E+00 0. -1.
</event>
<event>
 7    1  0.6262315E-006  0.3278381E+02  0.7818608E-02  0.1621655E+00
          2   -1    0    0  502    0  0.00000000000E+00  0.00000000000E+00  0.23168332863E+04  0.23168332863E+04  0.00000000000E+00 0. -1.
          1   -1    0    0  501    0 -0.00000000000E+00 -0.00000000000E+00 -0.16297985988E+04  0.16297985988E+04  0.00000000000E+00 0. -1.
         25    2    1    2    0    0  0.27173935900E+02 -0.26571453491E+02  0.71807506458E+02  0.14908394662E+03  0.12500096089E+03 0.  0.
          2    1    1    2  501    0  0.54492900484E+01  0.23235591822E+02 -0.15909490234E+04  0.15911280220E+04  0.00000000000E+00 0. -1.
          1    1    1    2  502    0 -0.32623225949E+02  0.33358616696E+01  0.22061762044E+04  0.22064199165E+04  0.00000000000E+00 0. -1.
         22    1    3    3    0    0 -0.68824726791E+01  0.29752575722E+02  0.77222806941E+02  0.83041833458E+02  0.00000000000E+00 0. -1.
         22    1    3    3    0    0  0.34056408580E+02 -0.56324029213E+02 -0.54153004834E+01  0.66042113166E+02  0.00000000000E+00 0. -1.
</event>
<event>
 7    1  0.6262315E-006  0.7514914E+02  0.7818608E-02  0.1461457E+00
          2   -1    0    0  502    0  0.00000000000E+00  0.00000000000E+00  0.16021064768E+04  0.16021064768E+04  0.00000000000E+00 0. -1.
          1   -1    0    0  501    0 -0.00000000000E+00 -0.00000000000E+00 -0.16576804663E+03  0.16576804663E+03  0.00000000000E+00 0. -1.
         25    2    1    2    0    0  0.76485978098E+02  0.58157268132E+02  0.38095017101E+03  0.41228702021E+03  0.12500072623E+03 0.  0.
          2    1    1    2  501    0 -0.46926327605E+02 -0.58148065528E+02 -0.14060638971E+03  0.15922761876E+03  0.00000000000E+00 0. -1.
          1    1    1    2  502    0 -0.29559650493E+02 -0.92026047874E-02  0.11959946488E+04  0.11963598844E+04  0.00000000000E+00 0. -1.
         22    1    3    3    0    0  0.76021130526E+02  0.56218204057E+02  0.12700989480E+03  0.15833891540E+03  0.00000000000E+00 0. -1.
         22    1    3    3    0    0  0.46484757198E+00  0.19390640755E+01  0.25394027622E+03  0.25394810481E+03  0.00000000000E+00 0. -1.
</event>
<event>
 7    1  0.6262315E-006  0.5991918E+02  0.7818608E-02  0.1489187E+00
          2   -1    0    0  502    0  0.00000000000E+00  0.00000000000E+00  0.73249991019E+03  0.73249991019E+03  0.00000000000E+00 0. -1.
          1   -1    0    0  501    0 -0.00000000000E+00 -0.00000000000E+00 -0.12008486098E+04  0.12008486098E+04  0.00000000000E+00 0. -1.
         25    2    1    2    0    0  0.57739752552E+02 -0.19379768901E+02 -0.61247419192E+02  0.15195507140E+03  0.12501857022E+03 0.  0.
          2    1    1    2  501    0 -0.40410009534E+02  0.44403875339E+02 -0.10930860630E+04  0.10947336727E+04  0.00000000000E+00 0. -1.
          1    1    1    2  502    0 -0.17329743018E+02 -0.25024106438E+02  0.68598478258E+03  0.68665977589E+03  0.00000000000E+00 0. -1.
         22    1    3    3    0    0 -0.34710658280E+02 -0.27232892654E+02 -0.75695569376E+01  0.44763360382E+02  0.00000000000E+00 0. -1.
         22    1    3    3    0    0  0.92450410832E+02  0.78531237526E+01 -0.53677862254E+02  0.10719171102E+03  0.00000000000E+00 0. -1.
</event>
<event>
 7    1  0.6262315E-006  0.7600296E+02  0.7818608E-02  0.1457853E+00
          2   -1    0    0  502    0  0.00000000000E+00  0.00000000000E+00  0.63176508749E+03  0.63176508749E+03  0.00000000000E+00 0. -1.
          1   -1    0    0  501    0 -0.00000000000E+00 -0.00000000000E+00 -0.31374711941E+03  0.31374711941E+03  0.00000000000E+00 0. -1.
         25    2    1    2    0    0 -0.90860582012E+02 -0.33299520339E+02  0.10949165547E+02  0.15845814773E+03  0.12499838774E+03 0.  0.
          2    1    1    2  501    0  0.28576446957E+02 -0.91420271026E+01 -0.23644416312E+03  0.23834016081E+03  0.00000000000E+00 0. -1.
          1    1    1    2  502    0  0.62284135055E+02  0.42441547442E+02  0.54351296565E+03  0.54871389836E+03  0.00000000000E+00 0. -1.
         22    1    3    3    0    0 -0.10643880655E+03 -0.14174147093E+02  0.44987477609E+02  0.11642164372E+03  0.00000000000E+00 0. -1.
         22    1    3    3    0    0  0.15578224537E+02 -0.19125373246E+02 -0.34038312062E+02  0.42036504012E+02  0.00000000000E+00 0. -1.
</event>
<event>
 7    1  0.6262315E-006  0.5886652E+02  0.7818608E-02  0.1411024E+00
          2   -1    0    0  502    0  0.00000000000E+00  0.00000000000E+00  0.94199931531E+03  0.94199931531E+03  0.00000000000E+00 0. -1.
          1   -1    0    0  501    0 -0.00000000000E+00 -0.00000000000E+00 -0.14056316679E+04  0.14056316679E+04  0.00000000000E+00 0. -1.
         25    2    1    2    0    0 -0.33248827819E+02 -0.54785097345E+01  0.23868890453E+02  0.13164605817E+03  0.12500184831E+03 0.  0.
          2    1    1    2  501    0  0.51185238770E-01  0.55126817696E+02 -0.13501480959E+04  0.13512730477E+04  0.00000000000E+00 0. -1.
          1    1    1    2  502    0  0.33197642581E+02 -0.49648307961E+02  0.86264685287E+03  0.86471187729E+03  0.00000000000E+00 0. -1.
         22    1    3    3    0    0 -0.65269868696E+02 -0.37920315432E+01 -0.27631475124E+02  0.70979107351E+02  0.00000000000E+00 0. -1.
         22    1    3    3    0    0  0.32021040877E+02 -0.16864781914E+01  0.51500365577E+02  0.60666950822E+02  0.00000000000E+00 0. -1.
</event>
<event>
 7    1  0.6262315E-006  0.7624437E+02  0.7818608E-02  0.1406121E+00
          2   -1    0    0  502    0  0.00000000000E+00  0.00000000000E+00  0.55477533323E+03  0.55477533323E+03  0.00000000000E+00 0. -1.
          1   -1    0    0  501    0 -0.00000000000E+00 -0.00000000000E+00 -0.52918741151E+03  0.52918741151E+03  0.00000000000E+00 0. -1.
         25    2    1    2    0    0 -0.35969222221E+02 -0.13878292978E+02  0.36933544239E+02  0.13592762699E+03  0.12500336445E+03 0.  0.
          2    1    1    2  501    0 -0.24519820675E+02 -0.36805710973E+02 -0.47533222929E+03  0.47738518009E+03  0.00000000000E+00 0. -1.
          1    1    1    2  502    0  0.60489042895E+02  0.50684003951E+02  0.46398660677E+03  0.47064993767E+03  0.00000000000E+00 0. -1.
         22    1    3    3    0    0 -0.60235533709E+02 -0.50582585407E+02  0.45832762977E+02  0.91036034787E+02  0.00000000000E+00 0. -1.
         22    1    3    3    0    0  0.24266311489E+02  0.36704292429E+02 -0.88992187387E+01  0.44891592198E+02  0.00000000000E+00 0. -1.
</event>
<event>
 7    1  0.6262315E-006  0.1091170E+03  0.7818608E-02  0.1419735E+00
          2   -1    0    0  502    0  0.00000000000E+00  0.00000000000E+00  0.42183355526E+03  0.42183355526E+03  0.00000000000E+00 0. -1.
          1   -1    0    0  501    0 -0.00000000000E+00 -0.00000000000E+00 -0.99469540629E+03  0.99469540629E+03  0.00000000000E+00 0. -1.
         25    2    1    2    0    0  0.13442984204E+03  0.12446579284E+02 -0.10835176015E+03  0.21352364371E+03  0.12500377087E+03 0.  0.
          2    1    1    2  501    0 -0.10719678026E+03 -0.68597637299E+01 -0.82976759742E+03  0.83669138384E+03  0.00000000000E+00 0. -1.
          1    1    1    2  502    0 -0.27233061779E+02 -0.55868155541E+01  0.36525750653E+03  0.36631393400E+03  0.00000000000E+00 0. -1.
         22    1    3    3    0    0 -0.91359037934E+01  0.35612195823E+02 -0.34522512719E+02  0.50433095423E+02  0.00000000000E+00 0.  1.
         22    1    3    3    0    0  0.14356574583E+03 -0.23165616539E+02 -0.73829247427E+02  0.16309054829E+03  0.00000000000E+00 0.  1.
</event>
<event>
 7    1  0.6262315E-006  0.7648073E+02  0.7818608E-02  0.1356889E+00
          2   -1    0    0  502    0  0.00000000000E+00  0.00000000000E+00  0.39949502220E+03  0.39949502220E+03  0.00000000000E+00 0. -1.
          1   -1    0    0  501    0 -0.00000000000E+00 -0.00000000000E+00 -0.34290323874E+03  0.34290323874E+03  0.00000000000E+00 0. -1.
         25    2    1    2    0    0 -0.37663417322E+02  0.22957195723E+01 -0.10559039033E+03  0.16792353085E+03  0.12500071339E+03 0.  0.
          2    1    1    2  501    0 -0.75173012962E+00  0.65816832293E+02 -0.19657075922E+03  0.20729805569E+03  0.00000000000E+00 0. -1.
          1    1    1    2  502    0  0.38415147451E+02 -0.68112551866E+02  0.35875293302E+03  0.36717667440E+03  0.00000000000E+00 0. -1.
         22    1    3    3    0    0 -0.64352494945E+01 -0.26136085272E+02 -0.12024508487E+03  0.12322089038E+03  0.00000000000E+00 0.  1.
         22    1    3    3    0    0 -0.31228167827E+02  0.28431804845E+02  0.14654694542E+02  0.44702640467E+02  0.00000000000E+00 0.  1.
</event>
<event>
 7    1  0.6262315E-006  0.1011512E+03  0.7818608E-02  0.1311806E+00
          2   -1    0    0  502    0  0.00000000000E+00  0.00000000000E+00  0.12791287083E+04  0.12791287083E+04  0.00000000000E+00 0. -1.
          1   -1    0    0  501    0 -0.00000000000E+00 -0.00000000000E+00 -0.31349713387E+02  0.31349713387E+02  0.00000000000E+00 0. -1.
         25    2    1    2    0    0 -0.60912392567E+01  0.12894220308E+01  0.35626887056E+03  0.37761502700E+03  0.12500733850E+03 0.  0.
          2    1    1    2  501    0  0.29011555867E+02 -0.99809642643E+02  0.13889015352E+03  0.17347653986E+03  0.00000000000E+00 0. -1.
          1    1    1    2  502    0 -0.22920316611E+02  0.98520220612E+02  0.75261997088E+03  0.75938685487E+03  0.00000000000E+00 0. -1.
         22    1    3    3    0    0  0.56096800411E+02  0.20453693278E+02  0.15585399796E+03  0.16690018953E+03  0.00000000000E+00 0.  1.
         22    1    3    3    0    0 -0.62188039667E+02 -0.19164271247E+02  0.20041487260E+03  0.21071483746E+03  0.00000000000E+00 0.  1.
</event>
<event>
 7    1  0.6262315E-006  0.4303771E+02  0.7818608E-02  0.1592619E+00
          2   -1    0    0  502    0  0.00000000000E+00  0.00000000000E+00  0.60014957214E+03  0.60014957214E+03  0.00000000000E+00 0. -1.
          1   -1    0    0  501    0 -0.00000000000E+00 -0.00000000000E+00 -0.10509662933E+03  0.10509662933E+03  0.00000000000E+00 0. -1.
         25    2    1    2    0    0 -0.16617807342E+02  0.37850514283E+02  0.43211150537E+03  0.45172346534E+03  0.12499969247E+03 0.  0.
          2    1    1    2  501    0 -0.18924877050E+02 -0.10444746613E+02 -0.90813778176E+02  0.93350875785E+02  0.00000000000E+00 0. -1.
          1    1    1    2  502    0  0.35542684392E+02 -0.27405767670E+02  0.15375521562E+03  0.16017186034E+03  0.00000000000E+00 0. -1.
         22    1    3    3    0    0 -0.27625574415E+02  0.66913967939E+02  0.40194508006E+03  0.40841216785E+03  0.00000000000E+00 0. -1.
         22    1    3    3    0    0  0.11007767074E+02 -0.29063453656E+02  0.30166425313E+02  0.43311297493E+02  0.00000000000E+00 0. -1.
</event>
<event>
 7    1  0.6262315E-006  0.7160730E+02  0.7818608E-02  0.1419221E+00
          2   -1    0    0  502    0  0.00000000000E+00  0.00000000000E+00  0.80085136946E+03  0.80085136946E+03  0.00000000000E+00 0. -1.
          1   -1    0    0  501    0 -0.00000000000E+00 -0.00000000000E+00 -0.62673040214E+03  0.62673040214E+03  0.00000000000E+00 0. -1.
         25    2    1    2    0    0  0.15352210365E+02  0.11084049679E+03  0.16241729606E+03  0.23350414405E+03  0.12499400442E+03 0.  0.
          2    1    1    2  501    0  0.12190179455E-01 -0.71181949446E+02 -0.58828881940E+03  0.59257961921E+03  0.00000000000E+00 0. -1.
          1    1    1    2  502    0 -0.15364400545E+02 -0.39658547348E+02  0.59999249066E+03  0.60149800833E+03  0.00000000000E+00 0. -1.
         22    1    3    3    0    0  0.38495076620E+02  0.70825785496E+02  0.16858775509E+03  0.18686892192E+03  0.00000000000E+00 0.  1.
         22    1    3    3    0    0 -0.23142866255E+02  0.40014711298E+02 -0.61704590304E+01  0.46635222133E+02  0.00000000000E+00 0.  1.
</event>
<event>
 7    1  0.6262315E-006  0.8755061E+02  0.7818608E-02  0.1389426E+00
          2   -1    0    0  502    0  0.00000000000E+00  0.00000000000E+00  0.35417364120E+03  0.35417364120E+03  0.00000000000E+00 0. -1.
          1   -1    0    0  501    0 -0.00000000000E+00 -0.00000000000E+00 -0.15876881445E+03  0.15876881445E+03  0.00000000000E+00 0. -1.
         25    2    1    2    0    0  0.23429988980E+02 -0.10567342572E+03 -0.20741665769E+02  0.16664848871E+03  0.12500265919E+03 0.  0.
          2    1    1    2  501    0  0.26625105426E+02  0.35000322782E+02 -0.49896496497E+02  0.66509993208E+02  0.00000000000E+00 0. -1.
          1    1    1    2  502    0 -0.50055094406E+02  0.70673102937E+02  0.26604298901E+03  0.27978397373E+03  0.00000000000E+00 0. -1.
         22    1    3    3    0    0 -0.58051543372E+01 -0.98686657934E+02  0.33713795653E+02  0.10444795971E+03  0.00000000000E+00 0.  1.
         22    1    3    3    0    0  0.29235143317E+02 -0.69867677849E+01 -0.54455461422E+02  0.62200528997E+02  0.00000000000E+00 0.  1.
</event>
<event>
 7    1  0.6262315E-006  0.5889244E+02  0.7818608E-02  0.1437030E+00
          2   -1    0    0  502    0  0.00000000000E+00  0.00000000000E+00  0.17558229310E+02  0.17558229310E+02  0.00000000000E+00 0. -1.
          1   -1    0    0  501    0 -0.00000000000E+00 -0.00000000000E+00 -0.12145099112E+04  0.12145099112E+04  0.00000000000E+00 0. -1.
         25    2    1    2    0    0  0.53375294149E+02  0.20513658492E+02 -0.67939735179E+03  0.69316334558E+03  0.12499971926E+03 0.  0.
          2    1    1    2  501    0 -0.58488015208E+02  0.24361678241E+02 -0.46632077301E+03  0.47060535763E+03  0.00000000000E+00 0. -1.
          1    1    1    2  502    0  0.51127210587E+01 -0.44875336733E+02 -0.51233557063E+02  0.68299437281E+02  0.00000000000E+00 0. -1.
         22    1    3    3    0    0  0.68955542553E+02 -0.35994776184E+02 -0.42916322176E+03  0.43615543292E+03  0.00000000000E+00 0. -1.
         22    1    3    3    0    0 -0.15580248403E+02  0.56508434676E+02 -0.25023413004E+03  0.25700791265E+03  0.00000000000E+00 0. -1.
</event>
<event>
 7    1  0.6262315E-006  0.4626382E+02  0.7818608E-02  0.1494924E+00
          2   -1    0    0  502    0  0.00000000000E+00  0.00000000000E+00  0.99051538056E+03  0.99051538056E+03  0.00000000000E+00 0. -1.
          1   -1    0    0  501    0 -0.00000000000E+00 -0.00000000000E+00 -0.14323588968E+04  0.14323588968E+04  0.00000000000E+00 0. -1.
         25    2    1    2    0    0 -0.73032095929E+02  0.11656962982E+01 -0.24465075775E+03  0.28429182777E+03  0.12503121284E+03 0.  0.
          2    1    1    2  501    0  0.31383775721E+02 -0.21217865664E+02 -0.11670297820E+04  0.11676444884E+04  0.00000000000E+00 0. -1.
          1    1    1    2  502    0  0.41648320208E+02  0.20052169366E+02  0.96983702357E+03  0.97093796113E+03  0.00000000000E+00 0. -1.
         22    1    3    3    0    0 -0.93486969949E+02  0.35915802358E+02 -0.13993095298E+03  0.17207681427E+03  0.00000000000E+00 0.  1.
         22    1    3    3    0    0  0.20454874020E+02 -0.34750106060E+02 -0.10471980477E+03  0.11221501349E+03  0.00000000000E+00 0.  1.
</event>
<event>
 7    1  0.6262315E-006  0.6413092E+02  0.7818608E-02  0.1466314E+00
          2   -1    0    0  502    0  0.00000000000E+00  0.00000000000E+00  0.38098738141E+03  0.38098738141E+03  0.00000000000E+00 0. -1.
          1   -1    0    0  501    0 -0.00000000000E+00 -0.00000000000E+00 -0.99428208748E+03  0.99428208748E+03  0.00000000000E+00 0. -1.
         25    2    1    2    0    0 -0.81878015552E+02  0.23508306529E+01  0.11288017768E+03  0.18728574773E+03  0.12499792381E+03 0.  0.
          2    1    1    2  501    0  0.59847857920E+02  0.22811949724E+02 -0.95478976521E+03  0.95693555002E+03  0.00000000000E+00 0. -1.
          1    1    1    2  502    0  0.22030157631E+02 -0.25162780377E+02  0.22861488146E+03  0.23104817114E+03  0.00000000000E+00 0. -1.
         22    1    3    3    0    0 -0.35002876576E+02  0.62817090753E+02  0.43762304362E+02  0.84180327525E+02  0.00000000000E+00 0.  1.
         22    1    3    3    0    0 -0.46875138976E+02 -0.60466260100E+02  0.69117873316E+02  0.10310542021E+03  0.00000000000E+00 0.  1.
</event>
<event>
 7    1  0.6262315E-006  0.5159629E+02  0.7818608E-02  0.1551951E+00
          2   -1    0    0  502    0  0.00000000000E+00  0.00000000000E+00  0.10090503341E+04  0.10090503341E+04  0.00000000000E+00 0. -1.
          1   -1    0    0  501    0 -0.00000000000E+00 -0.00000000000E+00 -0.47889368781E+03  0.47889368781E+03  0.00000000000E+00 0. -1.
         25    2    1    2    0    0 -0.25052978817E+02 -0.26867739540E+02 -0.63220810753E+02  0.14482146172E+03  0.12500743052E+03 0.  0.
          2    1    1    2  501    0  0.18276008926E+02  0.49094345704E+02 -0.37290205807E+03  0.37656368943E+03  0.00000000000E+00 0. -1.
          1    1    1    2  502    0  0.67769698906E+01 -0.22226606164E+02  0.96627951509E+03  0.96655887075E+03  0.00000000000E+00 0. -1.
         22    1    3    3    0    0  0.16915040530E+02 -0.37892984930E+02 -0.86237999380E+02  0.95702609369E+02  0.00000000000E+00 0.  1.
         22    1    3    3    0    0 -0.41968019346E+02  0.11025245391E+02  0.23017188627E+02  0.49118852349E+02  0.00000000000E+00 0.  1.
</event>
<event>
 7    1  0.6262315E-006  0.1246509E+03  0.7818608E-02  0.1306204E+00
          2   -1    0    0  502    0  0.00000000000E+00  0.00000000000E+00  0.81469106667E+03  0.81469106667E+03  0.00000000000E+00 0. -1.
          1   -1    0    0  501    0 -0.00000000000E+00 -0.00000000000E+00 -0.12765330382E+04  0.12765330382E+04  0.00000000000E+00 0. -1.
         25    2    1    2    0    0  0.42616539996E+02  0.79845250810E+02 -0.10788002361E+03  0.18829308555E+03  0.12499901206E+03 0.  0.
          2    1    1    2  501    0 -0.26651504864E+01 -0.12858111420E+03 -0.11234899034E+04  0.11308270287E+04  0.00000000000E+00 0. -1.
          1    1    1    2  502    0 -0.39951389510E+02  0.48735863391E+02  0.76952795550E+03  0.77210399054E+03  0.00000000000E+00 0. -1.
         22    1    3    3    0    0  0.80368813309E+02  0.82638365075E+02 -0.90905097034E+02  0.14680593381E+03  0.00000000000E+00 0. -1.
         22    1    3    3    0    0 -0.37752273313E+02 -0.27931142649E+01 -0.16974926578E+02  0.41487151745E+02  0.00000000000E+00 0. -1.
</event>
<event>
 7    1  0.6262315E-006  0.2272016E+03  0.7818608E-02  0.1202022E+00
          2   -1    0    0  502    0  0.00000000000E+00  0.00000000000E+00  0.98524965301E+02  0.98524965301E+02  0.00000000000E+00 0. -1.
          1   -1    0    0  501    0 -0.00000000000E+00 -0.00000000000E+00 -0.41136203912E+04  0.41136203912E+04  0.00000000000E+00 0. -1.
         25    2    1    2    0    0  0.16925263486E+03  0.11531272459E+03 -0.38165975714E+03  0.45081157312E+03  0.12499370137E+03 0.  0.
          2    1    1    2  501    0 -0.11878818002E+03 -0.19860014389E+03 -0.36543999334E+04  0.36617197492E+04  0.00000000000E+00 0. -1.
          1    1    1    2  502    0 -0.50464454837E+02  0.83287419299E+02  0.20964264585E+02  0.99614034178E+02  0.00000000000E+00 0. -1.
         22    1    3    3    0    0  0.11975501852E+03  0.11581680690E+03 -0.36019727412E+03  0.39685875763E+03  0.00000000000E+00 0. -1.
         22    1    3    3    0    0  0.49497616340E+02 -0.50408231284E+00 -0.21462483017E+02  0.53952815492E+02  0.00000000000E+00 0. -1.
</event>
<event>
 7    1  0.6262315E-006  0.7409411E+02  0.7818608E-02  0.1397527E+00
          2   -1    0    0  502    0  0.00000000000E+00  0.00000000000E+00  0.30168127708E+03  0.30168127708E+03  0.00000000000E+00 0. -1.
          1   -1    0    0  501    0 -0.00000000000E+00 -0.00000000000E+00 -0.36877678697E+04  0.36877678697E+04  0.00000000000E+00 0. -1.
         25    2    1    2    0    0  0.21540066194E+02 -0.94291801084E+02 -0.14717234242E+03  0.21596018047E+03  0.12499673185E+03 0.  0.
          2    1    1    2  501    0 -0.42622123989E+02  0.23568704627E+02 -0.35009350289E+04  0.35012737977E+04  0.00000000000E+00 0. -1.
          1    1    1    2  502    0  0.21082057795E+02  0.70723096456E+02  0.26202077876E+03  0.27221516863E+03  0.00000000000E+00 0. -1.
         22    1    3    3    0    0  0.52627790203E+02 -0.34853900570E+01 -0.89788852325E+02  0.10413390537E+03  0.00000000000E+00 0.  1.
         22    1    3    3    0    0 -0.31087724009E+02 -0.90806411027E+02 -0.57383490090E+02  0.11182627510E+03  0.00000000000E+00 0.  1.
</event>
<event>
 7    1  0.6262315E-006  0.4141844E+02  0.7818608E-02  0.1566470E+00
          2   -1    0    0  502    0  0.00000000000E+00  0.00000000000E+00  0.16322337485E+04  0.16322337485E+04  0.00000000000E+00 0. -1.
          1   -1    0    0  501    0 -0.00000000000E+00 -0.00000000000E+00 -0.30867677020E+02  0.30867677020E+02  0.00000000000E+00 0. -1.
         25    2    1    2    0    0  0.61777576821E+02  0.25689543473E+01  0.11000196193E+04  0.11088243167E+04  0.12500053643E+03 0.  0.
          2    1    1    2  501    0 -0.25008756088E+02  0.84545078182E+01 -0.18994372036E+02  0.32522342360E+02  0.00000000000E+00 0. -1.
          1    1    1    2  502    0 -0.36768820733E+02 -0.11023462166E+02  0.52034082423E+03  0.52175476639E+03  0.00000000000E+00 0. -1.
         22    1    3    3    0    0  0.37863106593E+02 -0.53636803139E+01  0.81847023844E+02  0.90340020032E+02  0.00000000000E+00 0. -1.
         22    1    3    3    0    0  0.23914470228E+02  0.79326346612E+01  0.10181725954E+04  0.10184842967E+04  0.00000000000E+00 0. -1.
</event>
<event>
 7    1  0.6262315E-006  0.1218449E+03  0.7818608E-02  0.1298017E+00
          2   -1    0    0  502    0  0.00000000000E+00  0.00000000000E+00  0.39121182363E+04  0.39121182363E+04  0.00000000000E+00 0. -1.
          1   -1    0    0  501    0 -0.00000000000E+00 -0.00000000000E+00 -0.17939184850E+04  0.17939184850E+04  0.00000000000E+00 0. -1.
         25    2    1    2    0    0 -0.49144453651E+02  0.13347232624E+03  0.41889976105E+03  0.45970892782E+03  0.12500099726E+03 0.  0.
          2    1    1    2  501    0 -0.19106442663E+02 -0.12032612191E+03 -0.17710731320E+04  0.17752587053E+04  0.00000000000E+00 0. -1.
          1    1    1    2  502    0  0.68250896314E+02 -0.13146204328E+02  0.34703731222E+04  0.34710690882E+04  0.00000000000E+00 0. -1.
         22    1    3    3    0    0 -0.18090601091E+02  0.39234025626E+02  0.18155355711E+02  0.46863584537E+02  0.00000000000E+00 0.  1.
         22    1    3    3    0    0 -0.31053852559E+02  0.94238300610E+02  0.40074440534E+03  0.41284534328E+03  0.00000000000E+00 0.  1.
</event>
<event>
 7    1  0.6262315E-006  0.1219727E+03  0.7818608E-02  0.1311609E+00
          2   -1    0    0  502    0  0.00000000000E+00  0.00000000000E+00  0.20105419700E+04  0.20105419700E+04  0.00000000000E+00 0. -1.
          1   -1    0    0  501    0 -0.00000000000E+00 -0.00000000000E+00 -0.89461357096E+03  0.89461357096E+03  0.00000000000E+00 0. -1.
         25    2    1    2    0    0 -0.53709010539E+02  0.42635386414E+02  0.92051233052E+03  0.93148674555E+03  0.12498868953E+03 0.  0.
          2    1    1    2  501    0  0.11501068314E+03 -0.41389398223E+02 -0.88405137389E+03  0.89246141160E+03  0.00000000000E+00 0. -1.
          1    1    1    2  502    0 -0.61301672596E+02 -0.12459881906E+01  0.10794674425E+04  0.10812073838E+04  0.00000000000E+00 0. -1.
         22    1    3    3    0    0 -0.74179829461E+02 -0.19598583841E+02  0.52769721323E+03  0.53324581614E+03  0.00000000000E+00 0.  1.
         22    1    3    3    0    0  0.20470818922E+02  0.62233970255E+02  0.39281511730E+03  0.39824092941E+03  0.00000000000E+00 0.  1.
</event>
<event>
 7    1  0.6262315E-006  0.6517727E+02  0.7818608E-02  0.1477799E+00
          2   -1    0    0  502    0  0.00000000000E+00  0.00000000000E+00  0.21638619203E+03  0.21638619203E+03  0.00000000000E+00 0. -1.
          1   -1    0    0  501    0 -0.00000000000E+00 -0.00000000000E+00 -0.15475312885E+04  0.15475312885E+04  0.00000000000E+00 0. -1.
         25    2    1    2    0    0  0.96805308414E+01 -0.64769414877E+02 -0.10303915571E+04  0.10400112224E+04  0.12501116766E+03 0.  0.
          2    1    1    2  501    0 -0.38430263735E+02  0.55152445771E+02 -0.50902280412E+03  0.51344219983E+03  0.00000000000E+00 0. -1.
          1    1    1    2  502    0  0.28749732893E+02  0.96169691060E+01  0.20826926469E+03  0.21046405834E+03  0.00000000000E+00 0. -1.
         22    1    3    3    0    0  0.38668888584E+02 -0.65936621261E+02 -0.31907616029E+03  0.32810443007E+03  0.00000000000E+00 0.  1.
         22    1    3    3    0    0 -0.28988357742E+02  0.11672063846E+01 -0.71131539679E+03  0.71190679233E+03  0.00000000000E+00 0.  1.
</event>
<event>
 7    1  0.6262315E-006  0.7433595E+02  0.7818608E-02  0.1390166E+00
          2   -1    0    0  502    0  0.00000000000E+00  0.00000000000E+00  0.75601708053E+03  0.75601708053E+03  0.00000000000E+00 0. -1.
          1   -1    0    0  501    0 -0.00000000000E+00 -0.00000000000E+00 -0.54752563658E+03  0.54752563658E+03  0.00000000000E+00 0. -1.
         25    2    1    2    0    0 -0.45260166973E+02 -0.11531699304E+03  0.18262090277E+02  0.17693169338E+03  0.12499931433E+03 0.  0.
          2    1    1    2  501    0  0.12686135126E+02  0.49899735662E+02 -0.46473699818E+03  0.46758036648E+03  0.00000000000E+00 0. -1.
          1    1    1    2  502    0  0.32574031847E+02  0.65417257381E+02  0.65496635186E+03  0.65903065724E+03  0.00000000000E+00 0. -1.
         22    1    3    3    0    0 -0.25856954133E+02 -0.14941442194E+02 -0.46969757206E+02  0.55659562197E+02  0.00000000000E+00 0.  1.
         22    1    3    3    0    0 -0.19403212840E+02 -0.10037555085E+03  0.65231847484E+02  0.12127213119E+03  0.00000000000E+00 0.  1.
</event>
<event>
 7    1  0.6262315E-006  0.6606064E+02  0.7818608E-02  0.1464105E+00
          2   -1    0    0  502    0  0.00000000000E+00  0.00000000000E+00  0.74947453459E+02  0.74947453459E+02  0.00000000000E+00 0. -1.
          1   -1    0    0  501    0 -0.00000000000E+00 -0.00000000000E+00 -0.12027127268E+04  0.12027127268E+04  0.00000000000E+00 0. -1.
         25    2    1    2    0    0  0.85641054359E+02  0.36972440993E+02 -0.57259193623E+03  0.59345426574E+03  0.12500035399E+03 0.  0.
          2    1    1    2  501    0 -0.21376637229E+02 -0.25124970430E+02 -0.60257466091E+03  0.60347696454E+03  0.00000000000E+00 0. -1.
          1    1    1    2  502    0 -0.64264417130E+02 -0.11847470563E+02  0.47401323799E+02  0.80728949985E+02  0.00000000000E+00 0. -1.
         22    1    3    3    0    0  0.74865410278E+02  0.79014598164E+02 -0.34510046400E+03  0.36185973337E+03  0.00000000000E+00 0. -1.
         22    1    3    3    0    0  0.10775644080E+02 -0.42042157170E+02 -0.22749147223E+03  0.23159453237E+03  0.00000000000E+00 0. -1.
</event>
<event>
 7    1  0.6262315E-006  0.9295866E+02  0.7818608E-02  0.1431277E+00
          2   -1    0    0  502    0  0.00000000000E+00  0.00000000000E+00  0.11316153796E+04  0.11316153796E+04  0.00000000000E+00 0. -1.
          1   -1    0    0  501    0 -0.00000000000E+00 -0.00000000000E+00 -0.70986116049E+02  0.70986116049E+02  0.00000000000E+00 0. -1.
         25    2    1    2    0    0 -0.72737190714E+02  0.15232861329E+02  0.10998826842E+03  0.18233106201E+03  0.12499783202E+03 0.  0.
          2    1    1    2  501    0  0.98039577330E+02 -0.31129816183E+02  0.41950203157E+02  0.11108845000E+03  0.00000000000E+00 0. -1.
          1    1    1    2  502    0 -0.25302386616E+02  0.15896954854E+02  0.90869079199E+03  0.90918198365E+03  0.00000000000E+00 0. -1.
         22    1    3    3    0    0 -0.49046660107E+02  0.63238324176E+02  0.28741822905E+02  0.85033833832E+02  0.00000000000E+00 0.  1.
         22    1    3    3    0    0 -0.23690530607E+02 -0.48005462847E+02  0.81246445511E+02  0.97297228181E+02  0.00000000000E+00 0.  1.
</event>
<event>
 7    1  0.6262315E-006  0.1874207E+03  0.7818608E-02  0.1256578E+00
          2   -1    0    0  502    0  0.00000000000E+00  0.00000000000E+00  0.18566181039E+04  0.18566181039E+04  0.00000000000E+00 0. -1.
          1   -1    0    0  501    0 -0.00000000000E+00 -0.00000000000E+00 -0.26215772587E+03  0.26215772587E+03  0.00000000000E+00 0. -1.
         25    2    1    2    0    0  0.77825691425E+02  0.21949536787E+03  0.20030026995E+03  0.33163348818E+03  0.12500207030E+03 0.  0.
          2    1    1    2  501    0 -0.94315980825E+02 -0.15440209359E+03 -0.15395834416E+03  0.23756826909E+03  0.00000000000E+00 0. -1.
          1    1    1    2  502    0  0.16490289400E+02 -0.65093274275E+02  0.15481184523E+04  0.15495740725E+04  0.00000000000E+00 0. -1.
         22    1    3    3    0    0  0.14134805460E+02  0.22746401158E+02  0.96687659478E+02  0.10032793722E+03  0.00000000000E+00 0.  1.
         22    1    3    3    0    0  0.63690885965E+02  0.19674896671E+03  0.10361261047E+03  0.23130555096E+03  0.00000000000E+00 0.  1.
</event>
<event>
 7    1  0.6262315E-006  0.4125889E+02  0.7818608E-02  0.1544030E+00
          2   -1    0    0  502    0  0.00000000000E+00  0.00000000000E+00  0.14269957832E+03  0.14269957832E+03  0.00000000000E+00 0. -1.
          1   -1    0    0  501    0 -0.00000000000E+00 -0.00000000000E+00 -0.21212355668E+04  0.21212355668E+04  0.00000000000E+00 0. -1.
         25    2    1    2    0    0  0.41869230307E+02  0.10373864779E+02  0.52468695554E+02  0.14226391016E+03  0.12500162641E+03 0.  0.
          2    1    1    2  501    0 -0.39098882654E+01 -0.30328442078E+02 -0.20660573480E+04  0.20662836366E+04  0.00000000000E+00 0. -1.
          1    1    1    2  502    0 -0.37959342041E+02  0.19954577299E+02  0.35052663957E+02  0.55387598376E+02  0.00000000000E+00 0. -1.
         22    1    3    3    0    0  0.62201004250E+02  0.27566315983E+00  0.83309537992E+02  0.10396884168E+03  0.00000000000E+00 0.  1.
         22    1    3    3    0    0 -0.20331773943E+02  0.10098201619E+02 -0.30840842438E+02  0.38295068480E+02  0.00000000000E+00 0.  1.
</event>
<event>
 7    1  0.6262315E-006  0.1179352E+03  0.7818608E-02  0.1256205E+00
          2   -1    0    0  502    0  0.00000000000E+00  0.00000000000E+00  0.15279690248E+03  0.15279690248E+03  0.00000000000E+00 0. -1.
          1   -1    0    0  501    0 -0.00000000000E+00 -0.00000000000E+00 -0.23064933283E+04  0.23064933283E+04  0.00000000000E+00 0. -1.
         25    2    1    2    0    0  0.27816097972E+02 -0.59683622682E+02 -0.50131471675E+03  0.52083702829E+03  0.12497557636E+03 0.  0.
          2    1    1    2  501    0  0.85887678298E+02  0.90990988919E+02 -0.17685156553E+04  0.17729364559E+04  0.00000000000E+00 0. -1.
          1    1    1    2  502    0 -0.11370377627E+03 -0.31307366237E+02  0.11613394630E+03  0.16551674659E+03  0.00000000000E+00 0. -1.
         22    1    3    3    0    0  0.68549964004E+02 -0.10330599212E+02 -0.17354096680E+03  0.18687505453E+03  0.00000000000E+00 0.  1.
         22    1    3    3    0    0 -0.40733866031E+02 -0.49353023471E+02 -0.32777374994E+03  0.33396197376E+03  0.00000000000E+00 0.  1.
</event>
<event>
 7    1  0.6262315E-006  0.4935217E+02  0.7818608E-02  0.1511169E+00
          2   -1    0    0  502    0  0.00000000000E+00  0.00000000000E+00  0.62806117094E+03  0.62806117094E+03  0.00000000000E+00 0. -1.
          1   -1    0    0  501    0 -0.00000000000E+00 -0.00000000000E+00 -0.19830849114E+04  0.19830849114E+04  0.00000000000E+00 0. -1.
         25    2    1    2    0    0  0.19572293335E+02  0.35064486729E+02  0.11918130649E+03  0.17731529818E+03  0.12499575295E+03 0.  0.
          2    1    1    2  501    0  0.27079574667E+02 -0.16626302498E+02 -0.19525771710E+04  0.19528357192E+04  0.00000000000E+00 0. -1.
          1    1    1    2  502    0 -0.46651868003E+02 -0.18438184231E+02  0.47837212409E+03  0.48099506497E+03  0.00000000000E+00 0. -1.
         22    1    3    3    0    0  0.35167085603E+02  0.77961364292E+02  0.74090974848E+02  0.11315551593E+03  0.00000000000E+00 0. -1.
         22    1    3    3    0    0 -0.15594792268E+02 -0.42896877563E+02  0.45090331641E+02  0.64159782247E+02  0.00000000000E+00 0. -1.
</event>
<event>
 7    1  0.6262315E-006  0.4254410E+02  0.7818608E-02  0.1531186E+00
          2   -1    0    0  502    0  0.00000000000E+00  0.00000000000E+00  0.14631180897E+04  0.14631180897E+04  0.00000000000E+00 0. -1.
          1   -1    0    0  501    0 -0.00000000000E+00 -0.00000000000E+00 -0.23597109468E+03  0.23597109468E+03  0.00000000000E+00 0. -1.
         25    2    1    2    0    0  0.24795056412E+02 -0.61132012791E+02 -0.16756012401E+03  0.21921340613E+03  0.12500481774E+03 0.  0.
          2    1    1    2  501    0  0.58927414417E+01  0.31707448756E+02 -0.36116922331E+02  0.48420231174E+02  0.00000000000E+00 0. -1.
          1    1    1    2  502    0 -0.30687797854E+02  0.29424564035E+02  0.14308240413E+04  0.14314555470E+04  0.00000000000E+00 0. -1.
         22    1    3    3    0    0 -0.20585768089E+02 -0.84442268879E+02 -0.81394640928E+02  0.11907711028E+03  0.00000000000E+00 0.  1.
         22    1    3    3    0    0  0.45380824500E+02  0.23310256088E+02 -0.86165483083E+02  0.10013629585E+03  0.00000000000E+00 0.  1.
</event>
<event>
 7    1  0.6262315E-006  0.1070265E+03  0.7818608E-02  0.1321255E+00
          2   -1    0    0  502    0  0.00000000000E+00  0.00000000000E+00  0.75368214572E+03  0.75368214572E+03  0.00000000000E+00 0. -1.
          1   -1    0    0  501    0 -0.00000000000E+00 -0.00000000000E+00 -0.51121934368E+03  0.51121934368E+03  0.00000000000E+00 0. -1.
         25    2    1    2    0    0  0.59793710087E+02  0.10647439977E+03  0.21300097155E+03  0.27550734336E+03  0.12499118686E+03 0.  0.
          2    1    1    2  501    0 -0.64074655751E+02  0.48332695356E+00 -0.47215501018E+03  0.47648310438E+03  0.00000000000E+00 0. -1.
          1    1    1    2  502    0  0.42809456632E+01 -0.10695772672E+03  0.50161684068E+03  0.51291104166E+03  0.00000000000E+00 0. -1.
         22    1    3    3    0    0  0.53443701311E+02  0.24918475508E+01  0.13545400313E+03  0.14563730799E+03  0.00000000000E+00 0.  1.
         22    1    3    3    0    0  0.63500087769E+01  0.10398255222E+03  0.77546968420E+02  0.12987003538E+03  0.00000000000E+00 0.  1.
</event>
<event>
 7    1  0.6262315E-006  0.6379605E+02  0.7818608E-02  0.1439025E+00
          2   -1    0    0  502    0  0.00000000000E+00  0.00000000000E+00  0.10815982981E+04  0.10815982981E+04  0.00000000000E+00 0. -1.
          1   -1    0    0  501    0 -0.00000000000E+00 -0.00000000000E+00 -0.11784007532E+03  0.11784007532E+03  0.00000000000E+00 0. -1.
         25    2    1    2    0    0  0.95808146823E+02  0.25106467225E+02  0.25223774835E+03  0.29842565791E+03  0.12499782362E+03 0.  0.
          2    1    1    2  501    0 -0.33744991518E+02 -0.23419481580E+02 -0.89035082711E+02  0.98053263706E+02  0.00000000000E+00 0. -1.
          1    1    1    2  502    0 -0.62063155305E+02 -0.16869856449E+01  0.80055555716E+03  0.80295945182E+03  0.00000000000E+00 0. -1.
         22    1    3    3    0    0 -0.14064582030E+02  0.35553746439E+02  0.12127091654E+03  0.12715548180E+03  0.00000000000E+00 0. -1.
         22    1    3    3    0    0  0.10987272885E+03 -0.10447279214E+02  0.13096683182E+03  0.17127017611E+03  0.00000000000E+00 0. -1.
</event>
<event>
 7    1  0.6262315E-006  0.1362228E+03  0.7818608E-02  0.1240455E+00
          2   -1    0    0  502    0  0.00000000000E+00  0.00000000000E+00  0.19974609987E+03  0.19974609987E+03  0.00000000000E+00 0. -1.
          1   -1    0    0  501    0 -0.00000000000E+00 -0.00000000000E+00 -0.14545418514E+04  0.14545418514E+04  0.00000000000E+00 0. -1.
         25    2    1    2    0    0 -0.34924447768E+02 -0.32546192308E+01 -0.37854833705E+03  0.40019280675E+03  0.12500051798E+03 0.  0.
          2    1    1    2  501    0 -0.10579569357E+03 -0.24407575718E+02 -0.10346988871E+04  0.10403798564E+04  0.00000000000E+00 0. -1.
          1    1    1    2  502    0  0.14072014134E+03  0.27662194949E+02  0.15845147265E+03  0.21371528815E+03  0.00000000000E+00 0. -1.
         22    1    3    3    0    0 -0.22892988194E+02  0.55842378887E+02 -0.26318548324E+03  0.27001677499E+03  0.00000000000E+00 0.  1.
         22    1    3    3    0    0 -0.12031459574E+02 -0.59096998118E+02 -0.11536285381E+03  0.13017603176E+03  0.00000000000E+00 0.  1.
</event>
<event>
 7    1  0.6262315E-006  0.5402396E+02  0.7818608E-02  0.1489329E+00
          2   -1    0    0  502    0  0.00000000000E+00  0.00000000000E+00  0.26642115181E+02  0.26642115181E+02  0.00000000000E+00 0. -1.
          1   -1    0    0  501    0 -0.00000000000E+00 -0.00000000000E+00 -0.10352035518E+04  0.10352035518E+04  0.00000000000E+00 0. -1.
         25    2    1    2    0    0 -0.13873764694E+02  0.71048474239E+02 -0.25846514887E+03  0.29608856640E+03  0.12499535566E+03 0.  0.
          2    1    1    2  501    0  0.32114411684E+02 -0.42679568038E+02 -0.71532309598E+03  0.71731444472E+03  0.00000000000E+00 0. -1.
          1    1    1    2  502    0 -0.18240646990E+02 -0.28368906201E+02 -0.34773191811E+02  0.48442655897E+02  0.00000000000E+00 0. -1.
         22    1    3    3    0    0  0.43218146394E+02  0.72314458021E+02 -0.12306004956E+03  0.14913404982E+03  0.00000000000E+00 0.  1.
         22    1    3    3    0    0 -0.57091911089E+02 -0.12659837816E+01 -0.13540509931E+03  0.14695451659E+03  0.00000000000E+00 0.  1.
</event>
<event>
 7    1  0.6262315E-006  0.3442835E+02  0.7818608E-02  0.1609870E+00
          2   -1    0    0  502    0  0.00000000000E+00  0.00000000000E+00  0.17883111048E+04  0.17883111048E+04  0.00000000000E+00 0. -1.
          1   -1    0    0  501    0 -0.00000000000E+00 -0.00000000000E+00 -0.84255379434E+03  0.84255379434E+03  0.00000000000E+00 0. -1.
         25    2    1    2    0    0 -0.39534489330E+02 -0.15269703658E+01 -0.24982313950E+03  0.28213308947E+03  0.12498868612E+03 0.  0.
          2    1    1    2  501    0  0.11480042866E+02  0.21486759869E+02 -0.57615102261E+03  0.57666582445E+03  0.00000000000E+00 0. -1.
          1    1    1    2  502    0  0.28054446464E+02 -0.19959789504E+02  0.17717314726E+04  0.17720659852E+04  0.00000000000E+00 0. -1.
         22    1    3    3    0    0 -0.72939993726E+02  0.17960164713E+02 -0.87758110020E+02  0.11551751415E+03  0.00000000000E+00 0. -1.
         22    1    3    3    0    0  0.33405504396E+02 -0.19487135079E+02 -0.16206502948E+03  0.16661557531E+03  0.00000000000E+00 0. -1.
</event>
<event>
 7    1  0.6262315E-006  0.4049835E+02  0.7818608E-02  0.1506564E+00
          2   -1    0    0  502    0  0.00000000000E+00  0.00000000000E+00  0.16711978039E+04  0.16711978039E+04  0.00000000000E+00 0. -1.
          1   -1    0    0  501    0 -0.00000000000E+00 -0.00000000000E+00 -0.29223909532E+03  0.29223909532E+03  0.00000000000E+00 0. -1.
         25    2    1    2    0    0 -0.17449536554E+02 -0.34231093109E+02  0.28496241679E+03  0.31354044690E+03  0.12501111468E+03 0.  0.
          2    1    1    2  501    0  0.40572033803E+02  0.16489719776E+01 -0.27617432943E+03  0.27914345643E+03  0.00000000000E+00 0. -1.
          1    1    1    2  502    0 -0.23122497249E+02  0.32582121131E+02  0.13701706212E+04  0.13707529959E+04  0.00000000000E+00 0. -1.
         22    1    3    3    0    0  0.36297726443E+02 -0.47374444008E+02  0.72059844386E+02  0.93565399925E+02  0.00000000000E+00 0. -1.
         22    1    3    3    0    0 -0.53747262997E+02  0.13143350899E+02  0.21290257241E+03  0.21997504697E+03  0.00000000000E+00 0. -1.
</event>
<event>
 7    1  0.6262315E-006  0.1573455E+03  0.7818608E-02  0.1355900E+00
          2   -1    0    0  502    0  0.00000000000E+00  0.00000000000E+00  0.47623330156E+04  0.47623330156E+04  0.00000000000E+00 0. -1.
          1   -1    0    0  501    0 -0.00000000000E+00 -0.00000000000E+00 -0.13653695903E+04  0.13653695903E+04  0.00000000000E+00 0. -1.
         25    2    1    2    0    0 -0.11620378053E+03  0.93440175814E+02  0.54999236048E+03  0.58339551739E+03  0.12499739218E+03 0.  0.
          2    1    1    2  501    0 -0.24549152753E+02 -0.20932575642E+02 -0.13469810539E+04  0.13473673564E+04  0.00000000000E+00 0. -1.
          1    1    1    2  502    0  0.14075293328E+03 -0.72507600172E+02  0.41939521188E+04  0.41969397321E+04  0.00000000000E+00 0. -1.
         22    1    3    3    0    0 -0.13915970715E+03  0.55131339908E+02  0.41130810869E+03  0.43769766849E+03  0.00000000000E+00 0.  1.
         22    1    3    3    0    0  0.22955926622E+02  0.38308835906E+02  0.13868425180E+03  0.14569784889E+03  0.00000000000E+00 0.  1.
</event>
<event>
 7    1  0.6262315E-006  0.6691624E+02  0.7818608E-02  0.1465285E+00
          2   -1    0    0  502    0  0.00000000000E+00  0.00000000000E+00  0.33693199773E+03  0.33693199773E+03  0.00000000000E+00 0. -1.
          1   -1    0    0  501    0 -0.00000000000E+00 -0.00000000000E+00 -0.11814827500E+04  0.11814827500E+04  0.00000000000E+00 0. -1.
         25    2    1    2    0    0 -0.72078291516E+02  0.44844503335E+02  0.20836503958E+03  0.25738413569E+03  0.12499717596E+03 0.  0.
          2    1    1    2  501    0  0.32245905877E+02  0.16970364934E+01 -0.11477103896E+04  0.11481645425E+04  0.00000000000E+00 0. -1.
          1    1    1    2  502    0  0.39832385638E+02 -0.46541539829E+02  0.94794597764E+02  0.11286606948E+03  0.00000000000E+00 0. -1.
         22    1    3    3    0    0 -0.54239326798E+02  0.83137416199E+02  0.99227771231E+02  0.14035627926E+03  0.00000000000E+00 0.  1.
         22    1    3    3    0    0 -0.17838964718E+02 -0.38292912864E+02  0.10913726835E+03  0.11702785643E+03  0.00000000000E+00 0.  1.
</event>
<event>
 7    1  0.6262315E-006  0.4294766E+02  0.7818608E-02  0.1521079E+00
          2   -1    0    0  502    0  0.00000000000E+00  0.00000000000E+00  0.64006961784E+03  0.64006961784E+03  0.00000000000E+00 0. -1.
          1   -1    0    0  501    0 -0.00000000000E+00 -0.00000000000E+00 -0.79608990855E+02  0.79608990855E+02  0.00000000000E+00 0. -1.
         25    2    1    2    0    0 -0.17501926228E+02  0.19705346527E+02  0.68819372698E+02  0.14510511211E+03  0.12499907759E+03 0.  0.
          2    1    1    2  501    0  0.45912754865E+02 -0.73534421516E+00 -0.28018674083E+02  0.53791894257E+02  0.00000000000E+00 0. -1.
          1    1    1    2  502    0 -0.28410828637E+02 -0.18970002312E+02  0.51965992837E+03  0.52078160233E+03  0.00000000000E+00 0. -1.
         22    1    3    3    0    0  0.19320961544E+01 -0.47996752998E+02  0.55534869181E+02  0.73427127064E+02  0.00000000000E+00 0. -1.
         22    1    3    3    0    0 -0.19434022383E+02  0.67702099526E+02  0.13284503516E+02  0.71677985043E+02  0.00000000000E+00 0. -1.
</event>
<event>
 7    1  0.6262315E-006  0.9797534E+02  0.7818608E-02  0.1319860E+00
          2   -1    0    0  502    0  0.00000000000E+00  0.00000000000E+00  0.69942247220E+03  0.69942247220E+03  0.00000000000E+00 0. -1.
          1   -1    0    0  501    0 -0.00000000000E+00 -0.00000000000E+00 -0.75820215172E+03  0.75820215172E+03  0.00000000000E+00 0. -1.
         25    2    1    2    0    0  0.89367837214E+01  0.64464177756E+02 -0.15652718577E+02  0.14179627145E+03  0.12500271469E+03 0.  0.
          2    1    1    2  501    0 -0.79765840849E+02 -0.61965012083E+02 -0.67372784056E+03  0.68125726068E+03  0.00000000000E+00 0. -1.
          1    1    1    2  502    0  0.70829057127E+02 -0.24991656726E+01  0.63060087961E+03  0.63457109179E+03  0.00000000000E+00 0. -1.
         22    1    3    3    0    0  0.56131860769E+02  0.45942859369E+02  0.25091845985E+02  0.76753715580E+02  0.00000000000E+00 0. -1.
         22    1    3    3    0    0 -0.47195077048E+02  0.18521318387E+02 -0.40744564562E+02  0.65042555867E+02  0.00000000000E+00 0. -1.
</event>
<event>
 7    1  0.6262315E-006  0.7126193E+02  0.7818608E-02  0.1365793E+00
          2   -1    0    0  502    0  0.00000000000E+00  0.00000000000E+00  0.50605670387E+03  0.50605670387E+03  0.00000000000E+00 0. -1.
          1   -1    0    0  501    0 -0.00000000000E+00 -0.00000000000E+00 -0.23594948394E+04  0.23594948394E+04  0.00000000000E+00 0. -1.
         25    2    1    2    0    0  0.36824779223E+02  0.14826042583E+02  0.24427664190E+02  0.13340718090E+03  0.12499955693E+03 0.  0.
          2    1    1    2  501    0 -0.52406855110E+02  0.48853461574E+02 -0.23019289441E+04  0.23030436389E+04  0.00000000000E+00 0. -1.
          1    1    1    2  502    0  0.15582075887E+02 -0.63679504157E+02  0.42406314443E+03  0.42910072338E+03  0.00000000000E+00 0. -1.
         22    1    3    3    0    0  0.42003334524E+02  0.50063576023E+02  0.55809508860E+02  0.85938018563E+02  0.00000000000E+00 0.  1.
         22    1    3    3    0    0 -0.51785553012E+01 -0.35237533440E+02 -0.31381844670E+02  0.47469162335E+02  0.00000000000E+00 0.  1.
</event>
<event>
 7    1  0.6262315E-006  0.6357745E+02  0.7818608E-02  0.1450418E+00
          2   -1    0    0  502    0  0.00000000000E+00  0.00000000000E+00  0.24496348393E+03  0.24496348393E+03  0.00000000000E+00 0. -1.
          1   -1    0    0  501    0 -0.00000000000E+00 -0.00000000000E+00 -0.19183644840E+04  0.19183644840E+04  0.00000000000E+00 0. -1.
         25    2    1    2    0    0 -0.58773597326E+01  0.98546014132E+02 -0.20059759615E+00  0.15928063976E+03  0.12499768679E+03 0.  0.
          2    1    1    2  501    0 -0.11741433182E+01 -0.37856283843E+02 -0.18327800045E+04  0.18331713018E+04  0.00000000000E+00 0. -1.
          1    1    1    2  502    0  0.70515030509E+01 -0.60689730289E+02  0.15957960195E+03  0.17087602645E+03  0.00000000000E+00 0. -1.
         22    1    3    3    0    0 -0.22149081808E+02 -0.78385922184E+01 -0.38453031630E+02  0.45062856040E+02  0.00000000000E+00 0. -1.
         22    1    3    3    0    0  0.16271722076E+02  0.10638460635E+03  0.38252434034E+02  0.11421778372E+03  0.00000000000E+00 0. -1.
</event>
<event>
 7    1  0.6262315E-006  0.1415504E+03  0.7818608E-02  0.1223764E+00
          2   -1    0    0  502    0  0.00000000000E+00  0.00000000000E+00  0.80668820748E+03  0.80668820748E+03  0.00000000000E+00 0. -1.
          1   -1    0    0  501    0 -0.00000000000E+00 -0.00000000000E+00 -0.10791150053E+04  0.10791150053E+04  0.00000000000E+00 0. -1.
         25    2    1    2    0    0 -0.10778868529E+02 -0.10240983759E+02  0.94126968694E+02  0.15718098300E+03  0.12499965370E+03 0.  0.
          2    1    1    2  501    0 -0.53289520507E+02 -0.13113638225E+03 -0.10338583170E+04  0.10435034947E+04  0.00000000000E+00 0. -1.
          1    1    1    2  502    0  0.64068389036E+02  0.14137736601E+03  0.66730455049E+03  0.68511873511E+03  0.00000000000E+00 0. -1.
         22    1    3    3    0    0 -0.26795423773E+02 -0.53312004578E+02  0.88621718001E+01  0.60321659927E+02  0.00000000000E+00 0.  1.
         22    1    3    3    0    0  0.16016555245E+02  0.43071020820E+02  0.85264796894E+02  0.96859323070E+02  0.00000000000E+00 0.  1.
</event>
<event>
 7    1  0.6262315E-006  0.8845298E+02  0.7818608E-02  0.1366005E+00
          2   -1    0    0  502    0  0.00000000000E+00  0.00000000000E+00  0.91656213472E+03  0.91656213472E+03  0.00000000000E+00 0. -1.
          1   -1    0    0  501    0 -0.00000000000E+00 -0.00000000000E+00 -0.25749569696E+02  0.25749569696E+02  0.00000000000E+00 0. -1.
         25    2    1    2    0    0  0.55860821232E+02  0.96457054350E+02  0.41651996842E+03  0.44893011558E+03  0.12499987960E+03 0.  0.
          2    1    1    2  501    0 -0.50830381417E+02 -0.14003141013E+02  0.20744126772E+03  0.21403666786E+03  0.00000000000E+00 0. -1.
          1    1    1    2  502    0 -0.50304398151E+01 -0.82453913338E+02  0.26685132889E+03  0.27934492098E+03  0.00000000000E+00 0. -1.
         22    1    3    3    0    0  0.23828045131E+02  0.22398641289E+02  0.32612601839E+03  0.32776158216E+03  0.00000000000E+00 0.  1.
         22    1    3    3    0    0  0.32032776101E+02  0.74058413062E+02  0.90393950021E+02  0.12116853342E+03  0.00000000000E+00 0.  1.
</event>
<event>
 7    1  0.6262315E-006  0.1417584E+03  0.7818608E-02  0.1420535E+00
          2   -1    0    0  502    0  0.00000000000E+00  0.00000000000E+00  0.16047298182E+04  0.16047298182E+04  0.00000000000E+00 0. -1.
          1   -1    0    0  501    0 -0.00000000000E+00 -0.00000000000E+00 -0.64020960408E+03  0.64020960408E+03  0.00000000000E+00 0. -1.
         25    2    1    2    0    0  0.11156210840E+03 -0.47153697040E+02 -0.10900972257E+03  0.20536980105E+03  0.12499624152E+03 0.  0.
          2    1    1    2  501    0  0.20601154209E+02 -0.52827395609E+01 -0.47953661961E+03  0.48000800456E+03  0.00000000000E+00 0. -1.
          1    1    1    2  502    0 -0.13216326261E+03  0.52436436601E+02  0.15530665563E+04  0.15595616167E+04  0.00000000000E+00 0. -1.
         22    1    3    3    0    0 -0.22400304096E+02  0.13448894625E+02 -0.93740289487E+01  0.27758220565E+02  0.00000000000E+00 0. -1.
         22    1    3    3    0    0  0.13396241250E+03 -0.60602591664E+02 -0.99635693625E+02  0.17761158049E+03  0.00000000000E+00 0. -1.
</event>
<event>
 7    1  0.6262315E-006  0.9400042E+02  0.7818608E-02  0.1442409E+00
          2   -1    0    0  502    0  0.00000000000E+00  0.00000000000E+00  0.45842105582E+04  0.45842105582E+04  0.00000000000E+00 0. -1.
          1   -1    0    0  501    0 -0.00000000000E+00 -0.00000000000E+00 -0.20041548404E+02  0.20041548404E+02  0.00000000000E+00 0. -1.
         25    2    1    2    0    0  0.23495648733E+02  0.64564852878E+02  0.50321277628E+03  0.52303786326E+03  0.12499936980E+03 0.  0.
          2    1    1    2  501    0  0.14519098902E+02  0.22979113283E+02  0.97402041013E+01  0.28874131262E+02  0.00000000000E+00 0. -1.
          1    1    1    2  502    0 -0.38014747634E+02 -0.87543966161E+02  0.40512160294E+04  0.40523401121E+04  0.00000000000E+00 0. -1.
         22    1    3    3    0    0  0.57007256430E+02 -0.97527459763E+01  0.15580889778E+03  0.16619673874E+03  0.00000000000E+00 0.  1.
         22    1    3    3    0    0 -0.33511607698E+02  0.74317598854E+02  0.34740387850E+03  0.35684112452E+03  0.00000000000E+00 0.  1.
</event>
<event>
 7    1  0.6262315E-006  0.7887667E+02  0.7818608E-02  0.1406125E+00
          2   -1    0    0  502    0  0.00000000000E+00  0.00000000000E+00  0.41974753851E+03  0.41974753851E+03  0.00000000000E+00 0. -1.
          1   -1    0    0  501    0 -0.00000000000E+00 -0.00000000000E+00 -0.24306055140E+03  0.24306055140E+03  0.00000000000E+00 0. -1.
         25    2    1    2    0    0  0.35103935250E+00  0.62807634928E+02 -0.46320802844E+02  0.14735927253E+03  0.12499686472E+03 0.  0.
          2    1    1    2  501    0  0.42479395921E+02  0.47858008779E+01 -0.13862601797E+03  0.14506748715E+03  0.00000000000E+00 0. -1.
          1    1    1    2  502    0 -0.42830435274E+02 -0.67593435806E+02  0.36163380793E+03  0.37038133024E+03  0.00000000000E+00 0. -1.
         22    1    3    3    0    0  0.66502429640E+01  0.51678389457E+02 -0.88821434182E+02  0.10297635087E+03  0.00000000000E+00 0. -1.
         22    1    3    3    0    0 -0.62992036115E+01  0.11129245472E+02  0.42500631338E+02  0.44382921660E+02  0.00000000000E+00 0. -1.
</event>
<event>
 7    1  0.6262315E-006  0.2773723E+03  0.7818608E-02  0.1196886E+00
          2   -1    0    0  502    0  0.00000000000E+00  0.00000000000E+00  0.36286897879E+03  0.36286897879E+03  0.00000000000E+00 0. -1.
          1   -1    0    0  501    0 -0.00000000000E+00 -0.00000000000E+00 -0.87888847586E+03  0.87888847586E+03  0.00000000000E+00 0. -1.
         25    2    1    2    0    0 -0.26735308051E+03  0.46588364757E+02 -0.28095812388E+02  0.30010375027E+03  0.12499896346E+03 0.  0.
          2    1    1    2  501    0  0.13530499925E+02  0.83255551538E+02 -0.62122445899E+03  0.62692454868E+03  0.00000000000E+00 0. -1.
          1    1    1    2  502    0  0.25382258058E+03 -0.12984391630E+03  0.13330077431E+03  0.31472915569E+03  0.00000000000E+00 0. -1.
         22    1    3    3    0    0  0.62798664433E+01 -0.15438522533E+02  0.54387692513E+01  0.17531825676E+02  0.00000000000E+00 0. -1.
         22    1    3    3    0    0 -0.27363294695E+03  0.62026887290E+02 -0.33534581640E+02  0.28257192460E+03  0.00000000000E+00 0. -1.
</event>
<event>
 7    1  0.6262315E-006  0.8236220E+02  0.7818608E-02  0.1334688E+00
          2   -1    0    0  502    0  0.00000000000E+00  0.00000000000E+00  0.34022489869E+03  0.34022489869E+03  0.00000000000E+00 0. -1.
          1   -1    0    0  501    0 -0.00000000000E+00 -0.00000000000E+00 -0.46901155947E+03  0.46901155947E+03  0.00000000000E+00 0. -1.
         25    2    1    2    0    0  0.72688888984E+02 -0.72592223582E+02 -0.83475315252E+02  0.18206003991E+03  0.12499769745E+03 0.  0.
          2    1    1    2  501    0 -0.73254862577E+02 -0.10166893422E+02 -0.32613295212E+03  0.33441343135E+03  0.00000000000E+00 0. -1.
          1    1    1    2  502    0  0.56597359343E+00  0.82759117004E+02  0.28082160659E+03  0.29276298690E+03  0.00000000000E+00 0. -1.
         22    1    3    3    0    0  0.52382739334E+02  0.76667569608E+01 -0.83975700346E+02  0.99270583714E+02  0.00000000000E+00 0. -1.
         22    1    3    3    0    0  0.20306149650E+02 -0.80258980543E+02  0.50038509350E+00  0.82789456192E+02  0.00000000000E+00 0. -1.
</event>
<event>
 7    1  0.6262315E-006  0.6509520E+02  0.7818608E-02  0.1449085E+00
          2   -1    0    0  502    0  0.00000000000E+00  0.00000000000E+00  0.27379812462E+03  0.27379812462E+03  0.00000000000E+00 0. -1.
          1   -1    0    0  501    0 -0.00000000000E+00 -0.00000000000E+00 -0.32317303447E+03  0.32317303447E+03  0.00000000000E+00 0. -1.
         25    2    1    2    0    0 -0.50368412076E+02 -0.47177161298E+02 -0.16430249010E+02  0.14372814524E+03  0.12500066067E+03 0.  0.
          2    1    1    2  501    0  0.16693882011E+02  0.63349097766E+02 -0.23695309816E+03  0.24584256062E+03  0.00000000000E+00 0. -1.
          1    1    1    2  502    0  0.33674530065E+02 -0.16171936469E+02  0.20400843732E+03  0.20740045323E+03  0.00000000000E+00 0. -1.
         22    1    3    3    0    0  0.41734496197E+02 -0.19932056966E+02 -0.10922924541E+02  0.47522261607E+02  0.00000000000E+00 0. -1.
         22    1    3    3    0    0 -0.92102908273E+02 -0.27245104331E+02 -0.55073244688E+01  0.96205883631E+02  0.00000000000E+00 0. -1.
</event>
<event>
 7    1  0.6262315E-006  0.2004035E+03  0.7818608E-02  0.1257027E+00
          2   -1    0    0  502    0  0.00000000000E+00  0.00000000000E+00  0.18089917158E+04  0.18089917158E+04  0.00000000000E+00 0. -1.
          1   -1    0    0  501    0 -0.00000000000E+00 -0.00000000000E+00 -0.23532096156E+04  0.23532096156E+04  0.00000000000E+00 0. -1.
         25    2    1    2    0    0  0.78391685160E+02 -0.20088707410E+03 -0.32860962208E+03  0.41244419031E+03  0.12500021423E+03 0.  0.
          2    1    1    2  501    0 -0.15901072194E+02  0.19891555798E+03 -0.19771056952E+04  0.19871505160E+04  0.00000000000E+00 0. -1.
          1    1    1    2  502    0 -0.62490612966E+02  0.19715161257E+01  0.17614974174E+04  0.17626066251E+04  0.00000000000E+00 0. -1.
         22    1    3    3    0    0  0.10921161977E+03 -0.13236505044E+03 -0.25419078041E+03  0.30669306696E+03  0.00000000000E+00 0.  1.
         22    1    3    3    0    0 -0.30819934614E+02 -0.68522023661E+02 -0.74418841663E+02  0.10575112335E+03  0.00000000000E+00 0.  1.
</event>
<event>
 7    1  0.6262315E-006  0.1244285E+03  0.7818608E-02  0.1421055E+00
          2   -1    0    0  502    0  0.00000000000E+00  0.00000000000E+00  0.13807893974E+04  0.13807893974E+04  0.00000000000E+00 0. -1.
          1   -1    0    0  501    0 -0.00000000000E+00 -0.00000000000E+00 -0.12798150309E+03  0.12798150309E+03  0.00000000000E+00 0. -1.
         25    2    1    2    0    0  0.96083247841E+02 -0.96740608301E+02  0.99985965469E+02  0.21027017302E+03  0.12500246622E+03 0.  0.
          2    1    1    2  501    0 -0.96670041591E+02  0.72614451581E+02 -0.22458182507E+02  0.12297286482E+03  0.00000000000E+00 0. -1.
          1    1    1    2  502    0  0.58679374916E+00  0.24126156720E+02  0.11752801114E+04  0.11755278627E+04  0.00000000000E+00 0. -1.
         22    1    3    3    0    0  0.11482535901E+03 -0.10864928351E+03  0.69821173880E+02  0.17281355908E+03  0.00000000000E+00 0. -1.
         22    1    3    3    0    0 -0.18742111168E+02  0.11908675209E+02  0.30164791588E+02  0.37456613940E+02  0.00000000000E+00 0. -1.
</event>
<event>
 7    1  0.6262315E-006  0.1220460E+03  0.7818608E-02  0.1277270E+00
          2   -1    0    0  502    0  0.00000000000E+00  0.00000000000E+00  0.76861620805E+03  0.76861620805E+03  0.00000000000E+00 0. -1.
          1   -1    0    0  501    0 -0.00000000000E+00 -0.00000000000E+00 -0.16896724699E+04  0.16896724699E+04  0.00000000000E+00 0. -1.
         25    2    1    2    0    0 -0.15938906029E+02  0.40457460205E+02 -0.81852568308E+02  0.15561464907E+03  0.12500088502E+03 0.  0.
          2    1    1    2  501    0  0.36579781869E+02 -0.12222678217E+03 -0.15659058511E+04  0.15710947143E+04  0.00000000000E+00 0. -1.
          1    1    1    2  502    0 -0.20640875841E+02  0.81769321970E+02  0.72670215755E+03  0.73157931460E+03  0.00000000000E+00 0. -1.
         22    1    3    3    0    0 -0.57132657138E+02 -0.11529787716E+02 -0.12423391985E+02  0.59593768003E+02  0.00000000000E+00 0.  1.
         22    1    3    3    0    0  0.41193751109E+02  0.51987247921E+02 -0.69429176323E+02  0.96020881071E+02  0.00000000000E+00 0.  1.
</event>
<event>
 7    1  0.6262315E-006  0.4966915E+02  0.7818608E-02  0.1451229E+00
          2   -1    0    0  502    0  0.00000000000E+00  0.00000000000E+00  0.11698315974E+04  0.11698315974E+04  0.00000000000E+00 0. -1.
          1   -1    0    0  501    0 -0.00000000000E+00 -0.00000000000E+00 -0.59641336628E+03  0.59641336628E+03  0.00000000000E+00 0. -1.
         25    2    1    2    0    0  0.82529291982E+02  0.46724078570E+02  0.23134408146E+03  0.27953407425E+03  0.12499996435E+03 0.  0.
          2    1    1    2  501    0 -0.36472948419E+02 -0.31498107795E+02 -0.57065871045E+03  0.57268994279E+03  0.00000000000E+00 0. -1.
          1    1    1    2  502    0 -0.46056343563E+02 -0.15225970775E+02  0.91273286012E+03  0.91402094664E+03  0.00000000000E+00 0. -1.
         22    1    3    3    0    0  0.33368328922E+02  0.40309317946E+02  0.22324901961E+03  0.22929982827E+03  0.00000000000E+00 0. -1.
         22    1    3    3    0    0  0.49160963060E+02  0.64147606240E+01  0.80950618494E+01  0.50234245980E+02  0.00000000000E+00 0. -1.
</event>
<event>
 7    1  0.6262315E-006  0.5732386E+02  0.7818608E-02  0.1532355E+00
          2   -1    0    0  502    0  0.00000000000E+00  0.00000000000E+00  0.18106107727E+04  0.18106107727E+04  0.00000000000E+00 0. -1.
          1   -1    0    0  501    0 -0.00000000000E+00 -0.00000000000E+00 -0.38001238392E+03  0.38001238392E+03  0.00000000000E+00 0. -1.
         25    2    1    2    0    0  0.55557532862E+02 -0.24981573571E+02 -0.23717084056E+03  0.27492848357E+03  0.12499977997E+03 0.  0.
          2    1    1    2  501    0 -0.16555247360E+02 -0.17031455995E+02 -0.12236193506E+03  0.12464585777E+03  0.00000000000E+00 0. -1.
          1    1    1    2  502    0 -0.39002285502E+02  0.42013029566E+02  0.17901311644E+04  0.17910488153E+04  0.00000000000E+00 0. -1.
         22    1    3    3    0    0  0.32320277693E+02 -0.37924791226E+02 -0.16248857517E+02  0.52411024702E+02  0.00000000000E+00 0.  1.
         22    1    3    3    0    0  0.23237255169E+02  0.12943217655E+02 -0.22092198304E+03  0.22251745887E+03  0.00000000000E+00 0.  1.
</event>
<event>
 7    1  0.6262315E-006  0.6686329E+02  0.7818608E-02  0.1525240E+00
          2   -1    0    0  502    0  0.00000000000E+00  0.00000000000E+00  0.14154706344E+04  0.14154706344E+04  0.00000000000E+00 0. -1.
          1   -1    0    0  501    0 -0.00000000000E+00 -0.00000000000E+00 -0.21724889636E+02  0.21724889636E+02  0.00000000000E+00 0. -1.
         25    2    1    2    0    0  0.48482381684E+02  0.17736646152E+02  0.43081615596E+03  0.45154190255E+03  0.12498959783E+03 0.  0.
          2    1    1    2  501    0 -0.69477114488E+02 -0.13895353204E+02  0.10052776589E+03  0.12298773107E+03  0.00000000000E+00 0. -1.
          1    1    1    2  502    0  0.20994732804E+02 -0.38412929478E+01  0.86240182295E+03  0.86266589046E+03  0.00000000000E+00 0. -1.
         22    1    3    3    0    0  0.34749621361E+02 -0.33164864737E+02  0.36034195944E+03  0.36352960288E+03  0.00000000000E+00 0.  1.
         22    1    3    3    0    0  0.13732760322E+02  0.50901510889E+02  0.70474196522E+02  0.88012299664E+02  0.00000000000E+00 0.  1.
</event>
<event>
 7    1  0.6262315E-006  0.8816892E+02  0.7818608E-02  0.1321814E+00
          2   -1    0    0  502    0  0.00000000000E+00  0.00000000000E+00  0.28152744103E+03  0.28152744103E+03  0.00000000000E+00 0. -1.
          1   -1    0    0  501    0 -0.00000000000E+00 -0.00000000000E+00 -0.12576433957E+04  0.12576433957E+04  0.00000000000E+00 0. -1.
         25    2    1    2    0    0 -0.80867151070E+01 -0.54718454894E+02  0.89657139393E+02  0.16349014040E+03  0.12502447399E+03 0.  0.
          2    1    1    2  501    0 -0.84702467509E+02  0.24479579464E+02 -0.12035865282E+04  0.12068116210E+04  0.00000000000E+00 0. -1.
          1    1    1    2  502    0  0.92789182616E+02  0.30238875431E+02  0.13781343407E+03  0.16886907535E+03  0.00000000000E+00 0. -1.
         22    1    3    3    0    0 -0.24420616497E+02 -0.56216172627E+02 -0.10339403024E+02  0.62157282999E+02  0.00000000000E+00 0.  1.
         22    1    3    3    0    0  0.16333901390E+02  0.14977177323E+01  0.99996542417E+02  0.10133285740E+03  0.00000000000E+00 0.  1.
</event>
<event>
 7    1  0.6262315E-006  0.4069673E+02  0.7818608E-02  0.1523792E+00
          2   -1    0    0  502    0  0.00000000000E+00  0.00000000000E+00  0.13531040154E+04  0.13531040154E+04  0.00000000000E+00 0. -1.
          1   -1    0    0  501    0 -0.00000000000E+00 -0.00000000000E+00 -0.12386117432E+04  0.12386117432E+04  0.00000000000E+00 0. -1.
         25    2    1    2    0    0  0.34883222077E+02  0.58953669929E+02  0.27562428719E+03  0.31029947613E+03  0.12499857126E+03 0.  0.
          2    1    1    2  501    0 -0.29832585100E+02 -0.19067325087E+02 -0.12206361878E+04  0.12211495605E+04  0.00000000000E+00 0. -1.
          1    1    1    2  502    0 -0.50506369767E+01 -0.39886344842E+02  0.10595041729E+04  0.10602667220E+04  0.00000000000E+00 0. -1.
         22    1    3    3    0    0  0.79588069243E+02  0.44931855332E+02  0.14369641025E+03  0.17029912128E+03  0.00000000000E+00 0. -1.
         22    1    3    3    0    0 -0.44704847166E+02  0.14021814597E+02  0.13192787695E+03  0.14000035486E+03  0.00000000000E+00 0. -1.
</event>
<event>
 7    1  0.6262315E-006  0.8383847E+02  0.7818608E-02  0.1345694E+00
          2   -1    0    0  502    0  0.00000000000E+00  0.00000000000E+00  0.13606229494E+04  0.13606229494E+04  0.00000000000E+00 0. -1.
          1   -1    0    0  501    0 -0.00000000000E+00 -0.00000000000E+00 -0.35961647639E+03  0.35961647639E+03  0.00000000000E+00 0. -1.
         25    2    1    2    0    0 -0.82380335063E+02 -0.58808297097E+02  0.42366172629E+03  0.45316987254E+03  0.12501495767E+03 0.  0.
          2    1    1    2  501    0 -0.16480851028E+01  0.66029216359E+02 -0.33974710787E+03  0.34610788910E+03  0.00000000000E+00 0. -1.
          1    1    1    2  502    0  0.84028420166E+02 -0.72209192624E+01  0.91709185461E+03  0.92096166417E+03  0.00000000000E+00 0. -1.
         22    1    3    3    0    0 -0.11042393598E+03 -0.61498090586E+02  0.28645153696E+03  0.31309733919E+03  0.00000000000E+00 0. -1.
         22    1    3    3    0    0  0.28043600921E+02  0.26897934895E+01  0.13721018933E+03  0.14007253334E+03  0.00000000000E+00 0. -1.
</event>
<event>
 7    1  0.6262315E-006  0.8444839E+02  0.7818608E-02  0.1330571E+00
          2   -1    0    0  502    0  0.00000000000E+00  0.00000000000E+00  0.47427760793E+03  0.47427760793E+03  0.00000000000E+00 0. -1.
          1   -1    0    0  501    0 -0.00000000000E+00 -0.00000000000E+00 -0.15696760336E+03  0.15696760336E+03  0.00000000000E+00 0. -1.
         25    2    1    2    0    0  0.50966738244E+02 -0.58510186895E+02  0.16635873875E+03  0.22208924384E+03  0.12500940721E+03 0.  0.
          2    1    1    2  501    0 -0.87074432456E+02 -0.69742391695E+01 -0.10841321576E+03  0.13922651382E+03  0.00000000000E+00 0. -1.
          1    1    1    2  502    0  0.36107694212E+02  0.65484426065E+02  0.25936448157E+03  0.26992945364E+03  0.00000000000E+00 0. -1.
         22    1    3    3    0    0  0.40359250588E+02 -0.90807759999E+02  0.15869607325E+03  0.18724145387E+03  0.00000000000E+00 0.  1.
         22    1    3    3    0    0  0.10607487656E+02  0.32297573104E+02  0.76626655038E+01  0.34847789964E+02  0.00000000000E+00 0.  1.
</event>
<event>
 7    1  0.6262315E-006  0.1856802E+03  0.7818608E-02  0.1174164E+00
          2   -1    0    0  502    0  0.00000000000E+00  0.00000000000E+00  0.16833121133E+04  0.16833121133E+04  0.00000000000E+00 0. -1.
          1   -1    0    0  501    0 -0.00000000000E+00 -0.00000000000E+00 -0.41625750330E+03  0.41625750330E+03  0.00000000000E+00 0. -1.
         25    2    1    2    0    0 -0.99697096349E+02  0.29094221731E+03  0.32012885012E+03  0.46118612853E+03  0.12499311835E+03 0.  0.
          2    1    1    2  501    0  0.12374302663E+03 -0.13046364074E+03 -0.31680449907E+03  0.36427762603E+03  0.00000000000E+00 0. -1.
          1    1    1    2  502    0 -0.24045930285E+02 -0.16047857656E+03  0.12637302590E+04  0.12741058621E+04  0.00000000000E+00 0. -1.
         22    1    3    3    0    0 -0.39665264017E+02  0.25972934038E+03  0.23551037355E+03  0.35284245702E+03  0.00000000000E+00 0. -1.
         22    1    3    3    0    0 -0.60031832332E+02  0.31212876926E+02  0.84618476572E+02  0.10834367151E+03  0.00000000000E+00 0. -1.
</event>
<event>
 7    1  0.6262315E-006  0.2251766E+03  0.7818608E-02  0.1253646E+00
          2   -1    0    0  502    0  0.00000000000E+00  0.00000000000E+00  0.15749664817E+04  0.15749664817E+04  0.00000000000E+00 0. -1.
          1   -1    0    0  501    0 -0.00000000000E+00 -0.00000000000E+00 -0.10948770487E+04  0.10948770487E+04  0.00000000000E+00 0. -1.
         25    2    1    2    0    0 -0.26339884863E+03  0.45966384943E+02 -0.51363018280E+03  0.59239592834E+03  0.12500043691E+03 0.  0.
          2    1    1    2  501    0  0.50915436381E+02  0.26798889699E+02 -0.53209225477E+03  0.53519410473E+03  0.00000000000E+00 0. -1.
          1    1    1    2  502    0  0.21248341225E+03 -0.72765274642E+02  0.15258118705E+04  0.15422534973E+04  0.00000000000E+00 0. -1.
         22    1    3    3    0    0 -0.75597261107E+02 -0.11967480070E+02 -0.26292270769E+03  0.27383666059E+03  0.00000000000E+00 0. -1.
         22    1    3    3    0    0 -0.18780158752E+03  0.57933865013E+02 -0.25070747511E+03  0.31855926774E+03  0.00000000000E+00 0. -1.
</event>
<event>
 7    1  0.6262315E-006  0.7670846E+02  0.7818608E-02  0.1449477E+00
          2   -1    0    0  502    0  0.00000000000E+00  0.00000000000E+00  0.13289161168E+04  0.13289161168E+04  0.00000000000E+00 0. -1.
          1   -1    0    0  501    0 -0.00000000000E+00 -0.00000000000E+00 -0.90301860864E+03  0.90301860864E+03  0.00000000000E+00 0. -1.
         25    2    1    2    0    0  0.63390962134E+02 -0.47774647542E+02 -0.23370642432E+02  0.14990472458E+03  0.12499763396E+03 0.  0.
          2    1    1    2  501    0  0.11176713075E+02  0.29567538646E+02 -0.81491043706E+03  0.81552325454E+03  0.00000000000E+00 0. -1.
          1    1    1    2  502    0 -0.74567675210E+02  0.18207108896E+02  0.12641785876E+04  0.12665067463E+04  0.00000000000E+00 0. -1.
         22    1    3    3    0    0  0.86154960413E+02  0.92419048968E+01 -0.12201098745E+02  0.87504038881E+02  0.00000000000E+00 0. -1.
         22    1    3    3    0    0 -0.22763998278E+02 -0.57016552439E+02 -0.11169543687E+02  0.62400685700E+02  0.00000000000E+00 0. -1.
</event>
<event>
 7    1  0.6262315E-006  0.1820869E+03  0.7818608E-02  0.1229547E+00
          2   -1    0    0  502    0  0.00000000000E+00  0.00000000000E+00  0.96349366229E+03  0.96349366229E+03  0.00000000000E+00 0. -1.
          1   -1    0    0  501    0 -0.00000000000E+00 -0.00000000000E+00 -0.64230742459E+03  0.64230742459E+03  0.00000000000E+00 0. -1.
         25    2    1    2    0    0 -0.26102850573E+02 -0.14008236243E+03 -0.14263609020E+02  0.19008706853E+03  0.12500086402E+03 0.  0.
          2    1    1    2  501    0 -0.52828166824E+02  0.18501801036E+03 -0.52051706375E+03  0.55494188256E+03  0.00000000000E+00 0. -1.
          1    1    1    2  502    0  0.78931017397E+02 -0.44935647931E+02  0.85596691046E+03  0.86077213580E+03  0.00000000000E+00 0. -1.
         22    1    3    3    0    0 -0.93919454877E+01 -0.11042355984E+02  0.44876722304E+02  0.47159966820E+02  0.00000000000E+00 0.  1.
         22    1    3    3    0    0 -0.16710905086E+02 -0.12904000645E+03 -0.59140331324E+02  0.14292710171E+03  0.00000000000E+00 0.  1.
</event>
<event>
 7    1  0.6262315E-006  0.8573975E+02  0.7818608E-02  0.1315084E+00
          2   -1    0    0  502    0  0.00000000000E+00  0.00000000000E+00  0.16861386394E+04  0.16861386394E+04  0.00000000000E+00 0. -1.
          1   -1    0    0  501    0 -0.00000000000E+00 -0.00000000000E+00 -0.28952042665E+03  0.28952042665E+03  0.00000000000E+00 0. -1.
         25    2    1    2    0    0  0.20132952068E+02 -0.54240006086E+02  0.42176801339E+02  0.14405623582E+03  0.12500400989E+03 0.  0.
          2    1    1    2  501    0 -0.90988528708E+02  0.81419914573E+01 -0.22866694876E+03  0.24623926949E+03  0.00000000000E+00 0. -1.
          1    1    1    2  502    0  0.70855576641E+02  0.46098014629E+02  0.15831083601E+04  0.15853635607E+04  0.00000000000E+00 0. -1.
         22    1    3    3    0    0  0.59146209278E+02  0.87899215775E+01  0.21992492552E+01  0.59836222229E+02  0.00000000000E+00 0. -1.
         22    1    3    3    0    0 -0.39013257211E+02 -0.63029927664E+02  0.39977552084E+02  0.84220013596E+02  0.00000000000E+00 0. -1.
</event>
<event>
 7    1  0.6262315E-006  0.6825919E+02  0.7818608E-02  0.1443734E+00
          2   -1    0    0  502    0  0.00000000000E+00  0.00000000000E+00  0.24356657785E+03  0.24356657785E+03  0.00000000000E+00 0. -1.
          1   -1    0    0  501    0 -0.00000000000E+00 -0.00000000000E+00 -0.26253578594E+03  0.26253578594E+03  0.00000000000E+00 0. -1.
         25    2    1    2    0    0  0.34787356225E+02 -0.49882942217E+02 -0.36080670449E+02  0.14361333188E+03  0.12499802493E+03 0.  0.
          2    1    1    2  501    0 -0.31542955438E+02 -0.19464156711E+02 -0.16420513013E+03  0.16833637811E+03  0.00000000000E+00 0. -1.
          1    1    1    2  502    0 -0.32444007868E+01  0.69347098928E+02  0.18131659249E+03  0.19415265380E+03  0.00000000000E+00 0. -1.
         22    1    3    3    0    0 -0.37682801827E+02 -0.53595351321E+02 -0.88718833888E+01  0.66114790717E+02  0.00000000000E+00 0. -1.
         22    1    3    3    0    0  0.72470158052E+02  0.37124091038E+01 -0.27208787060E+02  0.77498541165E+02  0.00000000000E+00 0. -1.
</event>
<event>
 7    1  0.6482667E-006  0.5402251E+02  0.7818608E-02  0.1467138E+00
          2   -1    0    0  502    0  0.00000000000E+00  0.00000000000E+00  0.19454270664E+04  0.19454270664E+04  0.00000000000E+00 0. -1.
          1   -1    0    0  501    0 -0.00000000000E+00 -0.00000000000E+00 -0.55267335816E+03  0.55267335816E+03  0.00000000000E+00 0. -1.
         25    2    1    2    0    0 -0.67577634944E+02 -0.54701867581E+02 -0.26733312352E+03  0.30765407637E+03  0.12500000286E+03 0.  0.
          2    1    1    2  501    0  0.45163765201E+02  0.22216860806E+02 -0.26258707923E+03  0.26736740409E+03  0.00000000000E+00 0. -1.
          1    1    1    2  502    0  0.22413869742E+02  0.32485006775E+02  0.19226739110E+04  0.19230789441E+04  0.00000000000E+00 0. -1.
         22    1    3    3    0    0 -0.76081323895E+02  0.49687230382E+00 -0.72945602563E+02  0.10540244618E+03  0.00000000000E+00 0.  1.
         22    1    3    3    0    0  0.85036889514E+01 -0.55198739885E+02 -0.19438752096E+03  0.20225163019E+03  0.00000000000E+00 0.  1.
</event>
<event>
 7    1  0.6262315E-006  0.7074371E+02  0.7818608E-02  0.1420582E+00
          2   -1    0    0  502    0  0.00000000000E+00  0.00000000000E+00  0.35342816180E+03  0.35342816180E+03  0.00000000000E+00 0. -1.
          1   -1    0    0  501    0 -0.00000000000E+00 -0.00000000000E+00 -0.16168241162E+03  0.16168241162E+03  0.00000000000E+00 0. -1.
         25    2    1    2    0    0 -0.10210945217E+02  0.36498288199E+02  0.74589699225E+02  0.15041597784E+03  0.12499981887E+03 0.  0.
          2    1    1    2  501    0  0.47369022764E+02 -0.57335158036E+02 -0.11043928900E+03  0.13314646529E+03  0.00000000000E+00 0. -1.
          1    1    1    2  502    0 -0.37158077547E+02  0.20836869836E+02  0.22759533995E+03  0.23154813029E+03  0.00000000000E+00 0. -1.
         22    1    3    3    0    0 -0.60760436611E+02  0.45519398875E+02  0.27506863598E+02  0.80749451243E+02  0.00000000000E+00 0. -1.
         22    1    3    3    0    0  0.50549491394E+02 -0.90211106758E+01  0.47082835627E+02  0.69666526602E+02  0.00000000000E+00 0. -1.
</event>
<event>
 7    1  0.6262315E-006  0.6904545E+02  0.7818608E-02  0.1403633E+00
          2   -1    0    0  502    0  0.00000000000E+00  0.00000000000E+00  0.46179787022E+03  0.46179787022E+03  0.00000000000E+00 0. -1.
          1   -1    0    0  501    0 -0.00000000000E+00 -0.00000000000E+00 -0.56831730995E+03  0.56831730995E+03  0.00000000000E+00 0. -1.
         25    2    1    2    0    0 -0.12180682289E+02  0.42616249247E+02 -0.43383285701E+02  0.13954100446E+03  0.12500027491E+03 0.  0.
          2    1    1    2  501    0  0.46055952804E+02  0.18947155715E+02 -0.47255356442E+03  0.47517051334E+03  0.00000000000E+00 0. -1.
          1    1    1    2  502    0 -0.33875270514E+02 -0.61563404962E+02  0.40941741039E+03  0.41540366237E+03  0.00000000000E+00 0. -1.
         22    1    3    3    0    0 -0.59805594515E+02  0.12693310714E+02 -0.54853152680E+02  0.82138283590E+02  0.00000000000E+00 0.  1.
         22    1    3    3    0    0  0.47624912226E+02  0.29922938534E+02  0.11469866979E+02  0.57402720872E+02  0.00000000000E+00 0.  1.
</event>
<event>
 7    1  0.6262315E-006  0.6739534E+02  0.7818608E-02  0.1435309E+00
          2   -1    0    0  502    0  0.00000000000E+00  0.00000000000E+00  0.19239329317E+03  0.19239329317E+03  0.00000000000E+00 0. -1.
          1   -1    0    0  501    0 -0.00000000000E+00 -0.00000000000E+00 -0.52870742167E+03  0.52870742167E+03  0.00000000000E+00 0. -1.
         25    2    1    2    0    0  0.46416454559E+02  0.76984197373E+02  0.51253354550E+02  0.16227553765E+03  0.12500155946E+03 0.  0.
          2    1    1    2  501    0  0.52296514738E+01 -0.39637567339E+02 -0.46034905994E+03  0.46208196566E+03  0.00000000000E+00 0. -1.
          1    1    1    2  502    0 -0.51646106033E+02 -0.37346630034E+02  0.72781576891E+02  0.96743211535E+02  0.00000000000E+00 0. -1.
         22    1    3    3    0    0  0.26329269895E+02 -0.32284742391E+02  0.23218156889E+02  0.47692953922E+02  0.00000000000E+00 0. -1.
         22    1    3    3    0    0  0.20087184664E+02  0.10926893976E+03  0.28035197660E+02  0.11458258372E+03  0.00000000000E+00 0. -1.
</event>
<event>
 7    1  0.6262315E-006  0.4926932E+02  0.7818608E-02  0.1458786E+00
          2   -1    0    0  502    0  0.00000000000E+00  0.00000000000E+00  0.15607105133E+03  0.15607105133E+03  0.00000000000E+00 0. -1.
          1   -1    0    0  501    0 -0.00000000000E+00 -0.00000000000E+00 -0.15292515405E+03  0.15292515405E+03  0.00000000000E+00 0. -1.
         25    2    1    2    0    0 -0.55866207874E+02 -0.29103862759E+02  0.49820135707E+02  0.14856397791E+03  0.12498456545E+03 0.  0.
          2    1    1    2  501    0  0.13786019709E+02  0.47610338847E+02 -0.86444411445E+02  0.99646550240E+02  0.00000000000E+00 0. -1.
          1    1    1    2  502    0  0.42080188164E+02 -0.18506476088E+02  0.39770173019E+02  0.60785677220E+02  0.00000000000E+00 0. -1.
         22    1    3    3    0    0 -0.50266528702E+02  0.10154059644E+02  0.82525958900E+02  0.97161529050E+02  0.00000000000E+00 0.  1.
         22    1    3    3    0    0 -0.55996791716E+01 -0.39257922403E+02 -0.32705823193E+02  0.51402448862E+02  0.00000000000E+00 0.  1.
</event>
<event>
 7    1  0.6262315E-006  0.5659066E+02  0.7818608E-02  0.1479020E+00
          2   -1    0    0  502    0  0.00000000000E+00  0.00000000000E+00  0.23282970952E+03  0.23282970952E+03  0.00000000000E+00 0. -1.
          1   -1    0    0  501    0 -0.00000000000E+00 -0.00000000000E+00 -0.30111006223E+03  0.30111006223E+03  0.00000000000E+00 0. -1.
         25    2    1    2    0    0  0.59012747860E+02  0.65385533718E+02 -0.18739814018E+03  0.24187134591E+03  0.12500365036E+03 0.  0.
          2    1    1    2  501    0 -0.29852903126E+02 -0.17521127978E+02 -0.78959876495E+02  0.86213965497E+02  0.00000000000E+00 0. -1.
          1    1    1    2  502    0 -0.29159844734E+02 -0.47864405740E+02  0.19807766396E+03  0.20585446034E+03  0.00000000000E+00 0. -1.
         22    1    3    3    0    0 -0.28121748944E+02  0.58864691013E+02 -0.87675246020E+02  0.10928327126E+03  0.00000000000E+00 0. -1.
         22    1    3    3    0    0  0.87134496804E+02  0.65208427050E+01 -0.99722894156E+02  0.13258807466E+03  0.00000000000E+00 0. -1.
</event>
<event>
 7    1  0.6262315E-006  0.9039971E+02  0.7818608E-02  0.1353724E+00
          2   -1    0    0  502    0  0.00000000000E+00  0.00000000000E+00  0.10310405326E+04  0.10310405326E+04  0.00000000000E+00 0. -1.
          1   -1    0    0  501    0 -0.00000000000E+00 -0.00000000000E+00 -0.13373653301E+03  0.13373653301E+03  0.00000000000E+00 0. -1.
         25    2    1    2    0    0  0.23539601200E+02 -0.73201519702E+02  0.75404592348E+03  0.76819429445E+03  0.12499857595E+03 0.  0.
          2    1    1    2  501    0  0.52844473228E+02 -0.21888377046E+02 -0.10523208345E+03  0.11977241247E+03  0.00000000000E+00 0. -1.
          1    1    1    2  502    0 -0.76384074427E+02  0.95089896748E+02  0.24849015957E+03  0.27681035872E+03  0.00000000000E+00 0. -1.
         22    1    3    3    0    0  0.55838753425E+02 -0.81399633497E+02  0.37804843157E+03  0.39072302637E+03  0.00000000000E+00 0.  1.
         22    1    3    3    0    0 -0.32299152226E+02  0.81981137950E+01  0.37599749191E+03  0.37747126808E+03  0.00000000000E+00 0.  1.
</event>
<event>
 7    1  0.6262315E-006  0.3742658E+02  0.7818608E-02  0.1546119E+00
          2   -1    0    0  502    0  0.00000000000E+00  0.00000000000E+00  0.34003780656E+03  0.34003780656E+03  0.00000000000E+00 0. -1.
          1   -1    0    0  501    0 -0.00000000000E+00 -0.00000000000E+00 -0.19617220209E+04  0.19617220209E+04  0.00000000000E+00 0. -1.
         25    2    1    2    0    0 -0.52229836913E+02  0.47410593895E+02 -0.22930127777E+03  0.27051897608E+03  0.12500288059E+03 0.  0.
          2    1    1    2  501    0  0.24811200508E+02 -0.22148084008E+02 -0.17105618361E+04  0.17108851301E+04  0.00000000000E+00 0. -1.
          1    1    1    2  502    0  0.27418636405E+02 -0.25262509888E+02  0.31817889955E+03  0.32035572126E+03  0.00000000000E+00 0. -1.
         22    1    3    3    0    0 -0.38222104907E+02  0.69666412062E+02 -0.61002408480E+02  0.10017800214E+03  0.00000000000E+00 0. -1.
         22    1    3    3    0    0 -0.14007732006E+02 -0.22255818166E+02 -0.16829886929E+03  0.17034097394E+03  0.00000000000E+00 0. -1.
</event>
<event>
 7    1  0.6262315E-006  0.1021824E+03  0.7818608E-02  0.1296081E+00
          2   -1    0    0  502    0  0.00000000000E+00  0.00000000000E+00  0.16226449543E+04  0.16226449543E+04  0.00000000000E+00 0. -1.
          1   -1    0    0  501    0 -0.00000000000E+00 -0.00000000000E+00 -0.48583105517E+03  0.48583105517E+03  0.00000000000E+00 0. -1.
         25    2    1    2    0    0 -0.10408961411E+03  0.15243202980E+03  0.19386005834E+03  0.29542711525E+03  0.12500114692E+03 0.  0.
          2    1    1    2  501    0  0.57913943759E+02 -0.81808151616E+02 -0.42795982181E+03  0.43954090553E+03  0.00000000000E+00 0. -1.
          1    1    1    2  502    0  0.46175670349E+02 -0.70623878180E+02  0.13709136626E+04  0.13735079887E+04  0.00000000000E+00 0. -1.
         22    1    3    3    0    0 -0.10379034601E+03  0.63774208328E+02  0.15867223023E+03  0.20004115131E+03  0.00000000000E+00 0.  1.
         22    1    3    3    0    0 -0.29926810185E+00  0.88657821468E+02  0.35187828112E+02  0.95385963936E+02  0.00000000000E+00 0.  1.
</event>
<event>
 7    1  0.6262315E-006  0.1763209E+03  0.7818608E-02  0.1201459E+00
          2   -1    0    0  502    0  0.00000000000E+00  0.00000000000E+00  0.10529275780E+04  0.10529275780E+04  0.00000000000E+00 0. -1.
          1   -1    0    0  501    0 -0.00000000000E+00 -0.00000000000E+00 -0.90187526630E+03  0.90187526630E+03  0.00000000000E+00 0. -1.
         25    2    1    2    0    0  0.16769687143E+03  0.86340258675E+02 -0.36025404180E+03  0.42542425820E+03  0.12500377545E+03 0.  0.
          2    1    1    2  501    0 -0.73062554215E+02 -0.16990987107E+03 -0.48813254138E+03  0.52199701059E+03  0.00000000000E+00 0. -1.
          1    1    1    2  502    0 -0.94634317212E+02  0.83569612393E+02  0.99943889483E+03  0.10073815755E+04  0.00000000000E+00 0. -1.
         22    1    3    3    0    0  0.55246065494E+02 -0.26440543704E+02 -0.61072935912E+02  0.86493546609E+02  0.00000000000E+00 0.  1.
         22    1    3    3    0    0  0.11245080593E+03  0.11278080238E+03 -0.29918110588E+03  0.33893071159E+03  0.00000000000E+00 0.  1.
</event>
<event>
 7    1  0.6262315E-006  0.8255958E+02  0.7818608E-02  0.1378193E+00
          2   -1    0    0  502    0  0.00000000000E+00  0.00000000000E+00  0.17851239785E+04  0.17851239785E+04  0.00000000000E+00 0. -1.
          1   -1    0    0  501    0 -0.00000000000E+00 -0.00000000000E+00 -0.19473059250E+03  0.19473059250E+03  0.00000000000E+00 0. -1.
         25    2    1    2    0    0  0.73560424556E+02 -0.57788169048E+01  0.43659472195E+03  0.46008955237E+03  0.12499165645E+03 0.  0.
          2    1    1    2  501    0 -0.94410161340E+01 -0.50202543345E+02 -0.17803276540E+03  0.18521634296E+03  0.00000000000E+00 0. -1.
          1    1    1    2  502    0 -0.64119408422E+02  0.55981360250E+02  0.13318314294E+04  0.13345486756E+04  0.00000000000E+00 0. -1.
         22    1    3    3    0    0 -0.27358653483E+02  0.19840854153E+02  0.18052217631E+03  0.18365840998E+03  0.00000000000E+00 0. -1.
         22    1    3    3    0    0  0.10091907804E+03 -0.25619671058E+02  0.25607254564E+03  0.27643114240E+03  0.00000000000E+00 0. -1.
</event>
<event>
 7    1  0.6262315E-006  0.6637778E+02  0.7818608E-02  0.1394889E+00
          2   -1    0    0  502    0  0.00000000000E+00  0.00000000000E+00  0.46066151497E+03  0.46066151497E+03  0.00000000000E+00 0. -1.
          1   -1    0    0  501    0 -0.00000000000E+00 -0.00000000000E+00 -0.60114319329E+03  0.60114319329E+03  0.00000000000E+00 0. -1.
         25    2    1    2    0    0 -0.51075199604E+02  0.75857462610E+02  0.87816115799E+02  0.17804827164E+03  0.12500594462E+03 0.  0.
          2    1    1    2  501    0  0.62669066533E+02 -0.21560963355E+02 -0.55167807956E+03  0.55564466209E+03  0.00000000000E+00 0. -1.
          1    1    1    2  502    0 -0.11593866929E+02 -0.54296499255E+02  0.32338028544E+03  0.32811177454E+03  0.00000000000E+00 0. -1.
         22    1    3    3    0    0 -0.32238512583E+02 -0.28757894428E+02  0.53879373177E+01  0.43535824950E+02  0.00000000000E+00 0.  1.
         22    1    3    3    0    0 -0.18836687021E+02  0.10461535704E+03  0.82428178481E+02  0.13451244669E+03  0.00000000000E+00 0.  1.
</event>
<event>
 7    1  0.6262315E-006  0.8855395E+02  0.7818608E-02  0.1433551E+00
          2   -1    0    0  502    0  0.00000000000E+00  0.00000000000E+00  0.41527977651E+03  0.41527977651E+03  0.00000000000E+00 0. -1.
          1   -1    0    0  501    0 -0.00000000000E+00 -0.00000000000E+00 -0.86245650643E+03  0.86245650643E+03  0.00000000000E+00 0. -1.
         25    2    1    2    0    0  0.11518980433E+02 -0.78213595601E+02 -0.33831218965E+03  0.36922934036E+03  0.12500045867E+03 0.  0.
          2    1    1    2  501    0  0.30833172024E+02  0.21773641438E+00 -0.50328273582E+03  0.50422638177E+03  0.00000000000E+00 0. -1.
          1    1    1    2  502    0 -0.42352152457E+02  0.77995859187E+02  0.39441819554E+03  0.40428056080E+03  0.00000000000E+00 0. -1.
         22    1    3    3    0    0  0.28926633236E+02 -0.11130311003E+02 -0.83943863810E+01  0.32110740510E+02  0.00000000000E+00 0.  1.
         22    1    3    3    0    0 -0.17407652804E+02 -0.67083284598E+02 -0.32991780327E+03  0.33711859985E+03  0.00000000000E+00 0.  1.
</event>
<event>
 7    1  0.6262315E-006  0.1324515E+03  0.7818608E-02  0.1290564E+00
          2   -1    0    0  502    0  0.00000000000E+00  0.00000000000E+00  0.10315539615E+03  0.10315539615E+03  0.00000000000E+00 0. -1.
          1   -1    0    0  501    0 -0.00000000000E+00 -0.00000000000E+00 -0.10215312373E+04  0.10215312373E+04  0.00000000000E+00 0. -1.
         25    2    1    2    0    0 -0.23860628021E+02  0.16581549797E+03 -0.31541883681E+03  0.37838959221E+03  0.12500212774E+03 0.  0.
          2    1    1    2  501    0  0.63971236737E+02 -0.11025140290E+03 -0.65051290856E+03  0.66288365131E+03  0.00000000000E+00 0. -1.
          1    1    1    2  502    0 -0.40110608716E+02 -0.55564095074E+02  0.47555904224E+02  0.83413389929E+02  0.00000000000E+00 0. -1.
         22    1    3    3    0    0 -0.73933074107E+01  0.18298550207E+03 -0.25943755255E+03  0.31756290501E+03  0.00000000000E+00 0.  1.
         22    1    3    3    0    0 -0.16467320611E+02 -0.17170004097E+02 -0.55981284257E+02  0.60826687201E+02  0.00000000000E+00 0.  1.
</event>
<event>
 7    1  0.6262315E-006  0.1457842E+03  0.7818608E-02  0.1352386E+00
          2   -1    0    0  502    0  0.00000000000E+00  0.00000000000E+00  0.17295037793E+04  0.17295037793E+04  0.00000000000E+00 0. -1.
          1   -1    0    0  501    0 -0.00000000000E+00 -0.00000000000E+00 -0.34814504909E+03  0.34814504909E+03  0.00000000000E+00 0. -1.
         25    2    1    2    0    0  0.10795533016E+03 -0.95742971874E+02  0.59800879227E+02  0.20005630596E+03  0.12500124168E+03 0.  0.
          2    1    1    2  501    0 -0.13009727545E+03  0.67518067158E+02 -0.25848065340E+03  0.29714683013E+03  0.00000000000E+00 0. -1.
          1    1    1    2  502    0  0.22141945290E+02  0.28224904716E+02  0.15800385044E+04  0.15804456923E+04  0.00000000000E+00 0. -1.
         22    1    3    3    0    0 -0.42404985369E+01  0.25382764969E+02  0.62192752430E+01  0.26475384225E+02  0.00000000000E+00 0.  1.
         22    1    3    3    0    0  0.11219582870E+03 -0.12112573684E+03  0.53581603984E+02  0.17358092173E+03  0.00000000000E+00 0.  1.
</event>
<event>
 7    1  0.6262315E-006  0.2742231E+02  0.7818608E-02  0.1654475E+00
          2   -1    0    0  502    0  0.00000000000E+00  0.00000000000E+00  0.15244291254E+04  0.15244291254E+04  0.00000000000E+00 0. -1.
          1   -1    0    0  501    0 -0.00000000000E+00 -0.00000000000E+00 -0.17298220137E+04  0.17298220137E+04  0.00000000000E+00 0. -1.
         25    2    1    2    0    0  0.23288481650E+02 -0.32733004539E+01 -0.65136319584E+03  0.66366672296E+03  0.12500575343E+03 0.  0.
          2    1    1    2  501    0 -0.19303892468E+02 -0.20027393892E+02 -0.10720346251E+04  0.10723954374E+04  0.00000000000E+00 0. -1.
          1    1    1    2  502    0 -0.39845891819E+01  0.23300694346E+02  0.15180049327E+04  0.15181889787E+04  0.00000000000E+00 0. -1.
         22    1    3    3    0    0  0.27324350189E+02  0.37140454610E+02 -0.92749415730E+02  0.10357841281E+03  0.00000000000E+00 0. -1.
         22    1    3    3    0    0 -0.40358685385E+01 -0.40413755064E+02 -0.55861378011E+03  0.56008831015E+03  0.00000000000E+00 0. -1.
</event>
<event>
 7    1  0.6262315E-006  0.9681088E+02  0.7818608E-02  0.1412298E+00
          2   -1    0    0  502    0  0.00000000000E+00  0.00000000000E+00  0.46376701298E+03  0.46376701298E+03  0.00000000000E+00 0. -1.
          1   -1    0    0  501    0 -0.00000000000E+00 -0.00000000000E+00 -0.15064325199E+03  0.15064325199E+03  0.00000000000E+00 0. -1.
         25    2    1    2    0    0  0.84004360685E+02 -0.17766617917E+02  0.45764960180E+02  0.15839942368E+03  0.12499424194E+03 0.  0.
          2    1    1    2  501    0  0.13864480453E+02  0.30154744503E+02 -0.84394518092E+02  0.90686091096E+02  0.00000000000E+00 0. -1.
          1    1    1    2  502    0 -0.97868841139E+02 -0.12388126586E+02  0.35175331890E+03  0.36532475020E+03  0.00000000000E+00 0. -1.
         22    1    3    3    0    0  0.63084446898E+02 -0.39646710071E+02  0.82257382398E+02  0.11098552166E+03  0.00000000000E+00 0. -1.
         22    1    3    3    0    0  0.20919913787E+02  0.21880092154E+02 -0.36492422218E+02  0.47413902021E+02  0.00000000000E+00 0. -1.
</event>
<event>
 7    1  0.6262315E-006  0.2786625E+03  0.7818608E-02  0.1305008E+00
          2   -1    0    0  502    0  0.00000000000E+00  0.00000000000E+00  0.13338692893E+04  0.13338692893E+04  0.00000000000E+00 0. -1.
          1   -1    0    0  501    0 -0.00000000000E+00 -0.00000000000E+00 -0.80161147481E+03  0.80161147481E+03  0.00000000000E+00 0. -1.
         25    2    1    2    0    0  0.28652993965E+03 -0.61550122987E+02 -0.36713613195E+03  0.48610939257E+03  0.12500231281E+03 0.  0.
          2    1    1    2  501    0 -0.20502635481E+02 -0.19794757900E+02 -0.35923627964E+03  0.36036494712E+03  0.00000000000E+00 0. -1.
          1    1    1    2  502    0 -0.26602730417E+03  0.81344880887E+02  0.12586302261E+04  0.12890064245E+04  0.00000000000E+00 0. -1.
         22    1    3    3    0    0  0.43970606818E+01 -0.39082331259E+01  0.10002526229E+02  0.11604264723E+02  0.00000000000E+00 0.  1.
         22    1    3    3    0    0  0.28213287897E+03 -0.57641889861E+02 -0.37713865817E+03  0.47450512785E+03  0.00000000000E+00 0.  1.
</event>
<event>
 7    1  0.6262315E-006  0.1637826E+03  0.7818608E-02  0.1262049E+00
          2   -1    0    0  502    0  0.00000000000E+00  0.00000000000E+00  0.23510785401E+04  0.23510785401E+04  0.00000000000E+00 0. -1.
          1   -1    0    0  501    0 -0.00000000000E+00 -0.00000000000E+00 -0.22970349175E+03  0.22970349175E+03  0.00000000000E+00 0. -1.
         25    2    1    2    0    0  0.93885251496E+01 -0.17866208589E+03 -0.14507452989E+03  0.26208004991E+03  0.12502418965E+03 0.  0.
          2    1    1    2  501    0 -0.49848433774E+02  0.11812290099E+03  0.13562409748E+03  0.18663274607E+03  0.00000000000E+00 0. -1.
          1    1    1    2  502    0  0.40459908624E+02  0.60539184900E+02  0.21308254808E+04  0.21320692359E+04  0.00000000000E+00 0. -1.
         22    1    3    3    0    0  0.23400576300E+02 -0.10819001422E+02 -0.75621227222E+02  0.79894979627E+02  0.00000000000E+00 0. -1.
         22    1    3    3    0    0 -0.14012051151E+02 -0.16784308447E+03 -0.69453302671E+02  0.18218507028E+03  0.00000000000E+00 0. -1.
</event>
<event>
 7    1  0.6262315E-006  0.3754398E+02  0.7818608E-02  0.1581764E+00
          2   -1    0    0  502    0  0.00000000000E+00  0.00000000000E+00  0.39742150388E+02  0.39742150388E+02  0.00000000000E+00 0. -1.
          1   -1    0    0  501    0 -0.00000000000E+00 -0.00000000000E+00 -0.13310227559E+04  0.13310227559E+04  0.00000000000E+00 0. -1.
         25    2    1    2    0    0 -0.54637523681E+02 -0.29850591595E+02 -0.54547112531E+03  0.56306407411E+03  0.12500434471E+03 0.  0.
          2    1    1    2  501    0  0.19578509335E+02  0.17828823961E+02 -0.76534613048E+03  0.76580407706E+03  0.00000000000E+00 0. -1.
          1    1    1    2  502    0  0.35059014346E+02  0.12021767634E+02  0.19536650293E+02  0.41896755108E+02  0.00000000000E+00 0. -1.
         22    1    3    3    0    0 -0.17741518226E+02 -0.12881169213E+02 -0.69297690481E+01  0.22993644520E+02  0.00000000000E+00 0. -1.
         22    1    3    3    0    0 -0.36896005455E+02 -0.16969422382E+02 -0.53854135626E+03  0.54007042959E+03  0.00000000000E+00 0. -1.
</event>
<event>
 7    1  0.6262315E-006  0.1020241E+03  0.7818608E-02  0.1345774E+00
          2   -1    0    0  502    0  0.00000000000E+00  0.00000000000E+00  0.17591604681E+04  0.17591604681E+04  0.00000000000E+00 0. -1.
          1   -1    0    0  501    0 -0.00000000000E+00 -0.00000000000E+00 -0.23633536339E+02  0.23633536339E+02  0.00000000000E+00 0. -1.
         25    2    1    2    0    0  0.68436288164E+02  0.21227641880E+02  0.68173711834E+03  0.69679399663E+03  0.12498894712E+03 0.  0.
          2    1    1    2  501    0  0.48530162164E+02 -0.24222650048E+02  0.45081491282E+02  0.70528393369E+02  0.00000000000E+00 0. -1.
          1    1    1    2  502    0 -0.11696645033E+03  0.29950081676E+01  0.10087083221E+04  0.10154716144E+04  0.00000000000E+00 0. -1.
         22    1    3    3    0    0  0.88185634359E+02  0.27472201515E+02  0.66121795162E+03  0.66763808123E+03  0.00000000000E+00 0.  1.
         22    1    3    3    0    0 -0.19749346195E+02 -0.62445596347E+01  0.20519166725E+02  0.29155915408E+02  0.00000000000E+00 0.  1.
</event>
<event>
 7    1  0.6262315E-006  0.2032278E+03  0.7818608E-02  0.1374849E+00
          2   -1    0    0  502    0  0.00000000000E+00  0.00000000000E+00  0.11251041375E+04  0.11251041375E+04  0.00000000000E+00 0. -1.
          1   -1    0    0  501    0 -0.00000000000E+00 -0.00000000000E+00 -0.25500098700E+03  0.25500098700E+03  0.00000000000E+00 0. -1.
         25    2    1    2    0    0 -0.95183220931E+02  0.17706599682E+03  0.72036145010E+03  0.75825958724E+03  0.12499908032E+03 0.  0.
          2    1    1    2  501    0  0.15894221132E+02  0.14222654603E+02 -0.20768071294E+03  0.20877305548E+03  0.00000000000E+00 0. -1.
          1    1    1    2  502    0  0.79288999799E+02 -0.19128865142E+03  0.35742241336E+03  0.41307248181E+03  0.00000000000E+00 0. -1.
         22    1    3    3    0    0 -0.83554675689E+02  0.14903488450E+03  0.38115549744E+03  0.41769880759E+03  0.00000000000E+00 0.  1.
         22    1    3    3    0    0 -0.11628545242E+02  0.28031112313E+02  0.33920595265E+03  0.34056077965E+03  0.00000000000E+00 0.  1.
</event>
<event>
 7    1  0.6262315E-006  0.7152897E+02  0.7818608E-02  0.1394479E+00
          2   -1    0    0  502    0  0.00000000000E+00  0.00000000000E+00  0.34551580750E+03  0.34551580750E+03  0.00000000000E+00 0. -1.
          1   -1    0    0  501    0 -0.00000000000E+00 -0.00000000000E+00 -0.13012763566E+04  0.13012763566E+04  0.00000000000E+00 0. -1.
         25    2    1    2    0    0 -0.99851394713E+02  0.43071635357E+02 -0.79227244766E+03  0.80941102198E+03  0.12500041751E+03 0.  0.
          2    1    1    2  501    0  0.28456810698E+02 -0.43153056175E+02 -0.49529253047E+03  0.49798259716E+03  0.00000000000E+00 0. -1.
          1    1    1    2  502    0  0.71394584015E+02  0.81420817973E-01  0.33180442899E+03  0.33939854501E+03  0.00000000000E+00 0. -1.
         22    1    3    3    0    0  0.23490398453E+02 -0.13641226717E+02 -0.85243999641E+02  0.89467431843E+02  0.00000000000E+00 0. -1.
         22    1    3    3    0    0 -0.12334179317E+03  0.56712862074E+02 -0.70702844802E+03  0.71994359014E+03  0.00000000000E+00 0. -1.
</event>
<event>
 7    1  0.6262315E-006  0.2748886E+02  0.7818608E-02  0.1635888E+00
          2   -1    0    0  502    0  0.00000000000E+00  0.00000000000E+00  0.17904559087E+04  0.17904559087E+04  0.00000000000E+00 0. -1.
          1   -1    0    0  501    0 -0.00000000000E+00 -0.00000000000E+00 -0.10764104292E+02  0.10764104292E+02  0.00000000000E+00 0. -1.
         25    2    1    2    0    0  0.26495177740E+02 -0.31706992943E+02  0.93388511141E+03  0.94311909234E+03  0.12499957268E+03 0.  0.
          2    1    1    2  501    0 -0.26753977774E+02  0.55003693099E+01  0.25472088079E+02  0.37347779859E+02  0.00000000000E+00 0. -1.
          1    1    1    2  502    0  0.25880003407E+00  0.26206623633E+02  0.82033460487E+03  0.82075314075E+03  0.00000000000E+00 0. -1.
         22    1    3    3    0    0  0.61252196646E+02 -0.40696300092E+02  0.32673977110E+03  0.33491327005E+03  0.00000000000E+00 0.  1.
         22    1    3    3    0    0 -0.34757018906E+02  0.89893071491E+01  0.60714534031E+03  0.60820582229E+03  0.00000000000E+00 0.  1.
</event>
<event>
 7    1  0.6262315E-006  0.1300630E+03  0.7818608E-02  0.1353673E+00
          2   -1    0    0  502    0  0.00000000000E+00  0.00000000000E+00  0.12243283851E+04  0.12243283851E+04  0.00000000000E+00 0. -1.
          1   -1    0    0  501    0 -0.00000000000E+00 -0.00000000000E+00 -0.92348386687E+03  0.92348386687E+03  0.00000000000E+00 0. -1.
         25    2    1    2    0    0 -0.30795965774E+02  0.10790289871E+03  0.73595245276E+02  0.18339243662E+03  0.12500039449E+03 0.  0.
          2    1    1    2  501    0  0.31900877291E+02  0.23752594840E+02 -0.86417163191E+03  0.86508638941E+03  0.00000000000E+00 0. -1.
          1    1    1    2  502    0 -0.11049115174E+01 -0.13165549355E+03  0.10914209049E+04  0.10993334260E+04  0.00000000000E+00 0. -1.
         22    1    3    3    0    0  0.30745824606E+02  0.28260622359E+02  0.71403845869E+02  0.82719270498E+02  0.00000000000E+00 0. -1.
         22    1    3    3    0    0 -0.61541790380E+02  0.79642276350E+02  0.21913994065E+01  0.10067316612E+03  0.00000000000E+00 0. -1.
</event>
<event>
 7    1  0.6262315E-006  0.1963067E+03  0.7818608E-02  0.1363407E+00
          2   -1    0    0  502    0  0.00000000000E+00  0.00000000000E+00  0.71542140789E+03  0.71542140789E+03  0.00000000000E+00 0. -1.
          1   -1    0    0  501    0 -0.00000000000E+00 -0.00000000000E+00 -0.11220180271E+04  0.11220180271E+04  0.00000000000E+00 0. -1.
         25    2    1    2    0    0 -0.16008507557E+03  0.11336545313E+03  0.24432887110E+03  0.33734144528E+03  0.12499478417E+03 0.  0.
          2    1    1    2  501    0  0.14500870762E+03 -0.13239402989E+03 -0.10661920886E+04  0.10841223520E+04  0.00000000000E+00 0. -1.
          1    1    1    2  502    0  0.15076367948E+02  0.19028576764E+02  0.41526659820E+03  0.41597563773E+03  0.00000000000E+00 0. -1.
         22    1    3    3    0    0 -0.17330188375E+03  0.94522065603E+02  0.17331255735E+03  0.26268842062E+03  0.00000000000E+00 0.  1.
         22    1    3    3    0    0  0.13216808176E+02  0.18843387523E+02  0.71016313753E+02  0.74653024659E+02  0.00000000000E+00 0.  1.
</event>
<event>
 7    1  0.6262315E-006  0.7327425E+02  0.7818608E-02  0.1394979E+00
          2   -1    0    0  502    0  0.00000000000E+00  0.00000000000E+00  0.28104222650E+04  0.28104222650E+04  0.00000000000E+00 0. -1.
          1   -1    0    0  501    0 -0.00000000000E+00 -0.00000000000E+00 -0.11494196317E+03  0.11494196317E+03  0.00000000000E+00 0. -1.
         25    2    1    2    0    0  0.10865062050E+03  0.42605192731E+02  0.67470242790E+03  0.69603761043E+03  0.12499931655E+03 0.  0.
          2    1    1    2  501    0 -0.50207368992E+02 -0.22718052052E+01 -0.97588712300E+02  0.10977020437E+03  0.00000000000E+00 0. -1.
          1    1    1    2  502    0 -0.58443251505E+02 -0.40333387526E+02  0.21183665862E+04  0.21195564133E+04  0.00000000000E+00 0. -1.
         22    1    3    3    0    0  0.13339335481E+03  0.23770731071E+02  0.60024496896E+03  0.61534775333E+03  0.00000000000E+00 0.  1.
         22    1    3    3    0    0 -0.24742734317E+02  0.18834461660E+02  0.74457458936E+02  0.80689857099E+02  0.00000000000E+00 0.  1.
</event>
<event>
 7    1  0.6262315E-006  0.1991933E+03  0.7818608E-02  0.1358671E+00
          2   -1    0    0  502    0  0.00000000000E+00  0.00000000000E+00  0.15194486003E+04  0.15194486003E+04  0.00000000000E+00 0. -1.
          1   -1    0    0  501    0 -0.00000000000E+00 -0.00000000000E+00 -0.41878781454E+03  0.41878781454E+03  0.00000000000E+00 0. -1.
         25    2    1    2    0    0 -0.28395012947E+02  0.19180717104E+03 -0.22846774618E+03  0.32468139400E+03  0.12499691573E+03 0.  0.
          2    1    1    2  501    0 -0.24893371017E+02  0.29690597224E+00 -0.13431117076E+03  0.13659889701E+03  0.00000000000E+00 0. -1.
          1    1    1    2  502    0  0.53288383965E+02 -0.19210407702E+03  0.14634397027E+04  0.14769561238E+04  0.00000000000E+00 0. -1.
         22    1    3    3    0    0  0.19123325137E+02  0.12753910871E+03 -0.20353936940E+03  0.24095684408E+03  0.00000000000E+00 0.  1.
         22    1    3    3    0    0 -0.47518338084E+02  0.64268062331E+02 -0.24928376786E+02  0.83724549919E+02  0.00000000000E+00 0.  1.
</event>
<event>
 7    1  0.6262315E-006  0.5952291E+02  0.7818608E-02  0.1520948E+00
          2   -1    0    0  502    0  0.00000000000E+00  0.00000000000E+00  0.49613581857E+02  0.49613581857E+02  0.00000000000E+00 0. -1.
          1   -1    0    0  501    0 -0.00000000000E+00 -0.00000000000E+00 -0.18505485011E+04  0.18505485011E+04  0.00000000000E+00 0. -1.
         25    2    1    2    0    0 -0.42902694816E+02 -0.33887200045E+02 -0.34991323485E+03  0.37557124716E+03  0.12500202486E+03 0.  0.
          2    1    1    2  501    0  0.58186942471E+02  0.14521809293E+02 -0.14829944819E+04  0.14842066017E+04  0.00000000000E+00 0. -1.
          1    1    1    2  502    0 -0.15284247655E+02  0.19365390752E+02  0.31972797486E+02  0.40384234108E+02  0.00000000000E+00 0. -1.
         22    1    3    3    0    0 -0.37756794015E+02  0.44205098768E+02 -0.14474977511E+03  0.15598770351E+03  0.00000000000E+00 0. -1.
         22    1    3    3    0    0 -0.51459008009E+01 -0.78092298813E+02 -0.20516345974E+03  0.21958354364E+03  0.00000000000E+00 0. -1.
</event>
<event>
 7    1  0.6262315E-006  0.1571748E+03  0.7818608E-02  0.1364547E+00
          2   -1    0    0  502    0  0.00000000000E+00  0.00000000000E+00  0.19309632451E+04  0.19309632451E+04  0.00000000000E+00 0. -1.
          1   -1    0    0  501    0 -0.00000000000E+00 -0.00000000000E+00 -0.20019294786E+03  0.20019294786E+03  0.00000000000E+00 0. -1.
         25    2    1    2    0    0 -0.11302798289E+03 -0.14144655283E+03  0.51557919965E+03  0.56056153003E+03  0.12499946248E+03 0.  0.
          2    1    1    2  501    0  0.25075583549E+02  0.16530649511E+02 -0.17220910349E+03  0.17480853123E+03  0.00000000000E+00 0. -1.
          1    1    1    2  502    0  0.87952399346E+02  0.12491590332E+03  0.13874002011E+04  0.13957861317E+04  0.00000000000E+00 0. -1.
         22    1    3    3    0    0 -0.12238761180E+03 -0.60421680074E+02  0.35774561123E+03  0.38289871937E+03  0.00000000000E+00 0.  1.
         22    1    3    3    0    0  0.93596289014E+01 -0.81024872759E+02  0.15783358842E+03  0.17766281066E+03  0.00000000000E+00 0.  1.
</event>
<event>
 7    1  0.6262315E-006  0.4887619E+02  0.7818608E-02  0.1526872E+00
          2   -1    0    0  502    0  0.00000000000E+00  0.00000000000E+00  0.80861866966E+03  0.80861866966E+03  0.00000000000E+00 0. -1.
          1   -1    0    0  501    0 -0.00000000000E+00 -0.00000000000E+00 -0.11852658155E+03  0.11852658155E+03  0.00000000000E+00 0. -1.
         25    2    1    2    0    0 -0.31282531337E+02  0.70760762636E+02  0.41396241836E+03  0.43928947611E+03  0.12499871086E+03 0.  0.
          2    1    1    2  501    0  0.18834303320E+02 -0.44697265247E+02 -0.99724017362E+02  0.11089389587E+03  0.00000000000E+00 0. -1.
          1    1    1    2  502    0  0.12448228017E+02 -0.26063497388E+02  0.37585368712E+03  0.37696187923E+03  0.00000000000E+00 0. -1.
         22    1    3    3    0    0 -0.40893670173E+02 -0.25828100640E+02  0.16936966456E+03  0.17614047324E+03  0.00000000000E+00 0. -1.
         22    1    3    3    0    0  0.96111388360E+01  0.96588863276E+02  0.24459275380E+03  0.26314900287E+03  0.00000000000E+00 0. -1.
</event>
<event>
 7    1  0.6790043E-006  0.1250811E+03  0.7818608E-02  0.1341150E+00
          2   -1    0    0  502    0  0.00000000000E+00  0.00000000000E+00  0.82106270071E+03  0.82106270071E+03  0.00000000000E+00 0. -1.
          1   -1    0    0  501    0 -0.00000000000E+00 -0.00000000000E+00 -0.13980878599E+04  0.13980878599E+04  0.00000000000E+00 0. -1.
         25    2    1    2    0    0  0.82747997353E+02 -0.84559475855E+02 -0.37266293321E+03  0.41048766931E+03  0.12499971536E+03 0.  0.
          2    1    1    2  501    0 -0.11640679871E+03  0.53147898036E+02 -0.10017785831E+04  0.10099185964E+04  0.00000000000E+00 0. -1.
          1    1    1    2  502    0  0.33658801353E+02  0.31411577819E+02  0.79741635708E+03  0.79874429492E+03  0.00000000000E+00 0. -1.
         22    1    3    3    0    0  0.23781967319E+02 -0.87840647454E+02 -0.31525185264E+03  0.32812389719E+03  0.00000000000E+00 0. -1.
         22    1    3    3    0    0  0.58966030034E+02  0.32811715991E+01 -0.57411080571E+02  0.82363772117E+02  0.00000000000E+00 0. -1.
</event>
<event>
 7    1  0.6262315E-006  0.1057475E+03  0.7818608E-02  0.1392611E+00
          2   -1    0    0  502    0  0.00000000000E+00  0.00000000000E+00  0.25285276004E+04  0.25285276004E+04  0.00000000000E+00 0. -1.
          1   -1    0    0  501    0 -0.00000000000E+00 -0.00000000000E+00 -0.21026257584E+02  0.21026257584E+02  0.00000000000E+00 0. -1.
         25    2    1    2    0    0  0.50401299159E+02 -0.60968875490E+02  0.59153204280E+03  0.60974799841E+03  0.12499987671E+03 0.  0.
          2    1    1    2  501    0  0.42795632734E+01 -0.35231395148E+02  0.20252567049E+02  0.40862358449E+02  0.00000000000E+00 0. -1.
          1    1    1    2  502    0 -0.54680862432E+02  0.96200270639E+02  0.18957167330E+04  0.18989435011E+04  0.00000000000E+00 0. -1.
         22    1    3    3    0    0  0.14879284010E+02  0.19057899085E+02  0.38058101707E+03  0.38134827542E+03  0.00000000000E+00 0.  1.
         22    1    3    3    0    0  0.35522015149E+02 -0.80026774575E+02  0.21095102573E+03  0.22839972299E+03  0.00000000000E+00 0.  1.
</event>
<event>
 7    1  0.6262315E-006  0.9983395E+02  0.7818608E-02  0.1318590E+00
          2   -1    0    0  502    0  0.00000000000E+00  0.00000000000E+00  0.20214532819E+04  0.20214532819E+04  0.00000000000E+00 0. -1.
          1   -1    0    0  501    0 -0.00000000000E+00 -0.00000000000E+00 -0.33048541146E+03  0.33048541146E+03  0.00000000000E+00 0. -1.
         25    2    1    2    0    0  0.15624275782E+03 -0.36232134260E+02  0.18602245085E+03  0.27559812160E+03  0.12500162194E+03 0.  0.
          2    1    1    2  501    0 -0.69635658723E+02 -0.99866155488E+01 -0.27999779343E+03  0.28869988186E+03  0.00000000000E+00 0. -1.
          1    1    1    2  502    0 -0.86607099100E+02  0.46218749809E+02  0.17849432131E+04  0.17876406899E+04  0.00000000000E+00 0. -1.
         22    1    3    3    0    0  0.80947034266E+02 -0.75114154106E+02  0.14265878986E+03  0.18040534589E+03  0.00000000000E+00 0.  1.
         22    1    3    3    0    0  0.75295723557E+02  0.38882019845E+02  0.43363660989E+02  0.95192775711E+02  0.00000000000E+00 0.  1.
</event>
<event>
 7    1  0.6262315E-006  0.2691572E+03  0.7818608E-02  0.1185726E+00
          2   -1    0    0  502    0  0.00000000000E+00  0.00000000000E+00  0.12326139221E+04  0.12326139221E+04  0.00000000000E+00 0. -1.
          1   -1    0    0  501    0 -0.00000000000E+00 -0.00000000000E+00 -0.46680014816E+03  0.46680014816E+03  0.00000000000E+00 0. -1.
         25    2    1    2    0    0 -0.25833260026E+03  0.15995395727E+03  0.59028503603E+02  0.33381138380E+03  0.12499869965E+03 0.  0.
          2    1    1    2  501    0  0.87569749886E+02  0.44659663971E+02 -0.30440412908E+03  0.31988251043E+03  0.00000000000E+00 0. -1.
          1    1    1    2  502    0  0.17076285037E+03 -0.20461362125E+03  0.10111893994E+04  0.10457201760E+04  0.00000000000E+00 0. -1.
         22    1    3    3    0    0 -0.26713057492E+03  0.16718920654E+03  0.49582001902E+02  0.31901308712E+03  0.00000000000E+00 0.  1.
         22    1    3    3    0    0  0.87979746669E+01 -0.72352492657E+01  0.94465017012E+01  0.14798296678E+02  0.00000000000E+00 0.  1.
</event>
<event>
 7    1  0.6262315E-006  0.1723370E+03  0.7818608E-02  0.1342560E+00
          2   -1    0    0  502    0  0.00000000000E+00  0.00000000000E+00  0.10183317449E+04  0.10183317449E+04  0.00000000000E+00 0. -1.
          1   -1    0    0  501    0 -0.00000000000E+00 -0.00000000000E+00 -0.17742896785E+04  0.17742896785E+04  0.00000000000E+00 0. -1.
         25    2    1    2    0    0 -0.32988240163E+02 -0.13854990980E+03  0.11716835938E+03  0.22279564200E+03  0.12500068865E+03 0.  0.
          2    1    1    2  501    0  0.26948551299E+02  0.17100330281E+03 -0.17168003106E+04  0.17255062041E+04  0.00000000000E+00 0. -1.
          1    1    1    2  502    0  0.60396888640E+01 -0.32453393008E+02  0.84367401759E+03  0.84431957725E+03  0.00000000000E+00 0. -1.
         22    1    3    3    0    0 -0.78552989093E+02 -0.66517115189E+02  0.50893659327E+02  0.11482710163E+03  0.00000000000E+00 0.  1.
         22    1    3    3    0    0  0.45564748931E+02 -0.72032794608E+02  0.66274700050E+02  0.10796854038E+03  0.00000000000E+00 0.  1.
</event>
<event>
 7    1  0.6262315E-006  0.1313823E+03  0.7818608E-02  0.1430763E+00
          2   -1    0    0  502    0  0.00000000000E+00  0.00000000000E+00  0.91336635076E+02  0.91336635076E+02  0.00000000000E+00 0. -1.
          1   -1    0    0  501    0 -0.00000000000E+00 -0.00000000000E+00 -0.48831744467E+03  0.48831744467E+03  0.00000000000E+00 0. -1.
         25    2    1    2    0    0 -0.12312556379E+03 -0.35833544945E+02 -0.26802496096E+03  0.32234505776E+03  0.12500003663E+03 0.  0.
          2    1    1    2  501    0  0.34767695644E+01 -0.20938286703E+02 -0.12291797702E+03  0.12473703882E+03  0.00000000000E+00 0. -1.
          1    1    1    2  502    0  0.11964879423E+03  0.56771831648E+02 -0.60378716065E+01  0.13257198317E+03  0.00000000000E+00 0. -1.
         22    1    3    3    0    0 -0.87612208863E+02  0.23235990020E+02 -0.75871321251E+02  0.11820434748E+03  0.00000000000E+00 0. -1.
         22    1    3    3    0    0 -0.35513354930E+02 -0.59069534965E+02 -0.19215363971E+03  0.20414071028E+03  0.00000000000E+00 0. -1.
</event>
<event>
 7    1  0.6262315E-006  0.1042715E+03  0.7818608E-02  0.1396782E+00
          2   -1    0    0  502    0  0.00000000000E+00  0.00000000000E+00  0.41021445116E+03  0.41021445116E+03  0.00000000000E+00 0. -1.
          1   -1    0    0  501    0 -0.00000000000E+00 -0.00000000000E+00 -0.37147646156E+03  0.37147646156E+03  0.00000000000E+00 0. -1.
         25    2    1    2    0    0 -0.13535499460E+03 -0.24224281837E+02 -0.10406113531E+03  0.21298503704E+03  0.12500446283E+03 0.  0.
          2    1    1    2  501    0  0.34434678570E+02  0.51283053061E+01 -0.20403451895E+03  0.20698340882E+03  0.00000000000E+00 0. -1.
          1    1    1    2  502    0  0.10092031603E+03  0.19095976530E+02  0.34683364387E+03  0.36172246686E+03  0.00000000000E+00 0. -1.
         22    1    3    3    0    0 -0.11195838908E+03 -0.30001469121E+02 -0.13227924150E+03  0.17587656685E+03  0.00000000000E+00 0. -1.
         22    1    3    3    0    0 -0.23396605522E+02  0.57771872846E+01  0.28218106190E+02  0.37108470190E+02  0.00000000000E+00 0. -1.
</event>
<event>
 7    1  0.6262315E-006  0.1982236E+03  0.7818608E-02  0.1234231E+00
          2   -1    0    0  502    0  0.00000000000E+00  0.00000000000E+00  0.83884500142E+03  0.83884500142E+03  0.00000000000E+00 0. -1.
          1   -1    0    0  501    0 -0.00000000000E+00 -0.00000000000E+00 -0.31994343056E+03  0.31994343056E+03  0.00000000000E+00 0. -1.
         25    2    1    2    0    0  0.20231474745E+03 -0.12068253732E+03  0.93037051234E+02  0.28243148275E+03  0.12496446574E+03 0.  0.
          2    1    1    2  501    0 -0.75182590913E+02 -0.25857342101E+02 -0.20312423476E+03  0.21812950021E+03  0.00000000000E+00 0. -1.
          1    1    1    2  502    0 -0.12713215654E+03  0.14653987942E+03  0.62898875439E+03  0.65822744901E+03  0.00000000000E+00 0. -1.
         22    1    3    3    0    0  0.15209362012E+03 -0.26530035589E+02  0.26417524723E+02  0.15663396082E+03  0.00000000000E+00 0.  1.
         22    1    3    3    0    0  0.50221127329E+02 -0.94152501726E+02  0.66619526511E+02  0.12579752193E+03  0.00000000000E+00 0.  1.
</event>
<event>
 7    1  0.6262315E-006  0.1803068E+03  0.7818608E-02  0.1243837E+00
          2   -1    0    0  502    0  0.00000000000E+00  0.00000000000E+00  0.18704160609E+04  0.18704160609E+04  0.00000000000E+00 0. -1.
          1   -1    0    0  501    0 -0.00000000000E+00 -0.00000000000E+00 -0.31724958217E+03  0.31724958217E+03  0.00000000000E+00 0. -1.
         25    2    1    2    0    0  0.11072513693E+03  0.95330909367E+02  0.52383904715E+03  0.55801530127E+03  0.12500276358E+03 0.  0.
          2    1    1    2  501    0 -0.75578157810E+02 -0.16638291493E+03 -0.27102773383E+03  0.32688127022E+03  0.00000000000E+00 0. -1.
          1    1    1    2  502    0 -0.35146979118E+02  0.71052005562E+02  0.13003551654E+04  0.13027690716E+04  0.00000000000E+00 0. -1.
         22    1    3    3    0    0  0.58012679377E+02  0.43521195224E+02  0.44130321012E+03  0.44722263881E+03  0.00000000000E+00 0.  1.
         22    1    3    3    0    0  0.52712457551E+02  0.51809714142E+02  0.82535837030E+02  0.11079266246E+03  0.00000000000E+00 0.  1.
</event>
<event>
 7    1  0.6262315E-006  0.1127765E+03  0.7818608E-02  0.1403827E+00
          2   -1    0    0  502    0  0.00000000000E+00  0.00000000000E+00  0.72747439756E+03  0.72747439756E+03  0.00000000000E+00 0. -1.
          1   -1    0    0  501    0 -0.00000000000E+00 -0.00000000000E+00 -0.60978767160E+03  0.60978767160E+03  0.00000000000E+00 0. -1.
         25    2    1    2    0    0 -0.66038242152E+02 -0.62528577110E+02  0.34824999028E+02  0.15846302945E+03  0.12500751483E+03 0.  0.
          2    1    1    2  501    0  0.66354838914E+02  0.92970324874E+02 -0.54164164501E+03  0.55355407826E+03  0.00000000000E+00 0. -1.
          1    1    1    2  502    0 -0.31659676271E+00 -0.30441747764E+02  0.62450337194E+03  0.62524496144E+03  0.00000000000E+00 0. -1.
         22    1    3    3    0    0 -0.64212483667E+02 -0.78759406446E+02 -0.17973764073E+02  0.10319565571E+03  0.00000000000E+00 0.  1.
         22    1    3    3    0    0 -0.18257584849E+01  0.16230829336E+02  0.52798763101E+02  0.55267373739E+02  0.00000000000E+00 0.  1.
</event>
<event>
 7    1  0.6262315E-006  0.7792028E+02  0.7818608E-02  0.1405912E+00
          2   -1    0    0  502    0  0.00000000000E+00  0.00000000000E+00  0.13761217050E+03  0.13761217050E+03  0.00000000000E+00 0. -1.
          1   -1    0    0  501    0 -0.00000000000E+00 -0.00000000000E+00 -0.21251580993E+04  0.21251580993E+04  0.00000000000E+00 0. -1.
         25    2    1    2    0    0 -0.63776515625E+02  0.78896868642E+01 -0.41384885632E+03  0.43706495123E+03  0.12500081846E+03 0.  0.
          2    1    1    2  501    0  0.39917842089E+01  0.43161220388E+02 -0.16871333720E+04  0.16876900901E+04  0.00000000000E+00 0. -1.
          1    1    1    2  502    0  0.59784731416E+02 -0.51050907252E+02  0.11343629952E+03  0.13801522848E+03  0.00000000000E+00 0. -1.
         22    1    3    3    0    0  0.11011315691E+02 -0.34850849951E+02 -0.24295953113E+03  0.24569323267E+03  0.00000000000E+00 0.  1.
         22    1    3    3    0    0 -0.74787831316E+02  0.42740536815E+02 -0.17088932519E+03  0.19137171856E+03  0.00000000000E+00 0.  1.
</event>
<event>
 7    1  0.6262315E-006  0.8094178E+02  0.7818608E-02  0.1492196E+00
          2   -1    0    0  502    0  0.00000000000E+00  0.00000000000E+00  0.47989423227E+02  0.47989423227E+02  0.00000000000E+00 0. -1.
          1   -1    0    0  501    0 -0.00000000000E+00 -0.00000000000E+00 -0.15053659343E+04  0.15053659343E+04  0.00000000000E+00 0. -1.
         25    2    1    2    0    0 -0.93186124624E+01 -0.73538293487E+02 -0.11092205514E+04  0.11187000144E+04  0.12499909292E+03 0.  0.
          2    1    1    2  501    0 -0.22018924086E+02 -0.14436991230E+01 -0.35257818451E+03  0.35326801932E+03  0.00000000000E+00 0. -1.
          1    1    1    2  502    0  0.31337536548E+02  0.74981992610E+02  0.44222248639E+01  0.81387323862E+02  0.00000000000E+00 0. -1.
         22    1    3    3    0    0  0.32149056772E+02  0.23123846479E+02 -0.34836262349E+03  0.35060631993E+03  0.00000000000E+00 0.  1.
         22    1    3    3    0    0 -0.41467669234E+02 -0.96662139966E+02 -0.76085792795E+03  0.76809369443E+03  0.00000000000E+00 0.  1.
</event>
<event>
 7    1  0.6262315E-006  0.4432793E+02  0.7818608E-02  0.1503674E+00
          2   -1    0    0  502    0  0.00000000000E+00  0.00000000000E+00  0.49694921506E+03  0.49694921506E+03  0.00000000000E+00 0. -1.
          1   -1    0    0  501    0 -0.00000000000E+00 -0.00000000000E+00 -0.35088534464E+03  0.35088534464E+03  0.00000000000E+00 0. -1.
         25    2    1    2    0    0  0.49594970436E+02  0.63282063236E+02  0.34038582590E+01  0.14866459700E+03  0.12500118212E+03 0.  0.
          2    1    1    2  501    0 -0.18917040095E+02 -0.32063899449E+02 -0.27586341884E+03  0.27836410313E+03  0.00000000000E+00 0. -1.
          1    1    1    2  502    0 -0.30677930341E+02 -0.31218163787E+02  0.41852343100E+03  0.42080585958E+03  0.00000000000E+00 0. -1.
         22    1    3    3    0    0  0.86353709963E+02  0.64289304588E+02 -0.12923727736E+02  0.10843016484E+03  0.00000000000E+00 0.  1.
         22    1    3    3    0    0 -0.36758739528E+02 -0.10072413528E+01  0.16327585995E+02  0.40234432160E+02  0.00000000000E+00 0.  1.
</event>
<event>
 7    1  0.6262315E-006  0.1380164E+03  0.7818608E-02  0.1408908E+00
          2   -1    0    0  502    0  0.00000000000E+00  0.00000000000E+00  0.32584850272E+03  0.32584850272E+03  0.00000000000E+00 0. -1.
          1   -1    0    0  501    0 -0.00000000000E+00 -0.00000000000E+00 -0.25964907139E+04  0.25964907139E+04  0.00000000000E+00 0. -1.
         25    2    1    2    0    0 -0.16004507760E+03 -0.18382887903E+02 -0.18493034115E+04  0.18605109607E+04  0.12500227874E+03 0.  0.
          2    1    1    2  501    0  0.22626190505E+02  0.77108608241E+01 -0.72654713443E+03  0.72694025918E+03  0.00000000000E+00 0. -1.
          1    1    1    2  502    0  0.13741888710E+03  0.10672027079E+02  0.30520833480E+03  0.33488799668E+03  0.00000000000E+00 0. -1.
         22    1    3    3    0    0 -0.10465295171E+03  0.40945329832E+02 -0.13483100042E+04  0.13529850804E+04  0.00000000000E+00 0.  1.
         22    1    3    3    0    0 -0.55392125895E+02 -0.59328217735E+02 -0.50099340727E+03  0.50752588029E+03  0.00000000000E+00 0.  1.
</event>
<event>
 7    1  0.6262315E-006  0.7934914E+02  0.7818608E-02  0.1402398E+00
          2   -1    0    0  502    0  0.00000000000E+00  0.00000000000E+00  0.25646784276E+02  0.25646784276E+02  0.00000000000E+00 0. -1.
          1   -1    0    0  501    0 -0.00000000000E+00 -0.00000000000E+00 -0.13055295671E+04  0.13055295671E+04  0.00000000000E+00 0. -1.
         25    2    1    2    0    0 -0.35734214604E+02  0.33726715375E+02 -0.57658760404E+03  0.59202489473E+03  0.12500314165E+03 0.  0.
          2    1    1    2  501    0  0.55158669900E+02 -0.72937368385E+02 -0.68604985080E+03  0.69211757408E+03  0.00000000000E+00 0. -1.
          1    1    1    2  502    0 -0.19424455296E+02  0.39210653009E+02 -0.17245328004E+02  0.47033882584E+02  0.00000000000E+00 0. -1.
         22    1    3    3    0    0 -0.11571739477E+02  0.58816648063E+02 -0.12027951337E+03  0.13438922792E+03  0.00000000000E+00 0.  1.
         22    1    3    3    0    0 -0.24162475126E+02 -0.25089932687E+02 -0.45630809066E+03  0.45763566680E+03  0.00000000000E+00 0.  1.
</event>
<event>
 7    1  0.7019988E-006  0.7722623E+02  0.7818608E-02  0.1337876E+00
          2   -1    0    0  502    0  0.00000000000E+00  0.00000000000E+00  0.12371051317E+04  0.12371051317E+04  0.00000000000E+00 0. -1.
          1   -1    0    0  501    0 -0.00000000000E+00 -0.00000000000E+00 -0.84567754016E+03  0.84567754016E+03  0.00000000000E+00 0. -1.
         25    2    1    2    0    0  0.55990540194E+01 -0.67395549330E+02 -0.75865829546E+02  0.16109838446E+03  0.12499422349E+03 0.  0.
          2    1    1    2  501    0  0.67043371792E+02  0.42732734592E+02 -0.72378471498E+03  0.72813818327E+03  0.00000000000E+00 0. -1.
          1    1    1    2  502    0 -0.72642425811E+02  0.24662814738E+02  0.11910781360E+04  0.11935461041E+04  0.00000000000E+00 0. -1.
         22    1    3    3    0    0  0.10279673091E+02 -0.71089161255E+02  0.12177409096E+02  0.72853481860E+02  0.00000000000E+00 0.  1.
         22    1    3    3    0    0 -0.46806190717E+01  0.36936119251E+01 -0.88043238642E+02  0.88244902598E+02  0.00000000000E+00 0.  1.
</event>
<event>
 7    1  0.6262315E-006  0.1110899E+03  0.7818608E-02  0.1378851E+00
          2   -1    0    0  502    0  0.00000000000E+00  0.00000000000E+00  0.28547629252E+04  0.28547629252E+04  0.00000000000E+00 0. -1.
          1   -1    0    0  501    0 -0.00000000000E+00 -0.00000000000E+00 -0.36560862739E+03  0.36560862739E+03  0.00000000000E+00 0. -1.
         25    2    1    2    0    0  0.14079608565E+02 -0.14242483432E+03  0.72092935511E+02  0.20323900056E+03  0.12500252473E+03 0.  0.
          2    1    1    2  501    0 -0.20018559990E+02  0.32016461483E+02 -0.29771775785E+03  0.30010274889E+03  0.00000000000E+00 0. -1.
          1    1    1    2  502    0  0.59389514246E+01  0.11040837284E+03  0.27147791201E+04  0.27170298031E+04  0.00000000000E+00 0. -1.
         22    1    3    3    0    0  0.89101918351E+01  0.12337275159E+02 -0.18407337163E+02  0.23883675143E+02  0.00000000000E+00 0. -1.
         22    1    3    3    0    0  0.51694167304E+01 -0.15476210948E+03  0.90500272674E+02  0.17935532541E+03  0.00000000000E+00 0. -1.
</event>
<event>
 7    1  0.6262315E-006  0.9243816E+02  0.7818608E-02  0.1447347E+00
          2   -1    0    0  502    0  0.00000000000E+00  0.00000000000E+00  0.13645968980E+04  0.13645968980E+04  0.00000000000E+00 0. -1.
          1   -1    0    0  501    0 -0.00000000000E+00 -0.00000000000E+00 -0.11135985537E+03  0.11135985537E+03  0.00000000000E+00 0. -1.
         25    2    1    2    0    0 -0.59970429701E+02 -0.62707447497E+02  0.60135480812E+02  0.16361260116E+03  0.12499652313E+03 0.  0.
          2    1    1    2  501    0 -0.20642855796E+02  0.16849377163E+02 -0.54834802750E+02  0.60966257872E+02  0.00000000000E+00 0. -1.
          1    1    1    2  502    0  0.80613285497E+02  0.45858070334E+02  0.12479363646E+04  0.12513778944E+04  0.00000000000E+00 0. -1.
         22    1    3    3    0    0 -0.59485836057E+02 -0.93108521161E+02  0.70988967272E+02  0.13132857602E+03  0.00000000000E+00 0.  1.
         22    1    3    3    0    0 -0.48459364445E+00  0.30401073664E+02 -0.10853486461E+02  0.32284025141E+02  0.00000000000E+00 0.  1.
</event>
<event>
 7    1  0.6262315E-006  0.3731650E+02  0.7818608E-02  0.1533478E+00
          2   -1    0    0  502    0  0.00000000000E+00  0.00000000000E+00  0.28111761808E+04  0.28111761808E+04  0.00000000000E+00 0. -1.
          1   -1    0    0  501    0 -0.00000000000E+00 -0.00000000000E+00 -0.92206037061E+01  0.92206037061E+01  0.00000000000E+00 0. -1.
         25    2    1    2    0    0  0.10653610194E+01  0.46847221791E+01  0.16139108178E+04  0.16187511817E+04  0.12499671529E+03 0.  0.
          2    1    1    2  501    0 -0.36376556070E+02 -0.12739336650E+02  0.50517054395E+02  0.63541461382E+02  0.00000000000E+00 0. -1.
          1    1    1    2  502    0  0.35311195051E+02  0.80546144712E+01  0.11375277049E+04  0.11381041415E+04  0.00000000000E+00 0. -1.
         22    1    3    3    0    0 -0.46876198410E+02 -0.50714879680E+01  0.27989446895E+03  0.28383800259E+03  0.00000000000E+00 0. -1.
         22    1    3    3    0    0  0.47941559429E+02  0.97562101470E+01  0.13340163489E+04  0.13349131791E+04  0.00000000000E+00 0. -1.
</event>
<event>
 7    1  0.6262315E-006  0.7169374E+02  0.7818608E-02  0.1365266E+00
          2   -1    0    0  502    0  0.00000000000E+00  0.00000000000E+00  0.81464567864E+03  0.81464567864E+03  0.00000000000E+00 0. -1.
          1   -1    0    0  501    0 -0.00000000000E+00 -0.00000000000E+00 -0.64337155834E+02  0.64337155834E+02  0.00000000000E+00 0. -1.
         25    2    1    2    0    0  0.15771852756E+02  0.15084486476E+02  0.55728650849E+03  0.57155019018E+03  0.12500029711E+03 0.  0.
          2    1    1    2  501    0  0.14609281976E+02 -0.73056243513E+02 -0.25946691105E+02  0.78891549708E+02  0.00000000000E+00 0. -1.
          1    1    1    2  502    0 -0.30381134732E+02  0.57971757037E+02  0.21896870541E+03  0.22854109458E+03  0.00000000000E+00 0. -1.
         22    1    3    3    0    0  0.69950421073E+02  0.15901537865E+02  0.28193416682E+03  0.29091716129E+03  0.00000000000E+00 0.  1.
         22    1    3    3    0    0 -0.54178568317E+02 -0.81705138900E+00  0.27535234168E+03  0.28063302889E+03  0.00000000000E+00 0.  1.
</event>
<event>
 7    1  0.6262315E-006  0.9914854E+02  0.7818608E-02  0.1314642E+00
          2   -1    0    0  502    0  0.00000000000E+00  0.00000000000E+00  0.88790540309E+02  0.88790540309E+02  0.00000000000E+00 0. -1.
          1   -1    0    0  501    0 -0.00000000000E+00 -0.00000000000E+00 -0.10119207721E+04  0.10119207721E+04  0.00000000000E+00 0. -1.
         25    2    1    2    0    0  0.15624279338E+03  0.77634750097E+01 -0.13678042209E+03  0.24249842097E+03  0.12499807310E+03 0.  0.
          2    1    1    2  501    0 -0.72547711600E+02 -0.11095375518E+02 -0.76922587598E+03  0.77271904733E+03  0.00000000000E+00 0. -1.
          1    1    1    2  502    0 -0.83695081777E+02  0.33319005085E+01 -0.17123933705E+02  0.85493844107E+02  0.00000000000E+00 0. -1.
         22    1    3    3    0    0  0.11241087252E+03  0.63573547571E+02 -0.84003053879E+02  0.15405944720E+03  0.00000000000E+00 0. -1.
         22    1    3    3    0    0  0.43831920860E+02 -0.55810072562E+02 -0.52777368216E+02  0.88438973769E+02  0.00000000000E+00 0. -1.
</event>
<event>
 7    1  0.1054813E-005  0.1099414E+03  0.7818608E-02  0.1392482E+00
          2   -1    0    0  502    0  0.00000000000E+00  0.00000000000E+00  0.87649530594E+03  0.87649530594E+03  0.00000000000E+00 0. -1.
          1   -1    0    0  501    0 -0.00000000000E+00 -0.00000000000E+00 -0.18781093374E+04  0.18781093374E+04  0.00000000000E+00 0. -1.
         25    2    1    2    0    0 -0.10284639416E+03 -0.92203581709E+02 -0.39994580569E+03  0.44121719869E+03  0.12504834127E+03 0.  0.
          2    1    1    2  501    0  0.10857312800E+02  0.32401076709E+02 -0.14538097916E+04  0.14542113399E+04  0.00000000000E+00 0. -1.
          1    1    1    2  502    0  0.91989081357E+02  0.59802505000E+02  0.85214156584E+03  0.85917610472E+03  0.00000000000E+00 0. -1.
         22    1    3    3    0    0 -0.67988351644E+02 -0.39067298433E+02 -0.35455363781E+03  0.36312112559E+03  0.00000000000E+00 0.  1.
         22    1    3    3    0    0 -0.34858042513E+02 -0.53136283277E+02 -0.45392167888E+02  0.78096073101E+02  0.00000000000E+00 0.  1.
</event>
<event>
 7    1  0.6262315E-006  0.1117945E+03  0.7818608E-02  0.1380869E+00
          2   -1    0    0  502    0  0.00000000000E+00  0.00000000000E+00  0.15896539482E+03  0.15896539482E+03  0.00000000000E+00 0. -1.
          1   -1    0    0  501    0 -0.00000000000E+00 -0.00000000000E+00 -0.11597526946E+04  0.11597526946E+04  0.00000000000E+00 0. -1.
         25    2    1    2    0    0  0.12292634873E+03  0.80394577329E+02 -0.54900557743E+03  0.58189806119E+03  0.12499621707E+03 0.  0.
          2    1    1    2  501    0 -0.33436378820E+02 -0.15630274161E+02 -0.57221096096E+03  0.57340010529E+03  0.00000000000E+00 0. -1.
          1    1    1    2  502    0 -0.89489969908E+02 -0.64764303168E+02  0.12042923866E+03  0.16341992291E+03  0.00000000000E+00 0. -1.
         22    1    3    3    0    0  0.29585093372E+02 -0.15957878495E+02 -0.27546594297E+02  0.43459711150E+02  0.00000000000E+00 0. -1.
         22    1    3    3    0    0  0.93341255356E+02  0.96352455824E+02 -0.52145898314E+03  0.53843835004E+03  0.00000000000E+00 0. -1.
</event>
<event>
 7    1  0.6262315E-006  0.8980489E+02  0.7818608E-02  0.1306357E+00
          2   -1    0    0  502    0  0.00000000000E+00  0.00000000000E+00  0.18326680812E+03  0.18326680812E+03  0.00000000000E+00 0. -1.
          1   -1    0    0  501    0 -0.00000000000E+00 -0.00000000000E+00 -0.41736859247E+03  0.41736859247E+03  0.00000000000E+00 0. -1.
         25    2    1    2    0    0 -0.68958147126E+02  0.78173924031E+02 -0.13904100325E+03  0.21406293592E+03  0.12499660594E+03 0.  0.
          2    1    1    2  501    0  0.94262516195E+02  0.54286471080E+01 -0.21695652954E+03  0.23661155483E+03  0.00000000000E+00 0. -1.
          1    1    1    2  502    0 -0.25304369069E+02 -0.83602571139E+02  0.12189574844E+03  0.14996090985E+03  0.00000000000E+00 0. -1.
         22    1    3    3    0    0 -0.17019601584E+01  0.47522028232E+02 -0.13142101672E+03  0.13975952014E+03  0.00000000000E+00 0.  1.
         22    1    3    3    0    0 -0.67256186968E+02  0.30651895799E+02 -0.76199865298E+01  0.74303415778E+02  0.00000000000E+00 0.  1.
</event>
<event>
 7    1  0.6262315E-006  0.5256355E+02  0.7818608E-02  0.1453730E+00
          2   -1    0    0  502    0  0.00000000000E+00  0.00000000000E+00  0.19246415784E+04  0.19246415784E+04  0.00000000000E+00 0. -1.
          1   -1    0    0  501    0 -0.00000000000E+00 -0.00000000000E+00 -0.12280074348E+03  0.12280074348E+03  0.00000000000E+00 0. -1.
         25    2    1    2    0    0  0.44455956580E+02 -0.70986092011E+02  0.25317199104E+03  0.29451095823E+03  0.12500116053E+03 0.  0.
          2    1    1    2  501    0 -0.44905503599E+02  0.26278885151E+02 -0.95181051733E+02  0.10847357589E+03  0.00000000000E+00 0. -1.
          1    1    1    2  502    0  0.44954701867E+00  0.44707206860E+02  0.16438498956E+04  0.16444577878E+04  0.00000000000E+00 0. -1.
         22    1    3    3    0    0 -0.37856223873E+02 -0.24430834069E+02  0.36095814394E+02  0.57730989563E+02  0.00000000000E+00 0.  1.
         22    1    3    3    0    0  0.82312180453E+02 -0.46555257941E+02  0.21707617665E+03  0.23677996867E+03  0.00000000000E+00 0.  1.
</event>
<event>
 7    1  0.6262315E-006  0.2681576E+02  0.7818608E-02  0.1640190E+00
          2   -1    0    0  502    0  0.00000000000E+00  0.00000000000E+00  0.16371399057E+04  0.16371399057E+04  0.00000000000E+00 0. -1.
          1   -1    0    0  501    0 -0.00000000000E+00 -0.00000000000E+00 -0.32564802692E+03  0.32564802692E+03  0.00000000000E+00 0. -1.
         25    2    1    2    0    0 -0.24284984804E+01  0.42555900347E+01  0.78097175801E+03  0.79092736446E+03  0.12500080558E+03 0.  0.
          2    1    1    2  501    0 -0.25454523059E+02 -0.62533923440E+01 -0.31990455083E+03  0.32097657127E+03  0.00000000000E+00 0. -1.
          1    1    1    2  502    0  0.27883021539E+02  0.19978023093E+01  0.85042467162E+03  0.85088399691E+03  0.00000000000E+00 0. -1.
         22    1    3    3    0    0  0.41354290531E+01  0.50286242816E+02  0.64984880129E+03  0.65180462758E+03  0.00000000000E+00 0.  1.
         22    1    3    3    0    0 -0.65639275335E+01 -0.46030652781E+02  0.13112295671E+03  0.13912273688E+03  0.00000000000E+00 0.  1.
</event>
<event>
 7    1  0.6262315E-006  0.4688017E+02  0.7818608E-02  0.1470092E+00
          2   -1    0    0  502    0  0.00000000000E+00  0.00000000000E+00  0.47726041006E+02  0.47726041006E+02  0.00000000000E+00 0. -1.
          1   -1    0    0  501    0 -0.00000000000E+00 -0.00000000000E+00 -0.66349004392E+03  0.66349004392E+03  0.00000000000E+00 0. -1.
         25    2    1    2    0    0  0.41251966362E+02 -0.22549408188E+02 -0.18601595078E+03  0.22899240665E+03  0.12500155127E+03 0.  0.
          2    1    1    2  501    0 -0.46212156358E+01  0.47862472994E+02 -0.43476492994E+03  0.43741595337E+03  0.00000000000E+00 0. -1.
          1    1    1    2  502    0 -0.36630750726E+02 -0.25313064806E+02  0.50168778046E+01  0.44807724909E+02  0.00000000000E+00 0. -1.
         22    1    3    3    0    0 -0.30173945574E+02  0.28028883437E+02 -0.90573186206E+02  0.99496670083E+02  0.00000000000E+00 0.  1.
         22    1    3    3    0    0  0.71425911935E+02 -0.50578291625E+02 -0.95442764572E+02  0.12949573657E+03  0.00000000000E+00 0.  1.
</event>
<event>
 7    1  0.6262315E-006  0.3955208E+03  0.7818608E-02  0.1197323E+00
          2   -1    0    0  502    0  0.00000000000E+00  0.00000000000E+00  0.63592187566E+03  0.63592187566E+03  0.00000000000E+00 0. -1.
          1   -1    0    0  501    0 -0.00000000000E+00 -0.00000000000E+00 -0.87841445386E+03  0.87841445386E+03  0.00000000000E+00 0. -1.
         25    2    1    2    0    0  0.24123804495E+03  0.35555893314E+03 -0.69749577319E+02  0.45289050967E+03  0.12500744359E+03 0.  0.
          2    1    1    2  501    0 -0.24550941807E+03 -0.29684333974E+03 -0.55450077387E+03  0.67517549640E+03  0.00000000000E+00 0. -1.
          1    1    1    2  502    0  0.42713731259E+01 -0.58715593402E+02  0.38175777300E+03  0.38627032345E+03  0.00000000000E+00 0. -1.
         22    1    3    3    0    0  0.11082462586E+03  0.16315455642E+03  0.30821800140E+02  0.19962838060E+03  0.00000000000E+00 0. -1.
         22    1    3    3    0    0  0.13041341909E+03  0.19240437672E+03 -0.10057137746E+03  0.25326212907E+03  0.00000000000E+00 0. -1.
</event>
<event>
 7    1  0.6262315E-006  0.1397539E+03  0.7818608E-02  0.1333018E+00
          2   -1    0    0  502    0  0.00000000000E+00  0.00000000000E+00  0.11509877318E+03  0.11509877318E+03  0.00000000000E+00 0. -1.
          1   -1    0    0  501    0 -0.00000000000E+00 -0.00000000000E+00 -0.20094169983E+04  0.20094169983E+04  0.00000000000E+00 0. -1.
         25    2    1    2    0    0  0.33715897542E+02 -0.17862553588E+03 -0.18444010349E+03  0.28755144113E+03  0.12499534273E+03 0.  0.
          2    1    1    2  501    0 -0.26554714942E+02  0.13498226776E+03 -0.17627066631E+04  0.17680667820E+04  0.00000000000E+00 0. -1.
          1    1    1    2  502    0 -0.71611825998E+01  0.43643268119E+02  0.52828541416E+02  0.68897548407E+02  0.00000000000E+00 0. -1.
         22    1    3    3    0    0  0.24302319124E+02 -0.19740051884E+03 -0.17317706442E+03  0.26371928863E+03  0.00000000000E+00 0. -1.
         22    1    3    3    0    0  0.94135784178E+01  0.18774982961E+02 -0.11263039076E+02  0.23832152505E+02  0.00000000000E+00 0. -1.
</event>
<event>
 7    1  0.6262315E-006  0.1402876E+03  0.7818608E-02  0.1325301E+00
          2   -1    0    0  502    0  0.00000000000E+00  0.00000000000E+00  0.11530704235E+03  0.11530704235E+03  0.00000000000E+00 0. -1.
          1   -1    0    0  501    0 -0.00000000000E+00 -0.00000000000E+00 -0.41357382963E+03  0.41357382963E+03  0.00000000000E+00 0. -1.
         25    2    1    2    0    0 -0.53905489332E+02 -0.90090659034E+02 -0.18809637787E+03  0.24905075136E+03  0.12499560297E+03 0.  0.
          2    1    1    2  501    0 -0.19175699122E+02 -0.43082937337E+02 -0.11865767365E+03  0.12768512224E+03  0.00000000000E+00 0. -1.
          1    1    1    2  502    0  0.73081188454E+02  0.13317359637E+03  0.84872642451E+01  0.15214499838E+03  0.00000000000E+00 0. -1.
         22    1    3    3    0    0 -0.69886173477E+02  0.31795170965E+00 -0.98441383810E+02  0.12072648584E+03  0.00000000000E+00 0. -1.
         22    1    3    3    0    0  0.15980684146E+02 -0.90408610744E+02 -0.89654994062E+02  0.12832426553E+03  0.00000000000E+00 0. -1.
</event>
<event>
 7    1  0.6262315E-006  0.9419208E+02  0.7818608E-02  0.1421283E+00
          2   -1    0    0  502    0  0.00000000000E+00  0.00000000000E+00  0.28947386501E+03  0.28947386501E+03  0.00000000000E+00 0. -1.
          1   -1    0    0  501    0 -0.00000000000E+00 -0.00000000000E+00 -0.61338057743E+03  0.61338057743E+03  0.00000000000E+00 0. -1.
         25    2    1    2    0    0  0.68564392682E+02  0.25854144993E+02 -0.29665832406E+02  0.14790179675E+03  0.12500146844E+03 0.  0.
          2    1    1    2  501    0 -0.95514003026E+02 -0.89274944086E+01 -0.51908126445E+03  0.52787118129E+03  0.00000000000E+00 0. -1.
          1    1    1    2  502    0  0.26949610343E+02 -0.16926650585E+02  0.22484038444E+03  0.22708146439E+03  0.00000000000E+00 0. -1.
         22    1    3    3    0    0  0.68706165460E+02  0.54129032587E+02  0.20934374846E+02  0.89937408186E+02  0.00000000000E+00 0.  1.
         22    1    3    3    0    0 -0.14177277795E+00 -0.28274887594E+02 -0.50600207252E+02  0.57964388567E+02  0.00000000000E+00 0.  1.
</event>
<event>
 7    1  0.6262315E-006  0.6474156E+02  0.7818608E-02  0.1528323E+00
          2   -1    0    0  502    0  0.00000000000E+00  0.00000000000E+00  0.81640385578E+03  0.81640385578E+03  0.00000000000E+00 0. -1.
          1   -1    0    0  501    0 -0.00000000000E+00 -0.00000000000E+00 -0.35143435931E+03  0.35143435931E+03  0.00000000000E+00 0. -1.
         25    2    1    2    0    0 -0.48477896930E+02  0.41060776511E+02  0.10161133063E+03  0.17315885018E+03  0.12499212385E+03 0.  0.
          2    1    1    2  501    0  0.15594119578E+02  0.14941812808E+02 -0.31373567053E+03  0.31447814757E+03  0.00000000000E+00 0. -1.
          1    1    1    2  502    0  0.32883777352E+02 -0.56002589319E+02  0.67709383636E+03  0.68020121734E+03  0.00000000000E+00 0. -1.
         22    1    3    3    0    0 -0.28292008003E+02  0.74534382943E+02  0.19283186691E+02  0.82022272869E+02  0.00000000000E+00 0.  1.
         22    1    3    3    0    0 -0.20185888926E+02 -0.33473606432E+02  0.82328143943E+02  0.91136577313E+02  0.00000000000E+00 0.  1.
</event>
<event>
 7    1  0.6262315E-006  0.1240916E+03  0.7818608E-02  0.1308025E+00
          2   -1    0    0  502    0  0.00000000000E+00  0.00000000000E+00  0.28082816308E+03  0.28082816308E+03  0.00000000000E+00 0. -1.
          1   -1    0    0  501    0 -0.00000000000E+00 -0.00000000000E+00 -0.50745843512E+03  0.50745843512E+03  0.00000000000E+00 0. -1.
         25    2    1    2    0    0  0.86516796367E+01 -0.11606789468E+03  0.18356676981E+03  0.25073732759E+03  0.12500336290E+03 0.  0.
          2    1    1    2  501    0  0.53529095294E+02  0.11293059433E+03 -0.44773419544E+03  0.46484900016E+03  0.00000000000E+00 0. -1.
          1    1    1    2  502    0 -0.62180774931E+02  0.31373003442E+01  0.37537153591E+02  0.72700270455E+02  0.00000000000E+00 0. -1.
         22    1    3    3    0    0  0.40084612300E+02 -0.51106708368E+01  0.10134517851E+03  0.10910426347E+03  0.00000000000E+00 0.  1.
         22    1    3    3    0    0 -0.31432932663E+02 -0.11095722384E+03  0.82221591297E+02  0.14163306412E+03  0.00000000000E+00 0.  1.
</event>
<event>
 7    1  0.6262315E-006  0.1725779E+03  0.7818608E-02  0.1311187E+00
          2   -1    0    0  502    0  0.00000000000E+00  0.00000000000E+00  0.14795024264E+04  0.14795024264E+04  0.00000000000E+00 0. -1.
          1   -1    0    0  501    0 -0.00000000000E+00 -0.00000000000E+00 -0.24538344265E+04  0.24538344265E+04  0.00000000000E+00 0. -1.
         25    2    1    2    0    0 -0.77670935975E+02 -0.12999735619E+03 -0.61388679891E+02  0.20573111237E+03  0.12499853466E+03 0.  0.
          2    1    1    2  501    0  0.25194391741E+02 -0.35462237801E+02 -0.23147169436E+04  0.23151256676E+04  0.00000000000E+00 0. -1.
          1    1    1    2  502    0  0.52476544233E+02  0.16545959399E+03  0.14017736234E+04  0.14124800729E+04  0.00000000000E+00 0. -1.
         22    1    3    3    0    0  0.17139887974E+02 -0.60597452143E+02  0.16078771404E+02  0.64995029470E+02  0.00000000000E+00 0. -1.
         22    1    3    3    0    0 -0.94810823949E+02 -0.69399904050E+02 -0.77467451295E+02  0.14073608290E+03  0.00000000000E+00 0. -1.
</event>
<event>
 7    1  0.6262315E-006  0.6606135E+02  0.7818608E-02  0.1502605E+00
          2   -1    0    0  502    0  0.00000000000E+00  0.00000000000E+00  0.39940936533E+03  0.39940936533E+03  0.00000000000E+00 0. -1.
          1   -1    0    0  501    0 -0.00000000000E+00 -0.00000000000E+00 -0.95720794703E+03  0.95720794703E+03  0.00000000000E+00 0. -1.
         25    2    1    2    0    0 -0.85756203608E+02  0.52597263574E+01 -0.23912218506E+03  0.28317385970E+03  0.12500489692E+03 0.  0.
          2    1    1    2  501    0  0.64308337821E+02  0.79014581357E+01 -0.69413007171E+03  0.69714743907E+03  0.00000000000E+00 0. -1.
          1    1    1    2  502    0  0.21447865786E+02 -0.13161184493E+02  0.37545367506E+03  0.37629601359E+03  0.00000000000E+00 0. -1.
         22    1    3    3    0    0 -0.10379870403E+03  0.35901557014E+02 -0.21086532554E+03  0.23775465982E+03  0.00000000000E+00 0.  1.
         22    1    3    3    0    0  0.18042500424E+02 -0.30641830657E+02 -0.28256859521E+02  0.45419199878E+02  0.00000000000E+00 0.  1.
</event>
<event>
 7    1  0.6262315E-006  0.8528846E+02  0.7818608E-02  0.1357200E+00
          2   -1    0    0  502    0  0.00000000000E+00  0.00000000000E+00  0.10623623664E+04  0.10623623664E+04  0.00000000000E+00 0. -1.
          1   -1    0    0  501    0 -0.00000000000E+00 -0.00000000000E+00 -0.46582414964E+03  0.46582414964E+03  0.00000000000E+00 0. -1.
         25    2    1    2    0    0 -0.46077540826E+02 -0.68404677288E+02 -0.20633687680E+03  0.25495555890E+03  0.12500036257E+03 0.  0.
          2    1    1    2  501    0  0.87574163694E+02  0.26648570898E+02 -0.22539656500E+03  0.24327554746E+03  0.00000000000E+00 0. -1.
          1    1    1    2  502    0 -0.41496622868E+02  0.41756106390E+02  0.10282716586E+04  0.10299554097E+04  0.00000000000E+00 0. -1.
         22    1    3    3    0    0 -0.32043014728E+02 -0.19980911718E+02 -0.20070368946E+03  0.20422527411E+03  0.00000000000E+00 0.  1.
         22    1    3    3    0    0 -0.14034526099E+02 -0.48423765570E+02 -0.56331873471E+01  0.50730284786E+02  0.00000000000E+00 0.  1.
</event>
<event>
 7    1  0.6262315E-006  0.1715211E+03  0.7818608E-02  0.1305375E+00
          2   -1    0    0  502    0  0.00000000000E+00  0.00000000000E+00  0.56631624687E+03  0.56631624687E+03  0.00000000000E+00 0. -1.
          1   -1    0    0  501    0 -0.00000000000E+00 -0.00000000000E+00 -0.42788944502E+03  0.42788944502E+03  0.00000000000E+00 0. -1.
         25    2    1    2    0    0  0.17126372129E+03 -0.12268684859E+03  0.92043732651E+01  0.24513938342E+03  0.12500108707E+03 0.  0.
          2    1    1    2  501    0 -0.42965545027E+02  0.16834314337E+02 -0.29229719371E+03  0.29591735612E+03  0.00000000000E+00 0. -1.
          1    1    1    2  502    0 -0.12829817627E+03  0.10585253425E+03  0.42151962230E+03  0.45314895236E+03  0.00000000000E+00 0. -1.
         22    1    3    3    0    0  0.19003494182E+03 -0.11874306231E+03  0.51912707552E+00  0.22408360817E+03  0.00000000000E+00 0. -1.
         22    1    3    3    0    0 -0.18771220521E+02 -0.39437862817E+01  0.86852461896E+01  0.21055775252E+02  0.00000000000E+00 0. -1.
</event>
<event>
 7    1  0.6262315E-006  0.1118273E+03  0.7818608E-02  0.1315633E+00
          2   -1    0    0  502    0  0.00000000000E+00  0.00000000000E+00  0.56397264270E+03  0.56397264270E+03  0.00000000000E+00 0. -1.
          1   -1    0    0  501    0 -0.00000000000E+00 -0.00000000000E+00 -0.11582736244E+04  0.11582736244E+04  0.00000000000E+00 0. -1.
         25    2    1    2    0    0  0.39706015486E+02 -0.12743325497E+03  0.14915876059E+03  0.23598738843E+03  0.12500363795E+03 0.  0.
          2    1    1    2  501    0  0.22246047175E+02  0.10951169466E+03 -0.11092308897E+04  0.11148456685E+04  0.00000000000E+00 0. -1.
          1    1    1    2  502    0 -0.61952062661E+02  0.17921560303E+02  0.36577114743E+03  0.37141321016E+03  0.00000000000E+00 0. -1.
         22    1    3    3    0    0 -0.79706752649E+01  0.23306410679E+02  0.23337630221E+02  0.33931776070E+02  0.00000000000E+00 0. -1.
         22    1    3    3    0    0  0.47676690751E+02 -0.15073966565E+03  0.12582113037E+03  0.20205561236E+03  0.00000000000E+00 0. -1.
</event>
<event>
 7    1  0.6262315E-006  0.9654283E+02  0.7818608E-02  0.1288641E+00
          2   -1    0    0  502    0  0.00000000000E+00  0.00000000000E+00  0.93780857721E+03  0.93780857721E+03  0.00000000000E+00 0. -1.
          1   -1    0    0  501    0 -0.00000000000E+00 -0.00000000000E+00 -0.36302116871E+03  0.36302116871E+03  0.00000000000E+00 0. -1.
         25    2    1    2    0    0  0.84249082502E+02 -0.11124594994E+00 -0.92866129502E+02  0.17704572791E+03  0.12499260571E+03 0.  0.
          2    1    1    2  501    0 -0.39751734266E+02  0.87083978788E+02 -0.21520553425E+03  0.23553607306E+03  0.00000000000E+00 0. -1.
          1    1    1    2  502    0 -0.44497348236E+02 -0.86972732838E+02  0.88285907226E+03  0.88824794496E+03  0.00000000000E+00 0. -1.
         22    1    3    3    0    0 -0.26071281285E+02 -0.22427524350E+02 -0.60944290611E+01  0.34926317039E+02  0.00000000000E+00 0.  1.
         22    1    3    3    0    0  0.11032036379E+03  0.22316278400E+02 -0.86771700441E+02  0.14211941087E+03  0.00000000000E+00 0.  1.
</event>
<event>
 7    1  0.6262315E-006  0.1102622E+03  0.7818608E-02  0.1336539E+00
          2   -1    0    0  502    0  0.00000000000E+00  0.00000000000E+00  0.24321822781E+04  0.24321822781E+04  0.00000000000E+00 0. -1.
          1   -1    0    0  501    0 -0.00000000000E+00 -0.00000000000E+00 -0.13746392381E+03  0.13746392381E+03  0.00000000000E+00 0. -1.
         25    2    1    2    0    0  0.21373128486E+02  0.13472762372E+03  0.38477449894E+03  0.42694731212E+03  0.12499699626E+03 0.  0.
          2    1    1    2  501    0 -0.46276056750E+02 -0.28520472260E+02 -0.10847564631E+03  0.12133365819E+03  0.00000000000E+00 0. -1.
          1    1    1    2  502    0  0.24902928264E+02 -0.10620715146E+03  0.20184195016E+04  0.20213652316E+04  0.00000000000E+00 0. -1.
         22    1    3    3    0    0 -0.12557502243E+02  0.90313079476E+02  0.94412886958E+02  0.13125523384E+03  0.00000000000E+00 0.  1.
         22    1    3    3    0    0  0.33930630730E+02  0.44414544244E+02  0.29036161198E+03  0.29569207827E+03  0.00000000000E+00 0.  1.
</event>
<event>
 7    1  0.6262315E-006  0.7293162E+02  0.7818608E-02  0.1441105E+00
          2   -1    0    0  502    0  0.00000000000E+00  0.00000000000E+00  0.23104368953E+03  0.23104368953E+03  0.00000000000E+00 0. -1.
          1   -1    0    0  501    0 -0.00000000000E+00 -0.00000000000E+00 -0.12656688563E+04  0.12656688563E+04  0.00000000000E+00 0. -1.
         25    2    1    2    0    0 -0.95307183511E+01  0.96959996949E+02 -0.96765557488E+02  0.18568798772E+03  0.12499752024E+03 0.  0.
          2    1    1    2  501    0 -0.17937141315E+02 -0.30491466131E+02 -0.11172210510E+04  0.11177809925E+04  0.00000000000E+00 0. -1.
          1    1    1    2  502    0  0.27467859666E+02 -0.66468530818E+02  0.17936144165E+03  0.19324356562E+03  0.00000000000E+00 0. -1.
         22    1    3    3    0    0  0.32847033211E+02  0.10424611764E+03 -0.44507111148E+02  0.11801298054E+03  0.00000000000E+00 0.  1.
         22    1    3    3    0    0 -0.42377751562E+02 -0.72861206936E+01 -0.52258446339E+02  0.67675007174E+02  0.00000000000E+00 0.  1.
</event>
<event>
 7    1  0.6262315E-006  0.6300828E+02  0.7818608E-02  0.1485762E+00
          2   -1    0    0  502    0  0.00000000000E+00  0.00000000000E+00  0.38043934336E+03  0.38043934336E+03  0.00000000000E+00 0. -1.
          1   -1    0    0  501    0 -0.00000000000E+00 -0.00000000000E+00 -0.19317781280E+04  0.19317781280E+04  0.00000000000E+00 0. -1.
         25    2    1    2    0    0  0.11866956695E+02  0.91657597413E+02 -0.35522648095E+03  0.38775373001E+03  0.12500065018E+03 0.  0.
          2    1    1    2  501    0 -0.46827175729E+01 -0.29275986210E+02 -0.15574390357E+04  0.15577212078E+04  0.00000000000E+00 0. -1.
          1    1    1    2  502    0 -0.71842391219E+01 -0.62381611204E+02  0.36132673199E+03  0.36674253361E+03  0.00000000000E+00 0. -1.
         22    1    3    3    0    0 -0.43158549911E+02  0.77789434282E+02 -0.27822783987E+03  0.29210372712E+03  0.00000000000E+00 0.  1.
         22    1    3    3    0    0  0.55025506606E+02  0.13868163131E+02 -0.76998641073E+02  0.95650002890E+02  0.00000000000E+00 0.  1.
</event>
<event>
 7    1  0.6262315E-006  0.7953650E+02  0.7818608E-02  0.1489122E+00
          2   -1    0    0  502    0  0.00000000000E+00  0.00000000000E+00  0.38520844339E+03  0.38520844339E+03  0.00000000000E+00 0. -1.
          1   -1    0    0  501    0 -0.00000000000E+00 -0.00000000000E+00 -0.73187710823E+03  0.73187710823E+03  0.00000000000E+00 0. -1.
         25    2    1    2    0    0 -0.57983168745E+02 -0.13036403066E+02 -0.20348001989E+02  0.13989754147E+03  0.12500114104E+03 0.  0.
          2    1    1    2  501    0  0.75348308677E+02  0.28028749904E+02 -0.64886628931E+03  0.65382753066E+03  0.00000000000E+00 0. -1.
          1    1    1    2  502    0 -0.17365139932E+02 -0.14992346838E+02  0.32254562645E+03  0.32336047949E+03  0.00000000000E+00 0. -1.
         22    1    3    3    0    0 -0.79485655297E+02  0.15971824882E+01 -0.54925412509E+02  0.96629815943E+02  0.00000000000E+00 0. -1.
         22    1    3    3    0    0  0.21502486552E+02 -0.14633585554E+02  0.34577410520E+02  0.43267725528E+02  0.00000000000E+00 0. -1.
</event>
<event>
 7    1  0.6262315E-006  0.1628546E+03  0.7818608E-02  0.1231900E+00
          2   -1    0    0  502    0  0.00000000000E+00  0.00000000000E+00  0.20133523551E+04  0.20133523551E+04  0.00000000000E+00 0. -1.
          1   -1    0    0  501    0 -0.00000000000E+00 -0.00000000000E+00 -0.43063552299E+03  0.43063552299E+03  0.00000000000E+00 0. -1.
         25    2    1    2    0    0 -0.77096337473E+02 -0.22875317003E+02  0.21306026383E+03  0.25978293318E+03  0.12500148386E+03 0.  0.
          2    1    1    2  501    0 -0.88672747348E+02 -0.44286819243E+02 -0.39665986490E+03  0.40885599776E+03  0.00000000000E+00 0. -1.
          1    1    1    2  502    0  0.16576908482E+03  0.67162136246E+02  0.17663164332E+04  0.17753489471E+04  0.00000000000E+00 0. -1.
         22    1    3    3    0    0 -0.94076408675E+02 -0.11388370987E+02  0.76765298010E+02  0.12195481393E+03  0.00000000000E+00 0.  1.
         22    1    3    3    0    0  0.16980071202E+02 -0.11486946016E+02  0.13629496582E+03  0.13782811925E+03  0.00000000000E+00 0.  1.
</event>
<event>
 7    1  0.6262315E-006  0.1454422E+03  0.7818608E-02  0.1409352E+00
          2   -1    0    0  502    0  0.00000000000E+00  0.00000000000E+00  0.21087010744E+03  0.21087010744E+03  0.00000000000E+00 0. -1.
          1   -1    0    0  501    0 -0.00000000000E+00 -0.00000000000E+00 -0.59114945411E+03  0.59114945411E+03  0.00000000000E+00 0. -1.
         25    2    1    2    0    0 -0.12715511229E+03 -0.73363574070E+02 -0.20247704411E+02  0.19384793831E+03  0.12496566357E+03 0.  0.
          2    1    1    2  501    0  0.13904305043E+02 -0.17822894815E+02 -0.44111425491E+03  0.44169307349E+03  0.00000000000E+00 0. -1.
          1    1    1    2  502    0  0.11325080725E+03  0.91186468885E+02  0.81082612663E+02  0.16647854975E+03  0.00000000000E+00 0. -1.
         22    1    3    3    0    0 -0.90992783007E+02  0.19149384281E+02 -0.30164537253E+01  0.93034856214E+02  0.00000000000E+00 0.  1.
         22    1    3    3    0    0 -0.36162329286E+02 -0.92512958351E+02 -0.17231250686E+02  0.10081308210E+03  0.00000000000E+00 0.  1.
</event>
<event>
 7    1  0.6262315E-006  0.9649227E+02  0.7818608E-02  0.1387324E+00
          2   -1    0    0  502    0  0.00000000000E+00  0.00000000000E+00  0.26525611641E+04  0.26525611641E+04  0.00000000000E+00 0. -1.
          1   -1    0    0  501    0 -0.00000000000E+00 -0.00000000000E+00 -0.11230837812E+03  0.11230837812E+03  0.00000000000E+00 0. -1.
         25    2    1    2    0    0 -0.54609362247E+02 -0.94754007967E+02  0.26316792647E+03  0.31119520635E+03  0.12499837784E+03 0.  0.
          2    1    1    2  501    0  0.14027076462E+02  0.94922593116E+02 -0.61997554311E+02  0.11423989802E+03  0.00000000000E+00 0. -1.
          1    1    1    2  502    0  0.40582285785E+02 -0.16858514904E+00  0.23390824138E+04  0.23394344379E+04  0.00000000000E+00 0. -1.
         22    1    3    3    0    0 -0.64951413922E+02 -0.10003402386E+03  0.27173952362E+03  0.29676229679E+03  0.00000000000E+00 0. -1.
         22    1    3    3    0    0  0.10342051675E+02  0.52800158936E+01 -0.85715971485E+01  0.14432909560E+02  0.00000000000E+00 0. -1.
</event>
<event>
 7    1  0.6262315E-006  0.3088616E+03  0.7818608E-02  0.1191381E+00
          2   -1    0    0  502    0  0.00000000000E+00  0.00000000000E+00  0.34025833282E+03  0.34025833282E+03  0.00000000000E+00 0. -1.
          1   -1    0    0  501    0 -0.00000000000E+00 -0.00000000000E+00 -0.55985763288E+03  0.55985763288E+03  0.00000000000E+00 0. -1.
         25    2    1    2    0    0 -0.18873454601E+03 -0.24365804747E+03 -0.27033144967E+02  0.33368452604E+03  0.12499839614E+03 0.  0.
          2    1    1    2  501    0 -0.60545585369E+02  0.52995698525E+02 -0.23624436723E+03  0.24957105806E+03  0.00000000000E+00 0. -1.
          1    1    1    2  502    0  0.24928013138E+03  0.19066234895E+03  0.43678212142E+02  0.31686038159E+03  0.00000000000E+00 0. -1.
         22    1    3    3    0    0  0.16379136397E+01 -0.74921683546E+02  0.13322858428E+02  0.76114650253E+02  0.00000000000E+00 0.  1.
         22    1    3    3    0    0 -0.19037245965E+03 -0.16873636393E+03 -0.40356003395E+02  0.25756987579E+03  0.00000000000E+00 0.  1.
</event>
<event>
 7    1  0.6262315E-006  0.1135759E+03  0.7818608E-02  0.1333753E+00
          2   -1    0    0  502    0  0.00000000000E+00  0.00000000000E+00  0.63466885027E+03  0.63466885027E+03  0.00000000000E+00 0. -1.
          1   -1    0    0  501    0 -0.00000000000E+00 -0.00000000000E+00 -0.36414832229E+03  0.36414832229E+03  0.00000000000E+00 0. -1.
         25    2    1    2    0    0  0.12406375057E+03  0.99031112297E+02 -0.71745966090E+02  0.21441552354E+03  0.12501023028E+03 0.  0.
          2    1    1    2  501    0 -0.87391180126E+02 -0.59295649051E+02 -0.20705107101E+03  0.23242921151E+03  0.00000000000E+00 0. -1.
          1    1    1    2  502    0 -0.36672570445E+02 -0.39735463246E+02  0.54931756508E+03  0.55197243751E+03  0.00000000000E+00 0. -1.
         22    1    3    3    0    0  0.13692319237E+03  0.90555762654E+02 -0.26074625288E+02  0.16621730608E+03  0.00000000000E+00 0. -1.
         22    1    3    3    0    0 -0.12859441796E+02  0.84753496425E+01 -0.45671340803E+02  0.48198217452E+02  0.00000000000E+00 0. -1.
</event>
<event>
 7    1  0.6262315E-006  0.1010868E+03  0.7818608E-02  0.1332002E+00
          2   -1    0    0  502    0  0.00000000000E+00  0.00000000000E+00  0.41518615726E+03  0.41518615726E+03  0.00000000000E+00 0. -1.
          1   -1    0    0  501    0 -0.00000000000E+00 -0.00000000000E+00 -0.54845742958E+03  0.54845742958E+03  0.00000000000E+00 0. -1.
         25    2    1    2    0    0  0.92402199261E+02  0.29819849117E+02 -0.13247690051E+03  0.20640200058E+03  0.12499706735E+03 0.  0.
          2    1    1    2  501    0 -0.32292674413E+02  0.52563761076E+02 -0.36953983371E+03  0.37465377951E+03  0.00000000000E+00 0. -1.
          1    1    1    2  502    0 -0.60109524848E+02 -0.82383610193E+02  0.36874546190E+03  0.38258780675E+03  0.00000000000E+00 0. -1.
         22    1    3    3    0    0  0.31379565082E+02  0.18479342074E+02 -0.13928068481E+03  0.14396274639E+03  0.00000000000E+00 0. -1.
         22    1    3    3    0    0  0.61022634179E+02  0.11340507043E+02  0.68037843040E+01  0.62439254183E+02  0.00000000000E+00 0. -1.
</event>
<event>
 7    1  0.6262315E-006  0.3662161E+02  0.7818608E-02  0.1574806E+00
          2   -1    0    0  502    0  0.00000000000E+00  0.00000000000E+00  0.10080257080E+04  0.10080257080E+04  0.00000000000E+00 0. -1.
          1   -1    0    0  501    0 -0.00000000000E+00 -0.00000000000E+00 -0.40170489254E+03  0.40170489254E+03  0.00000000000E+00 0. -1.
         25    2    1    2    0    0 -0.15320936795E+02 -0.55083840087E+02 -0.11920588635E+03  0.18194739790E+03  0.12500340684E+03 0.  0.
          2    1    1    2  501    0 -0.82604084662E+01  0.27110690492E+02 -0.24998461739E+03  0.25158603463E+03  0.00000000000E+00 0. -1.
          1    1    1    2  502    0  0.23581345261E+02  0.27973149596E+02  0.97551131921E+03  0.97619716802E+03  0.00000000000E+00 0. -1.
         22    1    3    3    0    0  0.33376510933E+02 -0.71302353445E+02 -0.99706717287E+02  0.12704112154E+03  0.00000000000E+00 0.  1.
         22    1    3    3    0    0 -0.48697447728E+02  0.16218513358E+02 -0.19499169059E+02  0.54906276369E+02  0.00000000000E+00 0.  1.
</event>
<event>
 7    1  0.6262315E-006  0.1211231E+03  0.7818608E-02  0.1389922E+00
          2   -1    0    0  502    0  0.00000000000E+00  0.00000000000E+00  0.17900591622E+04  0.17900591622E+04  0.00000000000E+00 0. -1.
          1   -1    0    0  501    0 -0.00000000000E+00 -0.00000000000E+00 -0.42499858916E+02  0.42499858916E+02  0.00000000000E+00 0. -1.
         25    2    1    2    0    0  0.54440698754E+02 -0.11129941390E+03  0.11236146725E+04  0.11373152335E+04  0.12499863515E+03 0.  0.
          2    1    1    2  501    0 -0.79291364560E+02  0.91681881892E+02  0.69158460249E+02  0.13955493752E+03  0.00000000000E+00 0. -1.
          1    1    1    2  502    0  0.24850665806E+02  0.19617532010E+02  0.55478617053E+03  0.55568885014E+03  0.00000000000E+00 0. -1.
         22    1    3    3    0    0  0.74974890724E+02 -0.69811089592E+02  0.42515571559E+03  0.43732391309E+03  0.00000000000E+00 0. -1.
         22    1    3    3    0    0 -0.20534191970E+02 -0.41488324310E+02  0.69845895694E+03  0.69999132039E+03  0.00000000000E+00 0. -1.
</event>
<event>
 7    1  0.6262315E-006  0.5171844E+02  0.7818608E-02  0.1478438E+00
          2   -1    0    0  502    0  0.00000000000E+00  0.00000000000E+00  0.11955600111E+03  0.11955600111E+03  0.00000000000E+00 0. -1.
          1   -1    0    0  501    0 -0.00000000000E+00 -0.00000000000E+00 -0.20713445324E+04  0.20713445324E+04  0.00000000000E+00 0. -1.
         25    2    1    2    0    0 -0.31030099428E+02  0.27653910330E+02  0.18246101530E+02  0.13299343043E+03  0.12500690577E+03 0.  0.
          2    1    1    2  501    0  0.23654230930E+02  0.29781175201E+02 -0.19946306646E+04  0.19949932154E+04  0.00000000000E+00 0. -1.
          1    1    1    2  502    0  0.73758684984E+01 -0.57435085531E+02  0.24596031810E+02  0.62913887711E+02  0.00000000000E+00 0. -1.
         22    1    3    3    0    0  0.42579658183E+02  0.31563285089E+02  0.25698825626E+02  0.58904141579E+02  0.00000000000E+00 0. -1.
         22    1    3    3    0    0 -0.73609757612E+02 -0.39093747589E+01 -0.74527240958E+01  0.74089288856E+02  0.00000000000E+00 0. -1.
</event>
<event>
 7    1  0.6262315E-006  0.4055867E+02  0.7818608E-02  0.1520084E+00
          2   -1    0    0  502    0  0.00000000000E+00  0.00000000000E+00  0.19275194029E+04  0.19275194029E+04  0.00000000000E+00 0. -1.
          1   -1    0    0  501    0 -0.00000000000E+00 -0.00000000000E+00 -0.20507446373E+03  0.20507446373E+03  0.00000000000E+00 0. -1.
         25    2    1    2    0    0 -0.41981073535E+02  0.29485912299E+02  0.11339985563E+04  0.11420201292E+04  0.12500168115E+03 0.  0.
          2    1    1    2  501    0  0.34796945907E+02  0.10735569782E+02 -0.19888076940E+03  0.20218714188E+03  0.00000000000E+00 0. -1.
          1    1    1    2  502    0  0.71841276279E+01 -0.40221482081E+02  0.78732715233E+03  0.78838659559E+03  0.00000000000E+00 0. -1.
         22    1    3    3    0    0 -0.83884625214E+02  0.36082231129E+02  0.69408284551E+03  0.70006396435E+03  0.00000000000E+00 0.  1.
         22    1    3    3    0    0  0.41903551680E+02 -0.65963188301E+01  0.43991571076E+03  0.44195616484E+03  0.00000000000E+00 0.  1.
</event>
<event>
 7    1  0.6262315E-006  0.7531773E+02  0.7818608E-02  0.1466476E+00
          2   -1    0    0  502    0  0.00000000000E+00  0.00000000000E+00  0.40796430725E+03  0.40796430725E+03  0.00000000000E+00 0. -1.
          1   -1    0    0  501    0 -0.00000000000E+00 -0.00000000000E+00 -0.27212680843E+03  0.27212680843E+03  0.00000000000E+00 0. -1.
         25    2    1    2    0    0  0.29919021159E+02 -0.95991469508E+02  0.14135590821E+03  0.21381283636E+03  0.12499970465E+03 0.  0.
          2    1    1    2  501    0 -0.12591924051E+02  0.73434979996E+02 -0.22909166870E+03  0.24090297945E+03  0.00000000000E+00 0. -1.
          1    1    1    2  502    0 -0.17327097108E+02  0.22556489512E+02  0.22357325931E+03  0.22537529987E+03  0.00000000000E+00 0. -1.
         22    1    3    3    0    0  0.41634190561E+02 -0.84963696648E+02  0.27087500768E+02  0.98417316919E+02  0.00000000000E+00 0. -1.
         22    1    3    3    0    0 -0.11715169403E+02 -0.11027772860E+02  0.11426840744E+03  0.11539551944E+03  0.00000000000E+00 0. -1.
</event>
<event>
 7    1  0.6262315E-006  0.1643070E+03  0.7818608E-02  0.1281891E+00
          2   -1    0    0  502    0  0.00000000000E+00  0.00000000000E+00  0.21548097631E+04  0.21548097631E+04  0.00000000000E+00 0. -1.
          1   -1    0    0  501    0 -0.00000000000E+00 -0.00000000000E+00 -0.80605487217E+03  0.80605487217E+03  0.00000000000E+00 0. -1.
         25    2    1    2    0    0 -0.19926342300E+02  0.16660975245E+03  0.32641927826E+03  0.38772605792E+03  0.12500432812E+03 0.  0.
          2    1    1    2  501    0  0.59606246526E+02 -0.63771003458E+01 -0.77044536952E+03  0.77277398989E+03  0.00000000000E+00 0. -1.
          1    1    1    2  502    0 -0.39679904226E+02 -0.16023265210E+03  0.17927809822E+04  0.18003645874E+04  0.00000000000E+00 0. -1.
         22    1    3    3    0    0  0.11300558918E+02  0.16882657629E+03  0.22460278994E+03  0.28120549202E+03  0.00000000000E+00 0. -1.
         22    1    3    3    0    0 -0.31226901218E+02 -0.22168238419E+01  0.10181648832E+03  0.10652056591E+03  0.00000000000E+00 0. -1.
</event>
<event>
 7    1  0.6262315E-006  0.6747437E+02  0.7818608E-02  0.1511370E+00
          2   -1    0    0  502    0  0.00000000000E+00  0.00000000000E+00  0.26011422351E+04  0.26011422351E+04  0.00000000000E+00 0. -1.
          1   -1    0    0  501    0 -0.00000000000E+00 -0.00000000000E+00 -0.80842545002E+01  0.80842545002E+01  0.00000000000E+00 0. -1.
         25    2    1    2    0    0 -0.57956929749E+02 -0.34456455389E+02  0.80043013080E+03  0.81293109863E+03  0.12498929472E+03 0.  0.
          2    1    1    2  501    0  0.14769570509E+02 -0.17904699106E+02  0.11626983840E+03  0.11856388061E+03  0.00000000000E+00 0. -1.
          1    1    1    2  502    0  0.43187359240E+02  0.52361154495E+02  0.16763580114E+04  0.16777315104E+04  0.00000000000E+00 0. -1.
         22    1    3    3    0    0 -0.86773811608E+02 -0.77613320734E+01  0.69466816866E+03  0.70010984652E+03  0.00000000000E+00 0. -1.
         22    1    3    3    0    0  0.28816881860E+02 -0.26695123316E+02  0.10576196215E+03  0.11282125210E+03  0.00000000000E+00 0. -1.
</event>
<event>
 7    1  0.6262315E-006  0.6613516E+02  0.7818608E-02  0.1509936E+00
          2   -1    0    0  502    0  0.00000000000E+00  0.00000000000E+00  0.38573732863E+04  0.38573732863E+04  0.00000000000E+00 0. -1.
          1   -1    0    0  501    0 -0.00000000000E+00 -0.00000000000E+00 -0.46278061277E+02  0.46278061277E+02  0.00000000000E+00 0. -1.
         25    2    1    2    0    0 -0.84180736028E+02  0.25944086921E+02  0.12401181586E+04  0.12495117458E+04  0.12500825465E+03 0.  0.
          2    1    1    2  501    0  0.23352047781E+02 -0.51418622707E+01 -0.37714621104E+02  0.44655901381E+02  0.00000000000E+00 0. -1.
          1    1    1    2  502    0  0.60828688247E+02 -0.20802224650E+02  0.26086916875E+04  0.26094837004E+04  0.00000000000E+00 0. -1.
         22    1    3    3    0    0 -0.11185276694E+03  0.41021836389E+02  0.10580591823E+04  0.10647455404E+04  0.00000000000E+00 0. -1.
         22    1    3    3    0    0  0.27672030909E+02 -0.15077749468E+02  0.18205897626E+03  0.18476620541E+03  0.00000000000E+00 0. -1.
</event>
<event>
 7    1  0.6262315E-006  0.8113500E+02  0.7818608E-02  0.1332579E+00
          2   -1    0    0  502    0  0.00000000000E+00  0.00000000000E+00  0.34346126362E+04  0.34346126362E+04  0.00000000000E+00 0. -1.
          1   -1    0    0  501    0 -0.00000000000E+00 -0.00000000000E+00 -0.52973692652E+03  0.52973692652E+03  0.00000000000E+00 0. -1.
         25    2    1    2    0    0 -0.77437129273E+02  0.10739689357E+03  0.34533745241E+03  0.39040092680E+03  0.12499730347E+03 0.  0.
          2    1    1    2  501    0  0.74688800100E+02 -0.30972779124E+02 -0.50350248052E+03  0.50995340747E+03  0.00000000000E+00 0. -1.
          1    1    1    2  502    0  0.27483291734E+01 -0.76424114443E+02  0.30630407378E+04  0.30639952285E+04  0.00000000000E+00 0. -1.
         22    1    3    3    0    0  0.21474049649E+02  0.72894496766E+02  0.12227583582E+03  0.14396569901E+03  0.00000000000E+00 0.  1.
         22    1    3    3    0    0 -0.98911178923E+02  0.34502396802E+02  0.22306161658E+03  0.24643522779E+03  0.00000000000E+00 0.  1.
</event>
<event>
 7    1  0.6262315E-006  0.9314049E+02  0.7818608E-02  0.1463379E+00
          2   -1    0    0  502    0  0.00000000000E+00  0.00000000000E+00  0.11778477880E+04  0.11778477880E+04  0.00000000000E+00 0. -1.
          1   -1    0    0  501    0 -0.00000000000E+00 -0.00000000000E+00 -0.83416592588E+03  0.83416592588E+03  0.00000000000E+00 0. -1.
         25    2    1    2    0    0  0.50460813596E+02  0.48198816112E+02 -0.66029227718E+03  0.67563646107E+03  0.12501726533E+03 0.  0.
          2    1    1    2  501    0  0.18609765290E+02  0.14383301932E+02 -0.16350271585E+03  0.16518577671E+03  0.00000000000E+00 0. -1.
          1    1    1    2  502    0 -0.69070578886E+02 -0.62582118044E+02  0.11674768552E+04  0.11711914761E+04  0.00000000000E+00 0. -1.
         22    1    3    3    0    0  0.75526268127E+02 -0.25654646757E+01 -0.24185122163E+03  0.25338273854E+03  0.00000000000E+00 0. -1.
         22    1    3    3    0    0 -0.25065454531E+02  0.50764280788E+02 -0.41844105555E+03  0.42225372253E+03  0.00000000000E+00 0. -1.
</event>
<event>
 7    1  0.6262315E-006  0.1406627E+03  0.7818608E-02  0.1237422E+00
          2   -1    0    0  502    0  0.00000000000E+00  0.00000000000E+00  0.24093701524E+04  0.24093701524E+04  0.00000000000E+00 0. -1.
          1   -1    0    0  501    0 -0.00000000000E+00 -0.00000000000E+00 -0.14911168654E+03  0.14911168654E+03  0.00000000000E+00 0. -1.
         25    2    1    2    0    0 -0.15352248488E+03 -0.18336253535E+02 -0.48527296872E+02  0.20465462533E+03  0.12499298207E+03 0.  0.
          2    1    1    2  501    0  0.10577808389E+03 -0.79031029609E+02  0.18507323031E+03  0.22734776720E+03  0.00000000000E+00 0. -1.
          1    1    1    2  502    0  0.47744400996E+02  0.97367283144E+02  0.21237125324E+04  0.21264794464E+04  0.00000000000E+00 0. -1.
         22    1    3    3    0    0 -0.69317250565E+02  0.32507695457E+02  0.26419153099E+02  0.80991376951E+02  0.00000000000E+00 0. -1.
         22    1    3    3    0    0 -0.84205234317E+02 -0.50843948992E+02 -0.74946449971E+02  0.12366324838E+03  0.00000000000E+00 0. -1.
</event>
<event>
 7    1  0.6262315E-006  0.6493869E+02  0.7818608E-02  0.1458089E+00
          2   -1    0    0  502    0  0.00000000000E+00  0.00000000000E+00  0.54438981572E+03  0.54438981572E+03  0.00000000000E+00 0. -1.
          1   -1    0    0  501    0 -0.00000000000E+00 -0.00000000000E+00 -0.44314837421E+03  0.44314837421E+03  0.00000000000E+00 0. -1.
         25    2    1    2    0    0 -0.56689574115E+02 -0.71021074789E+02 -0.22147093778E+03  0.27005906083E+03  0.12499927671E+03 0.  0.
          2    1    1    2  501    0  0.25711103431E+02  0.54614306571E+02 -0.19215830049E+03  0.20141647343E+03  0.00000000000E+00 0. -1.
          1    1    1    2  502    0  0.30978470685E+02  0.16406768218E+02  0.51487067977E+03  0.51606265567E+03  0.00000000000E+00 0. -1.
         22    1    3    3    0    0  0.17916811479E+02  0.57123758879E+01  0.50982668272E+01  0.19484242261E+02  0.00000000000E+00 0.  1.
         22    1    3    3    0    0 -0.74606385594E+02 -0.76733450677E+02 -0.22656920460E+03  0.25057481856E+03  0.00000000000E+00 0.  1.
</event>
<event>
 7    1  0.6262315E-006  0.7163647E+02  0.7818608E-02  0.1459147E+00
          2   -1    0    0  502    0  0.00000000000E+00  0.00000000000E+00  0.70264752767E+03  0.70264752767E+03  0.00000000000E+00 0. -1.
          1   -1    0    0  501    0 -0.00000000000E+00 -0.00000000000E+00 -0.91811852345E+03  0.91811852345E+03  0.00000000000E+00 0. -1.
         25    2    1    2    0    0 -0.54778119024E+02  0.16397225655E+02 -0.28289435348E+03  0.31452236829E+03  0.12500237434E+03 0.  0.
          2    1    1    2  501    0  0.56795820755E+02 -0.47866318825E+02 -0.61681904188E+03  0.62127504389E+03  0.00000000000E+00 0. -1.
          1    1    1    2  502    0 -0.20177017304E+01  0.31469093170E+02  0.68424239958E+03  0.68496863894E+03  0.00000000000E+00 0. -1.
         22    1    3    3    0    0  0.27945931870E+02  0.39049649113E+02 -0.68927234608E+02  0.84004844352E+02  0.00000000000E+00 0.  1.
         22    1    3    3    0    0 -0.82724050894E+02 -0.22652423458E+02 -0.21396711887E+03  0.23051752394E+03  0.00000000000E+00 0.  1.
</event>
<event>
 7    1  0.6262315E-006  0.9007671E+02  0.7818608E-02  0.1366919E+00
          2   -1    0    0  502    0  0.00000000000E+00  0.00000000000E+00  0.26388204088E+03  0.26388204088E+03  0.00000000000E+00 0. -1.
          1   -1    0    0  501    0 -0.00000000000E+00 -0.00000000000E+00 -0.85267580351E+03  0.85267580351E+03  0.00000000000E+00 0. -1.
         25    2    1    2    0    0 -0.90093742636E+02 -0.87027254412E+02 -0.89639750493E+02  0.19837351151E+03  0.12500455882E+03 0.  0.
          2    1    1    2  501    0  0.98157028311E+01  0.50434791299E+02 -0.69839579417E+03  0.70028330089E+03  0.00000000000E+00 0. -1.
          1    1    1    2  502    0  0.80278039805E+02  0.36592463113E+02  0.19924178203E+03  0.21790103198E+03  0.00000000000E+00 0. -1.
         22    1    3    3    0    0 -0.11374085595E+03 -0.89337986227E+02 -0.51672786644E+02  0.15358494384E+03  0.00000000000E+00 0. -1.
         22    1    3    3    0    0  0.23647113314E+02  0.23107318150E+01 -0.37966963849E+02  0.44788567666E+02  0.00000000000E+00 0. -1.
</event>
<event>
 7    1  0.6262315E-006  0.7970860E+02  0.7818608E-02  0.1379951E+00
          2   -1    0    0  502    0  0.00000000000E+00  0.00000000000E+00  0.19375029053E+04  0.19375029053E+04  0.00000000000E+00 0. -1.
          1   -1    0    0  501    0 -0.00000000000E+00 -0.00000000000E+00 -0.38628840028E+02  0.38628840028E+02  0.00000000000E+00 0. -1.
         25    2    1    2    0    0  0.30136506070E+02  0.10125256913E+03  0.62634813137E+03  0.64737719698E+03  0.12499984700E+03 0.  0.
          2    1    1    2  501    0 -0.55331985174E+02 -0.55586579893E+02  0.28216694069E+02  0.83352734038E+02  0.00000000000E+00 0. -1.
          1    1    1    2  502    0  0.25195479104E+02 -0.45665989240E+02  0.12443092398E+04  0.12454018143E+04  0.00000000000E+00 0. -1.
         22    1    3    3    0    0  0.50192183055E+02  0.11580339400E+03  0.39424151209E+03  0.41395174979E+03  0.00000000000E+00 0. -1.
         22    1    3    3    0    0 -0.20055676985E+02 -0.14550824863E+02  0.23210661928E+03  0.23342544719E+03  0.00000000000E+00 0. -1.
</event>
<event>
 7    1  0.6262315E-006  0.3081724E+02  0.7818608E-02  0.1598725E+00
          2   -1    0    0  502    0  0.00000000000E+00  0.00000000000E+00  0.15081578059E+03  0.15081578059E+03  0.00000000000E+00 0. -1.
          1   -1    0    0  501    0 -0.00000000000E+00 -0.00000000000E+00 -0.61135198826E+03  0.61135198826E+03  0.00000000000E+00 0. -1.
         25    2    1    2    0    0  0.33078560563E+02 -0.17093326847E+02  0.33494148291E+02  0.13466196538E+03  0.12500245581E+03 0.  0.
          2    1    1    2  501    0 -0.70254960661E+01  0.30040017542E+02 -0.55715039486E+03  0.55800387341E+03  0.00000000000E+00 0. -1.
          1    1    1    2  502    0 -0.26053064497E+02 -0.12946690696E+02  0.63120038904E+02  0.69501930052E+02  0.00000000000E+00 0. -1.
         22    1    3    3    0    0 -0.71325725342E+01  0.19370027462E+02  0.67515092464E+02  0.70599994797E+02  0.00000000000E+00 0.  1.
         22    1    3    3    0    0  0.40211133098E+02 -0.36463354309E+02 -0.34020944173E+02  0.64061970582E+02  0.00000000000E+00 0.  1.
</event>
<event>
 7    1  0.6262315E-006  0.1203796E+03  0.7818608E-02  0.1321101E+00
          2   -1    0    0  502    0  0.00000000000E+00  0.00000000000E+00  0.78558607906E+03  0.78558607906E+03  0.00000000000E+00 0. -1.
          1   -1    0    0  501    0 -0.00000000000E+00 -0.00000000000E+00 -0.86488804394E+03  0.86488804394E+03  0.00000000000E+00 0. -1.
         25    2    1    2    0    0  0.11540283975E+03 -0.26210959939E+02  0.31447092332E+03  0.35849909230E+03  0.12499923090E+03 0.  0.
          2    1    1    2  501    0 -0.11657039235E+03 -0.30823863198E+02 -0.83672313635E+03  0.84536641394E+03  0.00000000000E+00 0. -1.
          1    1    1    2  502    0  0.11675526048E+01  0.57034823137E+02  0.44295024815E+03  0.44660861676E+03  0.00000000000E+00 0. -1.
         22    1    3    3    0    0  0.12563150872E+03 -0.45872493348E+01  0.16662224449E+03  0.20872779211E+03  0.00000000000E+00 0.  1.
         22    1    3    3    0    0 -0.10228668974E+02 -0.21623710604E+02  0.14784867883E+03  0.14977130020E+03  0.00000000000E+00 0.  1.
</event>
<event>
 7    1  0.6262315E-006  0.1472753E+03  0.7818608E-02  0.1230767E+00
          2   -1    0    0  502    0  0.00000000000E+00  0.00000000000E+00  0.75942509473E+03  0.75942509473E+03  0.00000000000E+00 0. -1.
          1   -1    0    0  501    0 -0.00000000000E+00 -0.00000000000E+00 -0.74336130465E+03  0.74336130465E+03  0.00000000000E+00 0. -1.
         25    2    1    2    0    0  0.51113070953E+02  0.20736559934E+03  0.66515879963E+00  0.24746401792E+03  0.12499983967E+03 0.  0.
          2    1    1    2  501    0  0.36683916030E+02 -0.13963064340E+03 -0.60658643042E+03  0.62352989009E+03  0.00000000000E+00 0. -1.
          1    1    1    2  502    0 -0.87796986982E+02 -0.67734955938E+02  0.62198506170E+03  0.63179249137E+03  0.00000000000E+00 0. -1.
         22    1    3    3    0    0 -0.37642270418E+02  0.30281117392E+02  0.92858664296E+01  0.49194653247E+02  0.00000000000E+00 0.  1.
         22    1    3    3    0    0  0.88755341370E+02  0.17708448195E+03 -0.86207076300E+01  0.19826936467E+03  0.00000000000E+00 0.  1.
</event>
<event>
 7    1  0.6262315E-006  0.6753210E+02  0.7818608E-02  0.1370144E+00
          2   -1    0    0  502    0  0.00000000000E+00  0.00000000000E+00  0.74238728007E+02  0.74238728007E+02  0.00000000000E+00 0. -1.
          1   -1    0    0  501    0 -0.00000000000E+00 -0.00000000000E+00 -0.85374779817E+03  0.85374779817E+03  0.00000000000E+00 0. -1.
         25    2    1    2    0    0 -0.53722920479E+02 -0.93115355043E+01 -0.43862306655E+03  0.45933366134E+03  0.12499744416E+03 0.  0.
          2    1    1    2  501    0  0.12917306131E+02  0.65462224505E+02 -0.38213028331E+03  0.38791199138E+03  0.00000000000E+00 0. -1.
          1    1    1    2  502    0  0.40805614348E+02 -0.56150689001E+02  0.41244279706E+02  0.80740873453E+02  0.00000000000E+00 0. -1.
         22    1    3    3    0    0 -0.51596189539E+02  0.38076236075E+02 -0.11017143599E+03  0.12747435756E+03  0.00000000000E+00 0. -1.
         22    1    3    3    0    0 -0.21267309402E+01 -0.47387771580E+02 -0.32845163057E+03  0.33185930378E+03  0.00000000000E+00 0. -1.
</event>
<event>
 7    1  0.6262315E-006  0.6236526E+02  0.7818608E-02  0.1410382E+00
          2   -1    0    0  502    0  0.00000000000E+00  0.00000000000E+00  0.17298639744E+04  0.17298639744E+04  0.00000000000E+00 0. -1.
          1   -1    0    0  501    0 -0.00000000000E+00 -0.00000000000E+00 -0.43999954965E+03  0.43999954965E+03  0.00000000000E+00 0. -1.
         25    2    1    2    0    0  0.65796459822E+02  0.59019525188E+02  0.40167384579E+03  0.42985937823E+03  0.12499891272E+03 0.  0.
          2    1    1    2  501    0 -0.61932720137E+02 -0.68672813263E+01 -0.42310365798E+03  0.42766754234E+03  0.00000000000E+00 0. -1.
          1    1    1    2  502    0 -0.38637396853E+01 -0.52152243862E+02  0.13112942370E+04  0.13123366035E+04  0.00000000000E+00 0. -1.
         22    1    3    3    0    0  0.22324997968E+02  0.30271464913E+02  0.16327001120E+02  0.41004122815E+02  0.00000000000E+00 0.  1.
         22    1    3    3    0    0  0.43471461854E+02  0.28748060275E+02  0.38534684467E+03  0.38885525541E+03  0.00000000000E+00 0.  1.
</event>
<event>
 7    1  0.6262315E-006  0.1910843E+03  0.7818608E-02  0.1355653E+00
          2   -1    0    0  502    0  0.00000000000E+00  0.00000000000E+00  0.11691843694E+04  0.11691843694E+04  0.00000000000E+00 0. -1.
          1   -1    0    0  501    0 -0.00000000000E+00 -0.00000000000E+00 -0.85965975954E+03  0.85965975954E+03  0.00000000000E+00 0. -1.
         25    2    1    2    0    0 -0.17627700466E+03  0.71466279948E+01  0.47195181473E+02  0.22130753904E+03  0.12499994008E+03 0.  0.
          2    1    1    2  501    0 -0.15902761284E+02 -0.21349150327E+02 -0.76339922532E+03  0.76386324774E+03  0.00000000000E+00 0. -1.
          1    1    1    2  502    0  0.19217976594E+03  0.14202522332E+02  0.10257286537E+04  0.10436733422E+04  0.00000000000E+00 0. -1.
         22    1    3    3    0    0  0.13989028636E+02  0.86298682454E+01 -0.13838383584E+02  0.21486470355E+02  0.00000000000E+00 0. -1.
         22    1    3    3    0    0 -0.19026603329E+03 -0.14832402506E+01  0.61033565057E+02  0.19982106869E+03  0.00000000000E+00 0. -1.
</event>
<event>
 7    1  0.6262315E-006  0.8276570E+02  0.7818608E-02  0.1405334E+00
          2   -1    0    0  502    0  0.00000000000E+00  0.00000000000E+00  0.22083936634E+03  0.22083936634E+03  0.00000000000E+00 0. -1.
          1   -1    0    0  501    0 -0.00000000000E+00 -0.00000000000E+00 -0.64723993859E+03  0.64723993859E+03  0.00000000000E+00 0. -1.
         25    2    1    2    0    0  0.78255756483E+02  0.37205057606E+02 -0.32092336096E+03  0.35514082090E+03  0.12500007730E+03 0.  0.
          2    1    1    2  501    0 -0.28699754234E+02  0.29270659296E+02 -0.29931638651E+03  0.30211048744E+03  0.00000000000E+00 0. -1.
          1    1    1    2  502    0 -0.49556002249E+02 -0.66475716902E+02  0.19383917522E+03  0.21082799659E+03  0.00000000000E+00 0. -1.
         22    1    3    3    0    0  0.67793469918E+01  0.97882553480E+00 -0.24389001985E+03  0.24398618696E+03  0.00000000000E+00 0.  1.
         22    1    3    3    0    0  0.71476409491E+02  0.36226232071E+02 -0.77033341112E+02  0.11115463394E+03  0.00000000000E+00 0.  1.
</event>
<event>
 7    1  0.6262315E-006  0.4089215E+02  0.7818608E-02  0.1551833E+00
          2   -1    0    0  502    0  0.00000000000E+00  0.00000000000E+00  0.12135118391E+03  0.12135118391E+03  0.00000000000E+00 0. -1.
          1   -1    0    0  501    0 -0.00000000000E+00 -0.00000000000E+00 -0.10454981843E+04  0.10454981843E+04  0.00000000000E+00 0. -1.
         25    2    1    2    0    0 -0.10882412947E+02 -0.57621862616E+02 -0.43829133191E+03  0.45952365323E+03  0.12499596107E+03 0.  0.
          2    1    1    2  501    0  0.24624552514E+02  0.31697379220E+02 -0.59395772381E+03  0.59531241388E+03  0.00000000000E+00 0. -1.
          1    1    1    2  502    0 -0.13742139567E+02  0.25924483396E+02  0.10810205538E+03  0.11201330107E+03  0.00000000000E+00 0. -1.
         22    1    3    3    0    0  0.48899322353E+02 -0.24982681862E+02 -0.96657688716E+02  0.11116648284E+03  0.00000000000E+00 0. -1.
         22    1    3    3    0    0 -0.59781735300E+02 -0.32639180754E+02 -0.34163364319E+03  0.34835717038E+03  0.00000000000E+00 0. -1.
</event>
<event>
 7    1  0.6262315E-006  0.2491314E+02  0.7818608E-02  0.1693275E+00
          2   -1    0    0  502    0  0.00000000000E+00  0.00000000000E+00  0.15128093038E+03  0.15128093038E+03  0.00000000000E+00 0. -1.
          1   -1    0    0  501    0 -0.00000000000E+00 -0.00000000000E+00 -0.25910717859E+03  0.25910717859E+03  0.00000000000E+00 0. -1.
         25    2    1    2    0    0 -0.14107448981E+02 -0.10068377524E+02 -0.14143548355E+01  0.12620345439E+03  0.12499967663E+03 0.  0.
          2    1    1    2  501    0 -0.97352675029E+01  0.18645345571E+02 -0.19290913356E+03  0.19405246238E+03  0.00000000000E+00 0. -1.
          1    1    1    2  502    0  0.23842716484E+02 -0.85769680473E+01  0.86497240185E+02  0.90132192194E+02  0.00000000000E+00 0. -1.
         22    1    3    3    0    0  0.91453881790E+01 -0.49243884279E+02  0.40413344571E+02  0.64357102819E+02  0.00000000000E+00 0. -1.
         22    1    3    3    0    0 -0.23252837160E+02  0.39175506755E+02 -0.41827699406E+02  0.61846351575E+02  0.00000000000E+00 0. -1.
</event>
<event>
 7    1  0.6262315E-006  0.1386152E+03  0.7818608E-02  0.1357616E+00
          2   -1    0    0  502    0  0.00000000000E+00  0.00000000000E+00  0.18514498533E+04  0.18514498533E+04  0.00000000000E+00 0. -1.
          1   -1    0    0  501    0 -0.00000000000E+00 -0.00000000000E+00 -0.13161366373E+04  0.13161366373E+04  0.00000000000E+00 0. -1.
         25    2    1    2    0    0 -0.58448113198E+02  0.14214490965E+03  0.84571708761E+03  0.86860506332E+03  0.12496402072E+03 0.  0.
          2    1    1    2  501    0  0.79965387778E+02 -0.11316520113E+03 -0.13006837444E+04  0.13080439706E+04  0.00000000000E+00 0. -1.
          1    1    1    2  502    0 -0.21517274580E+02 -0.28979708514E+02  0.99027987280E+03  0.99093745670E+03  0.00000000000E+00 0. -1.
         22    1    3    3    0    0  0.26024316183E+02  0.53677398092E+01  0.48128019230E+02  0.54976212115E+02  0.00000000000E+00 0.  1.
         22    1    3    3    0    0 -0.84472429381E+02  0.13677716984E+03  0.79758906838E+03  0.81362885121E+03  0.00000000000E+00 0.  1.
</event>
<event>
 7    1  0.6262315E-006  0.2505981E+02  0.7818608E-02  0.1684495E+00
          2   -1    0    0  502    0  0.00000000000E+00  0.00000000000E+00  0.90680585771E+02  0.90680585771E+02  0.00000000000E+00 0. -1.
          1   -1    0    0  501    0 -0.00000000000E+00 -0.00000000000E+00 -0.47858868669E+03  0.47858868669E+03  0.00000000000E+00 0. -1.
         25    2    1    2    0    0  0.29678285090E+02 -0.26466448071E+02 -0.24302996439E+03  0.27616965026E+03  0.12499935463E+03 0.  0.
          2    1    1    2  501    0 -0.24071702156E+02  0.52728863937E+01 -0.21665376612E+03  0.21805069261E+03  0.00000000000E+00 0. -1.
          1    1    1    2  502    0 -0.56065829340E+01  0.21193561677E+02  0.71775629589E+02  0.75048929583E+02  0.00000000000E+00 0. -1.
         22    1    3    3    0    0 -0.22330350320E+02  0.24476056630E+01  0.33438632850E+01  0.22711599252E+02  0.00000000000E+00 0.  1.
         22    1    3    3    0    0  0.52008635410E+02 -0.28914053734E+02 -0.24637382767E+03  0.25345805101E+03  0.00000000000E+00 0.  1.
</event>
<event>
 7    1  0.6262315E-006  0.8980610E+02  0.7818608E-02  0.1352457E+00
          2   -1    0    0  502    0  0.00000000000E+00  0.00000000000E+00  0.47156471781E+03  0.47156471781E+03  0.00000000000E+00 0. -1.
          1   -1    0    0  501    0 -0.00000000000E+00 -0.00000000000E+00 -0.21126718697E+04  0.21126718697E+04  0.00000000000E+00 0. -1.
         25    2    1    2    0    0  0.35016266905E+02  0.36261261838E+02 -0.22818984454E+03  0.26502254815E+03  0.12500131127E+03 0.  0.
          2    1    1    2  501    0 -0.16273630878E+02 -0.91359581648E+02 -0.18630374003E+04  0.18653470881E+04  0.00000000000E+00 0. -1.
          1    1    1    2  502    0 -0.18742636028E+02  0.55098319810E+02  0.45012009301E+03  0.45386695119E+03  0.00000000000E+00 0. -1.
         22    1    3    3    0    0  0.26782341637E+02  0.69190777007E+02 -0.65942524683E+02  0.99262651626E+02  0.00000000000E+00 0.  1.
         22    1    3    3    0    0  0.82339252687E+01 -0.32929515169E+02 -0.16224731986E+03  0.16575989652E+03  0.00000000000E+00 0.  1.
</event>
<event>
 7    1  0.6262315E-006  0.5944882E+02  0.7818608E-02  0.1460110E+00
          2   -1    0    0  502    0  0.00000000000E+00  0.00000000000E+00  0.30092599781E+03  0.30092599781E+03  0.00000000000E+00 0. -1.
          1   -1    0    0  501    0 -0.00000000000E+00 -0.00000000000E+00 -0.19112423733E+04  0.19112423733E+04  0.00000000000E+00 0. -1.
         25    2    1    2    0    0  0.94161008809E+02  0.15880333058E+02  0.57481181242E+02  0.16747368260E+03  0.12499947043E+03 0.  0.
          2    1    1    2  501    0 -0.59282381312E+02 -0.14830371804E+01 -0.18538784125E+04  0.18548266141E+04  0.00000000000E+00 0. -1.
          1    1    1    2  502    0 -0.34878627497E+02 -0.14397295878E+02  0.18608085578E+03  0.18986807439E+03  0.00000000000E+00 0. -1.
         22    1    3    3    0    0  0.45412928761E+02 -0.31189194802E+02  0.79055922288E+02  0.96358387387E+02  0.00000000000E+00 0. -1.
         22    1    3    3    0    0  0.48748080048E+02  0.47069527860E+02 -0.21574741046E+02  0.71115295208E+02  0.00000000000E+00 0. -1.
</event>
<event>
 7    1  0.6262315E-006  0.1265963E+03  0.7818608E-02  0.1275936E+00
          2   -1    0    0  502    0  0.00000000000E+00  0.00000000000E+00  0.32572510434E+04  0.32572510434E+04  0.00000000000E+00 0. -1.
          1   -1    0    0  501    0 -0.00000000000E+00 -0.00000000000E+00 -0.12685371866E+04  0.12685371866E+04  0.00000000000E+00 0. -1.
         25    2    1    2    0    0 -0.80138971408E+02  0.13154229392E+02  0.60825253479E+02  0.16100185713E+03  0.12500639204E+03 0.  0.
          2    1    1    2  501    0 -0.56622398370E+01  0.82152658958E+02 -0.12157487709E+04  0.12185344453E+04  0.00000000000E+00 0. -1.
          1    1    1    2  502    0  0.85801211245E+02 -0.95306888350E+02  0.31436373743E+04  0.31462519276E+04  0.00000000000E+00 0. -1.
         22    1    3    3    0    0 -0.11033539756E+03 -0.46588891410E+01  0.30297218654E+02  0.11451430767E+03  0.00000000000E+00 0.  1.
         22    1    3    3    0    0  0.30196426156E+02  0.17813118533E+02  0.30528034825E+02  0.46487549460E+02  0.00000000000E+00 0.  1.
</event>
<event>
 7    1  0.6262315E-006  0.1083939E+03  0.7818608E-02  0.1330270E+00
          2   -1    0    0  502    0  0.00000000000E+00  0.00000000000E+00  0.12664685507E+04  0.12664685507E+04  0.00000000000E+00 0. -1.
          1   -1    0    0  501    0 -0.00000000000E+00 -0.00000000000E+00 -0.38535846900E+03  0.38535846900E+03  0.00000000000E+00 0. -1.
         25    2    1    2    0    0 -0.11780794382E+03 -0.49555546322E+02 -0.23730518267E+02  0.18034045719E+03  0.12500031682E+03 0.  0.
          2    1    1    2  501    0  0.69304775578E+02  0.82108085566E+02 -0.27238564956E+03  0.29281193916E+03  0.00000000000E+00 0. -1.
          1    1    1    2  502    0  0.48503168243E+02 -0.32552539245E+02  0.11772262495E+04  0.11786746233E+04  0.00000000000E+00 0. -1.
         22    1    3    3    0    0  0.23761752685E+02  0.63836353030E+01 -0.12782173666E+02  0.27726443226E+02  0.00000000000E+00 0.  1.
         22    1    3    3    0    0 -0.14156969651E+03 -0.55939181625E+02 -0.10948344602E+02  0.15261401397E+03  0.00000000000E+00 0.  1.
</event>
<event>
 7    1  0.6262315E-006  0.1442071E+03  0.7818608E-02  0.1239094E+00
          2   -1    0    0  502    0  0.00000000000E+00  0.00000000000E+00  0.15016537124E+04  0.15016537124E+04  0.00000000000E+00 0. -1.
          1   -1    0    0  501    0 -0.00000000000E+00 -0.00000000000E+00 -0.19312678189E+03  0.19312678189E+03  0.00000000000E+00 0. -1.
         25    2    1    2    0    0  0.77430082018E+02 -0.60595950157E+02  0.29078643450E+03  0.33143450520E+03  0.12499917587E+03 0.  0.
          2    1    1    2  501    0  0.84351438801E+02  0.60820364464E+02 -0.15106431821E+03  0.18339768319E+03  0.00000000000E+00 0. -1.
          1    1    1    2  502    0 -0.16178152082E+03 -0.22441430715E+00  0.11688048142E+04  0.11799483059E+04  0.00000000000E+00 0. -1.
         22    1    3    3    0    0  0.69347548429E+02  0.11919617940E+02  0.21504876359E+03  0.22626782910E+03  0.00000000000E+00 0.  1.
         22    1    3    3    0    0  0.80825335891E+01 -0.72515568097E+02  0.75737670915E+02  0.10516667610E+03  0.00000000000E+00 0.  1.
</event>
<event>
 7    1  0.6262315E-006  0.4244561E+03  0.7818608E-02  0.1237324E+00
          2   -1    0    0  502    0  0.00000000000E+00  0.00000000000E+00  0.28719440075E+04  0.28719440075E+04  0.00000000000E+00 0. -1.
          1   -1    0    0  501    0 -0.00000000000E+00 -0.00000000000E+00 -0.45839320646E+03  0.45839320646E+03  0.00000000000E+00 0. -1.
         25    2    1    2    0    0  0.25267562672E+03 -0.37545843032E+03  0.39438532734E+03  0.61317054760E+03  0.12499731512E+03 0.  0.
          2    1    1    2  501    0 -0.22664946578E+03  0.35062480618E+03 -0.22394269898E+03  0.47377005759E+03  0.00000000000E+00 0. -1.
          1    1    1    2  502    0 -0.26026160936E+02  0.24833624140E+02  0.22431081727E+04  0.22433966088E+04  0.00000000000E+00 0. -1.
         22    1    3    3    0    0  0.19228735576E+03 -0.30882312315E+03  0.24431592183E+03  0.43821960046E+03  0.00000000000E+00 0. -1.
         22    1    3    3    0    0  0.60388270959E+02 -0.66635307171E+02  0.15006940552E+03  0.17495094714E+03  0.00000000000E+00 0. -1.
</event>
<event>
 7    1  0.6262315E-006  0.5017162E+02  0.7818608E-02  0.1536302E+00
          2   -1    0    0  502    0  0.00000000000E+00  0.00000000000E+00  0.14710568494E+04  0.14710568494E+04  0.00000000000E+00 0. -1.
          1   -1    0    0  501    0 -0.00000000000E+00 -0.00000000000E+00 -0.71170497390E+02  0.71170497390E+02  0.00000000000E+00 0. -1.
         25    2    1    2    0    0 -0.35001688431E+02  0.32025086278E+02  0.36808019218E+03  0.39161025998E+03  0.12499937399E+03 0.  0.
          2    1    1    2  501    0  0.20640727654E+02  0.16530386716E+02 -0.55844114792E+02  0.61788821642E+02  0.00000000000E+00 0. -1.
          1    1    1    2  502    0  0.14360960777E+02 -0.48555472994E+02  0.10876502746E+04  0.10888282652E+04  0.00000000000E+00 0. -1.
         22    1    3    3    0    0  0.51506082513E+01 -0.45113331170E+02  0.10121822046E+03  0.11093633114E+03  0.00000000000E+00 0. -1.
         22    1    3    3    0    0 -0.40152296682E+02  0.77138417447E+02  0.26686197172E+03  0.28067392883E+03  0.00000000000E+00 0. -1.
</event>
<event>
 7    1  0.6262315E-006  0.3156777E+03  0.7818608E-02  0.1249330E+00
          2   -1    0    0  502    0  0.00000000000E+00  0.00000000000E+00  0.21975051642E+04  0.21975051642E+04  0.00000000000E+00 0. -1.
          1   -1    0    0  501    0 -0.00000000000E+00 -0.00000000000E+00 -0.14353865623E+04  0.14353865623E+04  0.00000000000E+00 0. -1.
         25    2    1    2    0    0  0.16451118575E+03 -0.22685304798E+03  0.13472107574E+03  0.33511122258E+03  0.12499411038E+03 0.  0.
          2    1    1    2  501    0 -0.17019299767E+03  0.26932053835E+03 -0.13159473783E+04  0.13539633345E+04  0.00000000000E+00 0. -1.
          1    1    1    2  502    0  0.56818119118E+01 -0.42467490364E+02  0.19433449044E+04  0.19438171694E+04  0.00000000000E+00 0. -1.
         22    1    3    3    0    0  0.10029112619E+03 -0.18064363560E+03  0.14897100339E+03  0.25472100998E+03  0.00000000000E+00 0.  1.
         22    1    3    3    0    0  0.64220059565E+02 -0.46209412388E+02 -0.14249927647E+02  0.80390212599E+02  0.00000000000E+00 0.  1.
</event>
<event>
 7    1  0.6262315E-006  0.1052841E+03  0.7818608E-02  0.1304543E+00
          2   -1    0    0  502    0  0.00000000000E+00  0.00000000000E+00  0.11659370249E+03  0.11659370249E+03  0.00000000000E+00 0. -1.
          1   -1    0    0  501    0 -0.00000000000E+00 -0.00000000000E+00 -0.19491162744E+04  0.19491162744E+04  0.00000000000E+00 0. -1.
         25    2    1    2    0    0 -0.34259756249E+02 -0.16164668333E+03 -0.37658866733E+03  0.42982754757E+03  0.12501725945E+03 0.  0.
          2    1    1    2  501    0 -0.16745843934E+02  0.73877456533E+02 -0.15160251216E+04  0.15179164902E+04  0.00000000000E+00 0. -1.
          1    1    1    2  502    0  0.51005600183E+02  0.87769226797E+02  0.60091217049E+02  0.11796593911E+03  0.00000000000E+00 0. -1.
         22    1    3    3    0    0 -0.65668343995E+02 -0.10642521548E+03 -0.15415981894E+03  0.19850417544E+03  0.00000000000E+00 0.  1.
         22    1    3    3    0    0  0.31408587746E+02 -0.55221467848E+02 -0.22242884840E+03  0.23132337213E+03  0.00000000000E+00 0.  1.
</event>
<event>
 7    1  0.6262315E-006  0.5968322E+02  0.7818608E-02  0.1521281E+00
          2   -1    0    0  502    0  0.00000000000E+00  0.00000000000E+00  0.43896700993E+03  0.43896700993E+03  0.00000000000E+00 0. -1.
          1   -1    0    0  501    0 -0.00000000000E+00 -0.00000000000E+00 -0.32904034506E+03  0.32904034506E+03  0.00000000000E+00 0. -1.
         25    2    1    2    0    0  0.65830586861E+01 -0.61018083650E+02 -0.18892813642E+03  0.23470674180E+03  0.12500748266E+03 0.  0.
          2    1    1    2  501    0  0.17743000762E+02  0.57712868256E+02 -0.10905440533E+03  0.12465332952E+03  0.00000000000E+00 0. -1.
          1    1    1    2  502    0 -0.24326059448E+02  0.33052153942E+01  0.40790920662E+03  0.40864728368E+03  0.00000000000E+00 0. -1.
         22    1    3    3    0    0 -0.43160462208E+02 -0.75787635105E+02 -0.11305257189E+03  0.14278471607E+03  0.00000000000E+00 0. -1.
         22    1    3    3    0    0  0.49743520894E+02  0.14769551455E+02 -0.75875564523E+02  0.91922025721E+02  0.00000000000E+00 0. -1.
</event>
<event>
 7    1  0.6262315E-006  0.1297248E+03  0.7818608E-02  0.1366801E+00
          2   -1    0    0  502    0  0.00000000000E+00  0.00000000000E+00  0.33692450017E+03  0.33692450017E+03  0.00000000000E+00 0. -1.
          1   -1    0    0  501    0 -0.00000000000E+00 -0.00000000000E+00 -0.97097087502E+03  0.97097087502E+03  0.00000000000E+00 0. -1.
         25    2    1    2    0    0  0.53652984642E+02 -0.83061644590E+02 -0.21336665555E+03  0.26632288168E+03  0.12499867217E+03 0.  0.
          2    1    1    2  501    0  0.31087921751E+02 -0.17576284728E+02 -0.71672271394E+03  0.71761189604E+03  0.00000000000E+00 0. -1.
          1    1    1    2  502    0 -0.84740906392E+02  0.10063792932E+03  0.29604299464E+03  0.32396059746E+03  0.00000000000E+00 0. -1.
         22    1    3    3    0    0  0.12865450089E+02  0.33500353000E+02 -0.48806064329E+02  0.60579083621E+02  0.00000000000E+00 0. -1.
         22    1    3    3    0    0  0.40787534552E+02 -0.11656199759E+03 -0.16456059122E+03  0.20574379806E+03  0.00000000000E+00 0. -1.
</event>
<event>
 7    1  0.6262315E-006  0.5070424E+02  0.7818608E-02  0.1449255E+00
          2   -1    0    0  502    0  0.00000000000E+00  0.00000000000E+00  0.23538931849E+04  0.23538931849E+04  0.00000000000E+00 0. -1.
          1   -1    0    0  501    0 -0.00000000000E+00 -0.00000000000E+00 -0.73027263354E+02  0.73027263354E+02  0.00000000000E+00 0. -1.
         25    2    1    2    0    0 -0.57489660373E+01 -0.81286392892E+01  0.99246044750E+02  0.15992156205E+03  0.12500401283E+03 0.  0.
          2    1    1    2  501    0 -0.28660555631E+02  0.45369807029E+02 -0.25417424737E+02  0.59379224643E+02  0.00000000000E+00 0. -1.
          1    1    1    2  502    0  0.34409521668E+02 -0.37241167740E+02  0.22070373015E+04  0.22076196616E+04  0.00000000000E+00 0. -1.
         22    1    3    3    0    0 -0.58180610160E+02  0.14044158273E+01  0.87925460249E+02  0.10544117954E+03  0.00000000000E+00 0.  1.
         22    1    3    3    0    0  0.52431644123E+02 -0.95330551164E+01  0.11320584501E+02  0.54480382513E+02  0.00000000000E+00 0.  1.
</event>
<event>
 7    1  0.6262315E-006  0.7613059E+02  0.7818608E-02  0.1441018E+00
          2   -1    0    0  502    0  0.00000000000E+00  0.00000000000E+00  0.18164374511E+04  0.18164374511E+04  0.00000000000E+00 0. -1.
          1   -1    0    0  501    0 -0.00000000000E+00 -0.00000000000E+00 -0.11722202622E+02  0.11722202622E+02  0.00000000000E+00 0. -1.
         25    2    1    2    0    0 -0.60856606222E+02  0.15789179391E+02  0.66417750230E+03  0.67875587512E+03  0.12499983496E+03 0.  0.
          2    1    1    2  501    0 -0.17089937651E+01  0.33868541983E+02  0.95948571240E+02  0.10176505844E+03  0.00000000000E+00 0. -1.
          1    1    1    2  502    0  0.62565599987E+02 -0.49657721374E+02  0.10445891750E+04  0.10476387202E+04  0.00000000000E+00 0. -1.
         22    1    3    3    0    0  0.39013909042E+02  0.59110779520E+01  0.17590137923E+03  0.18027290744E+03  0.00000000000E+00 0.  1.
         22    1    3    3    0    0 -0.99870515264E+02  0.98781014392E+01  0.48827612308E+03  0.49848296769E+03  0.00000000000E+00 0.  1.
</event>
<event>
 7    1  0.6262315E-006  0.5398837E+02  0.7818608E-02  0.1556242E+00
          2   -1    0    0  502    0  0.00000000000E+00  0.00000000000E+00  0.24907165928E+04  0.24907165928E+04  0.00000000000E+00 0. -1.
          1   -1    0    0  501    0 -0.00000000000E+00 -0.00000000000E+00 -0.10553557150E+03  0.10553557150E+03  0.00000000000E+00 0. -1.
         25    2    1    2    0    0 -0.30930046863E+01 -0.42317570044E+02  0.40398714382E+03  0.42500745043E+03  0.12500150854E+03 0.  0.
          2    1    1    2  501    0  0.19310984042E+02 -0.96920362941E+01 -0.93434960250E+02  0.95900685446E+02  0.00000000000E+00 0. -1.
          1    1    1    2  502    0 -0.16217979356E+02  0.52009606338E+02  0.20746288377E+04  0.20753440284E+04  0.00000000000E+00 0. -1.
         22    1    3    3    0    0  0.19347241003E+02 -0.21853769690E+02  0.39081605048E+03  0.39190443771E+03  0.00000000000E+00 0.  1.
         22    1    3    3    0    0 -0.22440245689E+02 -0.20463800354E+02  0.13171093341E+02  0.33103012723E+02  0.00000000000E+00 0.  1.
</event>
<event>
 7    1  0.6262315E-006  0.9059196E+02  0.7818608E-02  0.1461438E+00
          2   -1    0    0  502    0  0.00000000000E+00  0.00000000000E+00  0.92692961984E+03  0.92692961984E+03  0.00000000000E+00 0. -1.
          1   -1    0    0  501    0 -0.00000000000E+00 -0.00000000000E+00 -0.88106836357E+02  0.88106836357E+02  0.00000000000E+00 0. -1.
         25    2    1    2    0    0 -0.50759313080E+02 -0.70928292019E+02  0.48560981361E+03  0.50896698436E+03  0.12499267825E+03 0.  0.
          2    1    1    2  501    0  0.70907711837E+02  0.56946953192E+02 -0.48867420607E+02  0.10324187073E+03  0.00000000000E+00 0. -1.
          1    1    1    2  502    0 -0.20148398757E+02  0.13981338827E+02  0.40208039048E+03  0.40282760111E+03  0.00000000000E+00 0. -1.
         22    1    3    3    0    0 -0.15134782375E+02  0.28724061776E+02  0.23052936458E+03  0.23280447010E+03  0.00000000000E+00 0. -1.
         22    1    3    3    0    0 -0.35624530704E+02 -0.99652353795E+02  0.25508044903E+03  0.27616251426E+03  0.00000000000E+00 0. -1.
</event>
<event>
 7    1  0.6262315E-006  0.5776087E+02  0.7818608E-02  0.1529305E+00
          2   -1    0    0  502    0  0.00000000000E+00  0.00000000000E+00  0.24322978126E+03  0.24322978126E+03  0.00000000000E+00 0. -1.
          1   -1    0    0  501    0 -0.00000000000E+00 -0.00000000000E+00 -0.37840661966E+03  0.37840661966E+03  0.00000000000E+00 0. -1.
         25    2    1    2    0    0  0.49665724505E+02 -0.30924147427E+02  0.80432128824E+02  0.15973919241E+03  0.12499718061E+03 0.  0.
          2    1    1    2  501    0 -0.32549588882E+02  0.47819970989E+02 -0.33507638896E+03  0.34003295694E+03  0.00000000000E+00 0. -1.
          1    1    1    2  502    0 -0.17116135623E+02 -0.16895823562E+02  0.11946742175E+03  0.12186425157E+03  0.00000000000E+00 0. -1.
         22    1    3    3    0    0  0.11397474414E+02  0.39205749365E+02 -0.68661828547E+01  0.41402145757E+02  0.00000000000E+00 0. -1.
         22    1    3    3    0    0  0.38268250091E+02 -0.70129896792E+02  0.87298311679E+02  0.11833704666E+03  0.00000000000E+00 0. -1.
</event>
<event>
 7    1  0.6262315E-006  0.2983492E+02  0.7818608E-02  0.1616345E+00
          2   -1    0    0  502    0  0.00000000000E+00  0.00000000000E+00  0.82561743712E+03  0.82561743712E+03  0.00000000000E+00 0. -1.
          1   -1    0    0  501    0 -0.00000000000E+00 -0.00000000000E+00 -0.94336320291E+03  0.94336320291E+03  0.00000000000E+00 0. -1.
         25    2    1    2    0    0  0.13149176243E+02  0.21490180005E+01 -0.36990838447E+03  0.39067767301E+03  0.12497724661E+03 0.  0.
          2    1    1    2  501    0  0.36825388153E+01 -0.26803717426E+02 -0.56247161903E+03  0.56312194290E+03  0.00000000000E+00 0. -1.
          1    1    1    2  502    0 -0.16831715059E+02  0.24654699425E+02  0.81463423772E+03  0.81518102412E+03  0.00000000000E+00 0. -1.
         22    1    3    3    0    0 -0.56939659078E+01 -0.57102620240E+02 -0.11806170785E+03  0.13126955986E+03  0.00000000000E+00 0. -1.
         22    1    3    3    0    0  0.18843142151E+02  0.59251638240E+02 -0.25184667663E+03  0.25940811315E+03  0.00000000000E+00 0. -1.
</event>
<event>
 7    1  0.6262315E-006  0.1888806E+03  0.7818608E-02  0.1206664E+00
          2   -1    0    0  502    0  0.00000000000E+00  0.00000000000E+00  0.13007404235E+04  0.13007404235E+04  0.00000000000E+00 0. -1.
          1   -1    0    0  501    0 -0.00000000000E+00 -0.00000000000E+00 -0.39211207523E+03  0.39211207523E+03  0.00000000000E+00 0. -1.
         25    2    1    2    0    0 -0.14738539455E+03 -0.56356024193E+02  0.67582891623E+03  0.70517222103E+03  0.12499872521E+03 0.  0.
          2    1    1    2  501    0  0.10514620828E+03  0.15946240070E+03 -0.34763196579E+03  0.39665093721E+03  0.00000000000E+00 0. -1.
          1    1    1    2  502    0  0.42239186268E+02 -0.10310637651E+03  0.58043139782E+03  0.59102934048E+03  0.00000000000E+00 0. -1.
         22    1    3    3    0    0 -0.81900065796E+00  0.21363944118E+02  0.22209469846E+02  0.30827737854E+02  0.00000000000E+00 0.  1.
         22    1    3    3    0    0 -0.14656639389E+03 -0.77719968311E+02  0.65361944639E+03  0.67434448318E+03  0.00000000000E+00 0.  1.
</event>
<event>
 7    1  0.6262315E-006  0.1639259E+03  0.7818608E-02  0.1264787E+00
          2   -1    0    0  502    0  0.00000000000E+00  0.00000000000E+00  0.41054540291E+03  0.41054540291E+03  0.00000000000E+00 0. -1.
          1   -1    0    0  501    0 -0.00000000000E+00 -0.00000000000E+00 -0.20683164949E+04  0.20683164949E+04  0.00000000000E+00 0. -1.
         25    2    1    2    0    0  0.78265270778E+02 -0.20419881719E+03 -0.36230192621E+03  0.44125991372E+03  0.12500006468E+03 0.  0.
          2    1    1    2  501    0 -0.25460029386E+02  0.15699178109E+03 -0.16593182424E+04  0.16669228123E+04  0.00000000000E+00 0. -1.
          1    1    1    2  502    0 -0.52805241392E+02  0.47207036101E+02  0.36384907669E+03  0.37067917177E+03  0.00000000000E+00 0. -1.
         22    1    3    3    0    0  0.10045817365E+03 -0.19694705830E+03 -0.35215150892E+03  0.41580124298E+03  0.00000000000E+00 0.  1.
         22    1    3    3    0    0 -0.22192902871E+02 -0.72517588928E+01 -0.10150417283E+02  0.25458670741E+02  0.00000000000E+00 0.  1.
</event>
<event>
 7    1  0.6262315E-006  0.1044477E+03  0.7818608E-02  0.1428939E+00
          2   -1    0    0  502    0  0.00000000000E+00  0.00000000000E+00  0.64701723116E+02  0.64701723116E+02  0.00000000000E+00 0. -1.
          1   -1    0    0  501    0 -0.00000000000E+00 -0.00000000000E+00 -0.10784024431E+04  0.10784024431E+04  0.00000000000E+00 0. -1.
         25    2    1    2    0    0 -0.10036258886E+03  0.77954009346E+02 -0.31493099614E+03  0.36187536798E+03  0.12499109089E+03 0.  0.
          2    1    1    2  501    0  0.83899027425E+02 -0.56465706672E+02 -0.73166848013E+03  0.73862452413E+03  0.00000000000E+00 0. -1.
          1    1    1    2  502    0  0.16463561430E+02 -0.21488302674E+02  0.32898756290E+02  0.42604274107E+02  0.00000000000E+00 0. -1.
         22    1    3    3    0    0  0.13013901303E+02 -0.15899123329E+02 -0.91000940952E+01  0.22471214081E+02  0.00000000000E+00 0.  1.
         22    1    3    3    0    0 -0.11337649016E+03  0.93853132675E+02 -0.30583090205E+03  0.33940415390E+03  0.00000000000E+00 0.  1.
</event>
<event>
 7    1  0.6262315E-006  0.8032691E+02  0.7818608E-02  0.1411975E+00
          2   -1    0    0  502    0  0.00000000000E+00  0.00000000000E+00  0.22152984623E+04  0.22152984623E+04  0.00000000000E+00 0. -1.
          1   -1    0    0  501    0 -0.00000000000E+00 -0.00000000000E+00 -0.31223888610E+03  0.31223888610E+03  0.00000000000E+00 0. -1.
         25    2    1    2    0    0 -0.60211578136E+02 -0.52139076327E+02  0.24436351180E+03  0.28580338496E+03  0.12500452606E+03 0.  0.
          2    1    1    2  501    0  0.27711196175E+02  0.75629763680E+02 -0.28574450378E+03  0.29687993025E+03  0.00000000000E+00 0. -1.
          1    1    1    2  502    0  0.32500381961E+02 -0.23490687353E+02  0.19444405682E+04  0.19448540332E+04  0.00000000000E+00 0. -1.
         22    1    3    3    0    0  0.93469191769E+01  0.30710381608E+02  0.23220597007E+02  0.39619295324E+02  0.00000000000E+00 0. -1.
         22    1    3    3    0    0 -0.69558497313E+02 -0.82849457935E+02  0.22114291479E+03  0.24618408964E+03  0.00000000000E+00 0. -1.
</event>
<event>
 7    1  0.6262315E-006  0.5361206E+02  0.7818608E-02  0.1439013E+00
          2   -1    0    0  502    0  0.00000000000E+00  0.00000000000E+00  0.32294679280E+04  0.32294679280E+04  0.00000000000E+00 0. -1.
          1   -1    0    0  501    0 -0.00000000000E+00 -0.00000000000E+00 -0.26248734684E+03  0.26248734684E+03  0.00000000000E+00 0. -1.
         25    2    1    2    0    0  0.89671265797E+01 -0.65573144693E+02  0.26500444298E+03  0.30038799308E+03  0.12500137969E+03 0.  0.
          2    1    1    2  501    0 -0.43710144264E+02  0.31186995784E+02 -0.24164570221E+03  0.24753959443E+03  0.00000000000E+00 0. -1.
          1    1    1    2  502    0  0.34743017685E+02  0.34386148908E+02  0.29436218404E+04  0.29440276874E+04  0.00000000000E+00 0. -1.
         22    1    3    3    0    0  0.32278122088E+02  0.28994180098E+02  0.95481840215E+02  0.10487764994E+03  0.00000000000E+00 0. -1.
         22    1    3    3    0    0 -0.23310995509E+02 -0.94567324791E+02  0.16952260276E+03  0.19551034315E+03  0.00000000000E+00 0. -1.
</event>
<event>
 7    1  0.6262315E-006  0.7895882E+02  0.7818608E-02  0.1461822E+00
          2   -1    0    0  502    0  0.00000000000E+00  0.00000000000E+00  0.45616447625E+03  0.45616447625E+03  0.00000000000E+00 0. -1.
          1   -1    0    0  501    0 -0.00000000000E+00 -0.00000000000E+00 -0.17629082320E+03  0.17629082320E+03  0.00000000000E+00 0. -1.
         25    2    1    2    0    0  0.71692226626E+02 -0.55399090696E+02  0.10455772165E+03  0.18645538370E+03  0.12499783336E+03 0.  0.
          2    1    1    2  501    0  0.13323625064E+01  0.28027604803E+02 -0.12891465846E+03  0.13193297915E+03  0.00000000000E+00 0. -1.
          1    1    1    2  502    0 -0.73024589132E+02  0.27371485893E+02  0.30423058986E+03  0.31406693660E+03  0.00000000000E+00 0. -1.
         22    1    3    3    0    0 -0.88885599434E+01 -0.26600046162E+02  0.96513270299E+02  0.10050562321E+03  0.00000000000E+00 0.  1.
         22    1    3    3    0    0  0.80580786569E+02 -0.28799044535E+02  0.80444513512E+01  0.85949760487E+02  0.00000000000E+00 0.  1.
</event>
<event>
 7    1  0.6262315E-006  0.1293757E+03  0.7818608E-02  0.1279776E+00
          2   -1    0    0  502    0  0.00000000000E+00  0.00000000000E+00  0.75664427103E+03  0.75664427103E+03  0.00000000000E+00 0. -1.
          1   -1    0    0  501    0 -0.00000000000E+00 -0.00000000000E+00 -0.79622297691E+03  0.79622297691E+03  0.00000000000E+00 0. -1.
         25    2    1    2    0    0  0.23523801704E+00 -0.13700549303E+03  0.48536499153E+02  0.19170727758E+03  0.12500131227E+03 0.  0.
          2    1    1    2  501    0 -0.72336674532E+02  0.10810594134E+03 -0.71638919457E+03  0.72810230540E+03  0.00000000000E+00 0. -1.
          1    1    1    2  502    0  0.72101436515E+02  0.28899551686E+02  0.62827398954E+03  0.63305766496E+03  0.00000000000E+00 0. -1.
         22    1    3    3    0    0  0.19056263809E+02 -0.60901269617E+02 -0.38532697447E+02  0.74544447170E+02  0.00000000000E+00 0.  1.
         22    1    3    3    0    0 -0.18821025792E+02 -0.76104223414E+02  0.87069196600E+02  0.11716283041E+03  0.00000000000E+00 0.  1.
</event>
<event>
 7    1  0.6262315E-006  0.1308065E+03  0.7818608E-02  0.1306755E+00
          2   -1    0    0  502    0  0.00000000000E+00  0.00000000000E+00  0.75536918881E+02  0.75536918881E+02  0.00000000000E+00 0. -1.
          1   -1    0    0  501    0 -0.00000000000E+00 -0.00000000000E+00 -0.23737243212E+04  0.23737243212E+04  0.00000000000E+00 0. -1.
         25    2    1    2    0    0  0.49712719462E+02  0.69235428177E+02 -0.83251254508E+02  0.17268690766E+03  0.12500039083E+03 0.  0.
          2    1    1    2  501    0 -0.37367756587E+02 -0.12769753259E+03 -0.22127878936E+04  0.22167844440E+04  0.00000000000E+00 0. -1.
          1    1    1    2  502    0 -0.12344962874E+02  0.58462104411E+02 -0.21482541959E+01  0.59789888414E+02  0.00000000000E+00 0. -1.
         22    1    3    3    0    0  0.47101049592E+02  0.47754638650E+02  0.17758181764E+02  0.69385642642E+02  0.00000000000E+00 0.  1.
         22    1    3    3    0    0  0.26116698700E+01  0.21480789526E+02 -0.10100943627E+03  0.10330126502E+03  0.00000000000E+00 0.  1.
</event>
<event>
 7    1  0.6262315E-006  0.1176960E+03  0.7818608E-02  0.1265649E+00
          2   -1    0    0  502    0  0.00000000000E+00  0.00000000000E+00  0.78212108380E+03  0.78212108380E+03  0.00000000000E+00 0. -1.
          1   -1    0    0  501    0 -0.00000000000E+00 -0.00000000000E+00 -0.78799216171E+03  0.78799216171E+03  0.00000000000E+00 0. -1.
         25    2    1    2    0    0 -0.63864423537E+02  0.27406622258E+02  0.39900660268E+02  0.14848355847E+03  0.12500206762E+03 0.  0.
          2    1    1    2  501    0  0.29657097308E+02  0.93222688202E+02 -0.72467332914E+03  0.73124650220E+03  0.00000000000E+00 0. -1.
          1    1    1    2  502    0  0.34207326229E+02 -0.12062931046E+03  0.67890159096E+03  0.69038318485E+03  0.00000000000E+00 0. -1.
         22    1    3    3    0    0  0.10166855776E+02  0.35805761543E+02  0.60633375840E+02  0.71146495218E+02  0.00000000000E+00 0.  1.
         22    1    3    3    0    0 -0.74031279313E+02 -0.83991392855E+01 -0.20732715572E+02  0.77337063252E+02  0.00000000000E+00 0.  1.
</event>
<event>
 7    1  0.6262315E-006  0.1864807E+03  0.7818608E-02  0.1334773E+00
          2   -1    0    0  502    0  0.00000000000E+00  0.00000000000E+00  0.15172628396E+04  0.15172628396E+04  0.00000000000E+00 0. -1.
          1   -1    0    0  501    0 -0.00000000000E+00 -0.00000000000E+00 -0.10350124895E+03  0.10350124895E+03  0.00000000000E+00 0. -1.
         25    2    1    2    0    0 -0.16490621050E+03  0.48640500198E+01  0.26201772316E+03  0.33391007349E+03  0.12499973075E+03 0.  0.
          2    1    1    2  501    0 -0.25631962467E+02 -0.20208280240E+02 -0.55599240886E+02  0.64472068970E+02  0.00000000000E+00 0. -1.
          1    1    1    2  502    0  0.19053817297E+03  0.15344230220E+02  0.12073431084E+04  0.12223819461E+04  0.00000000000E+00 0. -1.
         22    1    3    3    0    0 -0.14618687122E+03 -0.17403531028E+02  0.12287711533E+03  0.19176097017E+03  0.00000000000E+00 0. -1.
         22    1    3    3    0    0 -0.18719339285E+02  0.22267581047E+02  0.13914060783E+03  0.14214910333E+03  0.00000000000E+00 0. -1.
</event>
<event>
 7    1  0.6262315E-006  0.2649609E+03  0.7818608E-02  0.1175028E+00
          2   -1    0    0  502    0  0.00000000000E+00  0.00000000000E+00  0.10456075854E+04  0.10456075854E+04  0.00000000000E+00 0. -1.
          1   -1    0    0  501    0 -0.00000000000E+00 -0.00000000000E+00 -0.55761747707E+03  0.55761747707E+03  0.00000000000E+00 0. -1.
         25    2    1    2    0    0 -0.50523581114E+01 -0.27929829512E+03  0.12465325713E+03  0.33045488049E+03  0.12501571720E+03 0.  0.
          2    1    1    2  501    0 -0.10613116283E+03  0.37635631379E+02 -0.42557310529E+03  0.44021895964E+03  0.00000000000E+00 0. -1.
          1    1    1    2  502    0  0.11118352095E+03  0.24166266374E+03  0.78890995648E+03  0.83255122234E+03  0.00000000000E+00 0. -1.
         22    1    3    3    0    0 -0.41648019923E+02 -0.36860198419E+02  0.47858614936E+00  0.55618889198E+02  0.00000000000E+00 0. -1.
         22    1    3    3    0    0  0.36595661812E+02 -0.24243809670E+03  0.12417467098E+03  0.27483599129E+03  0.00000000000E+00 0. -1.
</event>
<event>
 7    1  0.6262315E-006  0.6802945E+02  0.7818608E-02  0.1484585E+00
          2   -1    0    0  502    0  0.00000000000E+00  0.00000000000E+00  0.62071375055E+03  0.62071375055E+03  0.00000000000E+00 0. -1.
          1   -1    0    0  501    0 -0.00000000000E+00 -0.00000000000E+00 -0.55897092839E+02  0.55897092839E+02  0.00000000000E+00 0. -1.
         25    2    1    2    0    0 -0.36331715316E+02 -0.42165203978E+02  0.23773023505E+03  0.27429669736E+03  0.12500046224E+03 0.  0.
          2    1    1    2  501    0  0.12448275735E+02 -0.24731144371E+02 -0.28481057060E+02  0.39721023173E+02  0.00000000000E+00 0. -1.
          1    1    1    2  502    0  0.23883439581E+02  0.66896348350E+02  0.35556747972E+03  0.36259312286E+03  0.00000000000E+00 0. -1.
         22    1    3    3    0    0 -0.61681841667E+02 -0.62561595087E+02  0.10153192343E+03  0.13426590873E+03  0.00000000000E+00 0.  1.
         22    1    3    3    0    0  0.25350126351E+02  0.20396391108E+02  0.13619831162E+03  0.14003078863E+03  0.00000000000E+00 0.  1.
</event>
<event>
 7    1  0.6262315E-006  0.2294542E+03  0.7818608E-02  0.1259844E+00
          2   -1    0    0  502    0  0.00000000000E+00  0.00000000000E+00  0.16314785976E+04  0.16314785976E+04  0.00000000000E+00 0. -1.
          1   -1    0    0  501    0 -0.00000000000E+00 -0.00000000000E+00 -0.87284460098E+03  0.87284460098E+03  0.00000000000E+00 0. -1.
         25    2    1    2    0    0 -0.24360312534E+03  0.14028195520E+03  0.10665518025E+04  0.11100355129E+04  0.12499833152E+03 0.  0.
          2    1    1    2  501    0  0.20203969753E+03 -0.10721744021E+03 -0.83437545452E+03  0.86515779946E+03  0.00000000000E+00 0. -1.
          1    1    1    2  502    0  0.41563427804E+02 -0.33064514986E+02  0.52645764861E+03  0.52912988619E+03  0.00000000000E+00 0. -1.
         22    1    3    3    0    0 -0.21425573514E+02  0.14628995077E+02  0.32008923281E+03  0.32113887908E+03  0.00000000000E+00 0.  1.
         22    1    3    3    0    0 -0.22217755182E+03  0.12565296012E+03  0.74646256972E+03  0.78889663386E+03  0.00000000000E+00 0.  1.
</event>
<event>
 7    1  0.6262315E-006  0.6070617E+02  0.7818608E-02  0.1534250E+00
          2   -1    0    0  502    0  0.00000000000E+00  0.00000000000E+00  0.18084986619E+04  0.18084986619E+04  0.00000000000E+00 0. -1.
          1   -1    0    0  501    0 -0.00000000000E+00 -0.00000000000E+00 -0.56896191866E+02  0.56896191866E+02  0.00000000000E+00 0. -1.
         25    2    1    2    0    0 -0.41024509542E+02  0.38551759947E+02  0.29305737507E+03  0.32353798755E+03  0.12499982292E+03 0.  0.
          2    1    1    2  501    0 -0.15588622854E+02 -0.15737366523E+02 -0.38044380718E+02  0.44023229912E+02  0.00000000000E+00 0. -1.
          1    1    1    2  502    0  0.56613132396E+02 -0.22814393424E+02  0.14965894757E+04  0.14978336363E+04  0.00000000000E+00 0. -1.
         22    1    3    3    0    0 -0.71447534113E+02  0.41810425664E+02  0.27675159404E+03  0.28886728203E+03  0.00000000000E+00 0. -1.
         22    1    3    3    0    0  0.30423024571E+02 -0.32586657170E+01  0.16305781028E+02  0.34670705519E+02  0.00000000000E+00 0. -1.
</event>
<event>
 7    1  0.6262315E-006  0.1289759E+03  0.7818608E-02  0.1318069E+00
          2   -1    0    0  502    0  0.00000000000E+00  0.00000000000E+00  0.47659974289E+03  0.47659974289E+03  0.00000000000E+00 0. -1.
          1   -1    0    0  501    0 -0.00000000000E+00 -0.00000000000E+00 -0.13924243224E+03  0.13924243224E+03  0.00000000000E+00 0. -1.
         25    2    1    2    0    0 -0.92315379027E+02 -0.10639254838E+03  0.30890027150E+03  0.36178247557E+03  0.12500271333E+03 0.  0.
          2    1    1    2  501    0  0.53962129901E+02 -0.90012906345E+01 -0.76075986910E+02  0.93704271412E+02  0.00000000000E+00 0. -1.
          1    1    1    2  502    0  0.38353249126E+02  0.11539383901E+03  0.10453302605E+03  0.16035542815E+03  0.00000000000E+00 0. -1.
         22    1    3    3    0    0 -0.13428324247E+02 -0.10846210035E+03  0.17289636200E+03  0.20454216949E+03  0.00000000000E+00 0.  1.
         22    1    3    3    0    0 -0.78887054779E+02  0.20695519745E+01  0.13600390950E+03  0.15724030608E+03  0.00000000000E+00 0.  1.
</event>
<event>
 7    1  0.6262315E-006  0.1007583E+03  0.7818608E-02  0.1299887E+00
          2   -1    0    0  502    0  0.00000000000E+00  0.00000000000E+00  0.87912077631E+03  0.87912077631E+03  0.00000000000E+00 0. -1.
          1   -1    0    0  501    0 -0.00000000000E+00 -0.00000000000E+00 -0.97470180410E+03  0.97470180410E+03  0.00000000000E+00 0. -1.
         25    2    1    2    0    0  0.14303576370E+03 -0.69075948311E+01 -0.29696290826E+01  0.19010804605E+03  0.12500122364E+03 0.  0.
          2    1    1    2  501    0 -0.63064909801E+02 -0.53363996161E+02 -0.87301358348E+03  0.87691368781E+03  0.00000000000E+00 0. -1.
          1    1    1    2  502    0 -0.79970853894E+02  0.60271590992E+02  0.78040218477E+03  0.78680084656E+03  0.00000000000E+00 0. -1.
         22    1    3    3    0    0 -0.17514654940E+02 -0.20222189971E+02  0.98239191721E+01  0.28499289338E+02  0.00000000000E+00 0. -1.
         22    1    3    3    0    0  0.16055041863E+03  0.13314595140E+02 -0.12793548255E+02  0.16160875671E+03  0.00000000000E+00 0. -1.
</event>
<event>
 7    1  0.6262315E-006  0.1154620E+03  0.7818608E-02  0.1379243E+00
          2   -1    0    0  502    0  0.00000000000E+00  0.00000000000E+00  0.73498899122E+03  0.73498899122E+03  0.00000000000E+00 0. -1.
          1   -1    0    0  501    0 -0.00000000000E+00 -0.00000000000E+00 -0.99579511131E+03  0.99579511131E+03  0.00000000000E+00 0. -1.
         25    2    1    2    0    0  0.11123513693E+03  0.19800411422E+02 -0.15009108427E+02  0.16916086949E+03  0.12499925781E+03 0.  0.
          2    1    1    2  501    0 -0.11469546928E+03  0.16247745363E+02 -0.89949469057E+03  0.90692322623E+03  0.00000000000E+00 0. -1.
          1    1    1    2  502    0  0.34603323520E+01 -0.36048156784E+02  0.65369767891E+03  0.65470000681E+03  0.00000000000E+00 0. -1.
         22    1    3    3    0    0  0.96491109083E+02  0.48926012617E+00  0.43472552647E+02  0.10583305883E+03  0.00000000000E+00 0. -1.
         22    1    3    3    0    0  0.14744027845E+02  0.19311151296E+02 -0.58481661074E+02  0.63327810664E+02  0.00000000000E+00 0. -1.
</event>
<event>
 7    1  0.6262315E-006  0.2306301E+03  0.7818608E-02  0.1256545E+00
          2   -1    0    0  502    0  0.00000000000E+00  0.00000000000E+00  0.13406584239E+04  0.13406584239E+04  0.00000000000E+00 0. -1.
          1   -1    0    0  501    0 -0.00000000000E+00 -0.00000000000E+00 -0.65310998736E+02  0.65310998736E+02  0.00000000000E+00 0. -1.
         25    2    1    2    0    0  0.74347231148E+02 -0.24128227867E+03  0.59256877085E+03  0.65613082441E+03  0.12500104709E+03 0.  0.
          2    1    1    2  501    0  0.27991079486E+02  0.46863628383E+02  0.32690013134E+02  0.63626544419E+02  0.00000000000E+00 0. -1.
          1    1    1    2  502    0 -0.10233831063E+03  0.19441865029E+03  0.65008864119E+03  0.68621205382E+03  0.00000000000E+00 0. -1.
         22    1    3    3    0    0  0.76555217302E+02 -0.14815728577E+03  0.24554706048E+03  0.29682426035E+03  0.00000000000E+00 0.  1.
         22    1    3    3    0    0 -0.22079861543E+01 -0.93124992895E+02  0.34702171037E+03  0.35930656406E+03  0.00000000000E+00 0.  1.
</event>
<event>
 7    1  0.6262315E-006  0.3368867E+02  0.7818608E-02  0.1642622E+00
          2   -1    0    0  502    0  0.00000000000E+00  0.00000000000E+00  0.29952750256E+04  0.29952750256E+04  0.00000000000E+00 0. -1.
          1   -1    0    0  501    0 -0.00000000000E+00 -0.00000000000E+00 -0.30525330128E+03  0.30525330128E+03  0.00000000000E+00 0. -1.
         25    2    1    2    0    0 -0.33170463117E+02  0.19906203396E+02  0.51426216073E+03  0.53064820793E+03  0.12500165627E+03 0.  0.
          2    1    1    2  501    0 -0.52330842658E+00 -0.20569684035E+02 -0.29658899096E+03  0.29730189254E+03  0.00000000000E+00 0. -1.
          1    1    1    2  502    0  0.33693771543E+02  0.66348063839E+00  0.24723485546E+04  0.24725782264E+04  0.00000000000E+00 0. -1.
         22    1    3    3    0    0 -0.66630723444E+02  0.45590173658E+02  0.24134833361E+03  0.25449388082E+03  0.00000000000E+00 0. -1.
         22    1    3    3    0    0  0.33460260328E+02 -0.25683970262E+02  0.27291382712E+03  0.27615432711E+03  0.00000000000E+00 0. -1.
</event>
<event>
 7    1  0.6262315E-006  0.1837073E+03  0.7818608E-02  0.1241816E+00
          2   -1    0    0  502    0  0.00000000000E+00  0.00000000000E+00  0.13142600481E+04  0.13142600481E+04  0.00000000000E+00 0. -1.
          1   -1    0    0  501    0 -0.00000000000E+00 -0.00000000000E+00 -0.64347189970E+03  0.64347189970E+03  0.00000000000E+00 0. -1.
         25    2    1    2    0    0  0.11684112899E+03  0.21208137162E+02  0.47899116138E+02  0.17894573237E+03  0.12500246119E+03 0.  0.
          2    1    1    2  501    0  0.60381707340E+02  0.51571835492E+02 -0.56752523700E+03  0.57305366191E+03  0.00000000000E+00 0. -1.
          1    1    1    2  502    0 -0.17722283633E+03 -0.72779972654E+02  0.11904142692E+04  0.12057325535E+04  0.00000000000E+00 0. -1.
         22    1    3    3    0    0  0.32353644866E+02  0.67972458582E+02  0.28217010103E+02  0.80394111233E+02  0.00000000000E+00 0.  1.
         22    1    3    3    0    0  0.84487484123E+02 -0.46764321420E+02  0.19682106035E+02  0.98551621140E+02  0.00000000000E+00 0.  1.
</event>
<event>
 7    1  0.6262315E-006  0.8569291E+02  0.7818608E-02  0.1351207E+00
          2   -1    0    0  502    0  0.00000000000E+00  0.00000000000E+00  0.57719827365E+03  0.57719827365E+03  0.00000000000E+00 0. -1.
          1   -1    0    0  501    0 -0.00000000000E+00 -0.00000000000E+00 -0.14832826592E+03  0.14832826592E+03  0.00000000000E+00 0. -1.
         25    2    1    2    0    0 -0.13692660885E+03 -0.34784029589E+02  0.10940708723E+03  0.21806848579E+03  0.12500051534E+03 0.  0.
          2    1    1    2  501    0  0.76419808195E+02  0.22994326449E+02 -0.74216924604E+02  0.10898109025E+03  0.00000000000E+00 0. -1.
          1    1    1    2  502    0  0.60506800650E+02  0.11789703140E+02  0.39367984510E+03  0.39847696353E+03  0.00000000000E+00 0. -1.
         22    1    3    3    0    0 -0.15170556262E+03 -0.17713890636E+02  0.60650543731E+02  0.16433760405E+03  0.00000000000E+00 0. -1.
         22    1    3    3    0    0  0.14778953772E+02 -0.17070138952E+02  0.48756543502E+02  0.53730881742E+02  0.00000000000E+00 0. -1.
</event>
<event>
 7    1  0.6262315E-006  0.1250880E+03  0.7818608E-02  0.1261067E+00
          2   -1    0    0  502    0  0.00000000000E+00  0.00000000000E+00  0.19055306150E+04  0.19055306150E+04  0.00000000000E+00 0. -1.
          1   -1    0    0  501    0 -0.00000000000E+00 -0.00000000000E+00 -0.12316849699E+04  0.12316849699E+04  0.00000000000E+00 0. -1.
         25    2    1    2    0    0 -0.52096878021E+02  0.66074357404E+02 -0.16980920708E+02  0.15164338699E+03  0.12500983858E+03 0.  0.
          2    1    1    2  501    0 -0.74694315655E+02 -0.60719945932E+02 -0.11431572651E+04  0.11472029835E+04  0.00000000000E+00 0. -1.
          1    1    1    2  502    0  0.12679119368E+03 -0.53544114716E+01  0.18339838309E+04  0.18383692144E+04  0.00000000000E+00 0. -1.
         22    1    3    3    0    0  0.23748759367E+02  0.36518711739E+02 -0.47737518048E+02  0.64625772785E+02  0.00000000000E+00 0. -1.
         22    1    3    3    0    0 -0.75845637388E+02  0.29555645664E+02  0.30756597341E+02  0.87017614202E+02  0.00000000000E+00 0. -1.
</event>
<event>
 7    1  0.6262315E-006  0.1340559E+03  0.7818608E-02  0.1239587E+00
          2   -1    0    0  502    0  0.00000000000E+00  0.00000000000E+00  0.65730921892E+03  0.65730921892E+03  0.00000000000E+00 0. -1.
          1   -1    0    0  501    0 -0.00000000000E+00 -0.00000000000E+00 -0.17959424453E+04  0.17959424453E+04  0.00000000000E+00 0. -1.
         25    2    1    2    0    0  0.23793675145E+02  0.59543946959E+02 -0.50360892930E+02  0.14923815892E+03  0.12499675174E+03 0.  0.
          2    1    1    2  501    0 -0.89749991870E+02  0.65833627009E+02 -0.16860287656E+04  0.16896988270E+04  0.00000000000E+00 0. -1.
          1    1    1    2  502    0  0.65956316726E+02 -0.12537757397E+03  0.59775643216E+03  0.61431467829E+03  0.00000000000E+00 0. -1.
         22    1    3    3    0    0  0.22735011276E+02 -0.28236190188E+02 -0.49616048820E+02  0.61448478212E+02  0.00000000000E+00 0.  1.
         22    1    3    3    0    0  0.10586638685E+01  0.87780137148E+02 -0.74484411008E+00  0.87789680713E+02  0.00000000000E+00 0.  1.
</event>
<event>
 7    1  0.6262315E-006  0.4905243E+02  0.7818608E-02  0.1465318E+00
          2   -1    0    0  502    0  0.00000000000E+00  0.00000000000E+00  0.34122672931E+03  0.34122672931E+03  0.00000000000E+00 0. -1.
          1   -1    0    0  501    0 -0.00000000000E+00 -0.00000000000E+00 -0.34582298596E+03  0.34582298596E+03  0.00000000000E+00 0. -1.
         25    2    1    2    0    0  0.79362660817E+02  0.34344319389E+02  0.38710711457E+02  0.15684775251E+03  0.12499893631E+03 0.  0.
          2    1    1    2  501    0 -0.48264994612E+02 -0.31610625851E+01 -0.28269183008E+03  0.28679988288E+03  0.00000000000E+00 0. -1.
          1    1    1    2  502    0 -0.31097666205E+02 -0.31183256804E+02  0.23938486198E+03  0.24340207989E+03  0.00000000000E+00 0. -1.
         22    1    3    3    0    0  0.21381935206E+02  0.57741238800E+02  0.64539189269E+02  0.89199466158E+02  0.00000000000E+00 0.  1.
         22    1    3    3    0    0  0.57980725610E+02 -0.23396919411E+02 -0.25828477812E+02  0.67648286351E+02  0.00000000000E+00 0.  1.
</event>
<event>
 7    1  0.6262315E-006  0.3701343E+02  0.7818608E-02  0.1592719E+00
          2   -1    0    0  502    0  0.00000000000E+00  0.00000000000E+00  0.29718954490E+03  0.29718954490E+03  0.00000000000E+00 0. -1.
          1   -1    0    0  501    0 -0.00000000000E+00 -0.00000000000E+00 -0.73318311149E+03  0.73318311149E+03  0.00000000000E+00 0. -1.
         25    2    1    2    0    0 -0.26520309425E+02 -0.24989238152E+02  0.20431675127E+03  0.24227525270E+03  0.12499669751E+03 0.  0.
          2    1    1    2  501    0  0.36970671020E+02  0.21475878005E+01 -0.71157368868E+03  0.71253670577E+03  0.00000000000E+00 0. -1.
          1    1    1    2  502    0 -0.10450361595E+02  0.22841650352E+02  0.71263370830E+02  0.75560697921E+02  0.00000000000E+00 0. -1.
         22    1    3    3    0    0 -0.12092221224E+02  0.38861709445E+02  0.17464895997E+02  0.44288563617E+02  0.00000000000E+00 0. -1.
         22    1    3    3    0    0 -0.14428088202E+02 -0.63850947597E+02  0.18685185527E+03  0.19798668909E+03  0.00000000000E+00 0. -1.
</event>
<event>
 7    1  0.6262315E-006  0.1793660E+03  0.7818608E-02  0.1277511E+00
          2   -1    0    0  502    0  0.00000000000E+00  0.00000000000E+00  0.18461492890E+04  0.18461492890E+04  0.00000000000E+00 0. -1.
          1   -1    0    0  501    0 -0.00000000000E+00 -0.00000000000E+00 -0.17358486464E+03  0.17358486464E+03  0.00000000000E+00 0. -1.
         25    2    1    2    0    0  0.61202124374E+02  0.18365364943E+03  0.23989039460E+03  0.33263587669E+03  0.12499944825E+03 0.  0.
          2    1    1    2  501    0 -0.10320423028E+03 -0.14474864546E+03 -0.64289157226E+02  0.18904068146E+03  0.00000000000E+00 0. -1.
          1    1    1    2  502    0  0.42002105903E+02 -0.38905003972E+02  0.14969631870E+04  0.14980575955E+04  0.00000000000E+00 0. -1.
         22    1    3    3    0    0  0.99707091710E+02  0.12685298206E+03  0.17776022726E+03  0.24006641079E+03  0.00000000000E+00 0. -1.
         22    1    3    3    0    0 -0.38504967336E+02  0.56800667370E+02  0.62130167346E+02  0.92569465904E+02  0.00000000000E+00 0. -1.
</event>
<event>
 7    1  0.9704489E-006  0.7787304E+02  0.7818608E-02  0.1377913E+00
          2   -1    0    0  502    0  0.00000000000E+00  0.00000000000E+00  0.25258976883E+04  0.25258976883E+04  0.00000000000E+00 0. -1.
          1   -1    0    0  501    0 -0.00000000000E+00 -0.00000000000E+00 -0.14739031238E+04  0.14739031238E+04  0.00000000000E+00 0. -1.
         25    2    1    2    0    0 -0.10092479976E+03  0.44460657786E+02 -0.16963148982E+03  0.23782873091E+03  0.12500039045E+03 0.  0.
          2    1    1    2  501    0  0.51883817366E+02  0.15952640135E+02 -0.12689851989E+04  0.12701456027E+04  0.00000000000E+00 0. -1.
          1    1    1    2  502    0  0.49040982389E+02 -0.60413297922E+02  0.24906112532E+04  0.24918264785E+04  0.00000000000E+00 0. -1.
         22    1    3    3    0    0 -0.22976945209E+02 -0.40499974232E+02 -0.24961039302E+02  0.52832200474E+02  0.00000000000E+00 0. -1.
         22    1    3    3    0    0 -0.77947854547E+02  0.84960632019E+02 -0.14467045051E+03  0.18499653044E+03  0.00000000000E+00 0. -1.
</event>
<event>
 7    1  0.6262315E-006  0.5332740E+02  0.7818608E-02  0.1430630E+00
          2   -1    0    0  502    0  0.00000000000E+00  0.00000000000E+00  0.92684904069E+03  0.92684904069E+03  0.00000000000E+00 0. -1.
          1   -1    0    0  501    0 -0.00000000000E+00 -0.00000000000E+00 -0.61403914388E+02  0.61403914388E+02  0.00000000000E+00 0. -1.
         25    2    1    2    0    0  0.23420080557E+02  0.95421419866E+01  0.12910561407E+03  0.18147600405E+03  0.12500291122E+03 0.  0.
          2    1    1    2  501    0  0.13182918315E+02 -0.50657244885E+02 -0.14188130794E+02  0.54233281756E+02  0.00000000000E+00 0. -1.
          1    1    1    2  502    0 -0.36602998872E+02  0.41115102898E+02  0.75052764303E+03  0.75254366927E+03  0.00000000000E+00 0. -1.
         22    1    3    3    0    0  0.25499867946E+02 -0.45914836540E+02  0.15048061754E+02  0.54633869004E+02  0.00000000000E+00 0.  1.
         22    1    3    3    0    0 -0.20797873890E+01  0.55456978527E+02  0.11405755231E+03  0.12684213504E+03  0.00000000000E+00 0.  1.
</event>
<event>
 7    1  0.6262315E-006  0.1504509E+03  0.7818608E-02  0.1256634E+00
          2   -1    0    0  502    0  0.00000000000E+00  0.00000000000E+00  0.10778212169E+04  0.10778212169E+04  0.00000000000E+00 0. -1.
          1   -1    0    0  501    0 -0.00000000000E+00 -0.00000000000E+00 -0.18240728883E+04  0.18240728883E+04  0.00000000000E+00 0. -1.
         25    2    1    2    0    0 -0.18710362786E+03 -0.50111120423E+02  0.11653431964E+03  0.25830891276E+03  0.12499741922E+03 0.  0.
          2    1    1    2  501    0  0.71858254859E+02 -0.42732468919E+02 -0.17460291280E+04  0.17480295732E+04  0.00000000000E+00 0. -1.
          1    1    1    2  502    0  0.11524537300E+03  0.92843589342E+02  0.88324313699E+03  0.89555561922E+03  0.00000000000E+00 0. -1.
         22    1    3    3    0    0 -0.16161348359E+03 -0.25198924807E+02  0.32136032813E+02  0.16669321670E+03  0.00000000000E+00 0. -1.
         22    1    3    3    0    0 -0.25490144263E+02 -0.24912195616E+02  0.84398286823E+02  0.91615696055E+02  0.00000000000E+00 0. -1.
</event>
<event>
 7    1  0.6262315E-006  0.1189365E+03  0.7818608E-02  0.1309101E+00
          2   -1    0    0  502    0  0.00000000000E+00  0.00000000000E+00  0.23660558170E+04  0.23660558170E+04  0.00000000000E+00 0. -1.
          1   -1    0    0  501    0 -0.00000000000E+00 -0.00000000000E+00 -0.30022110822E+03  0.30022110822E+03  0.00000000000E+00 0. -1.
         25    2    1    2    0    0  0.90041238027E+02  0.38452462952E+02 -0.11014461123E+03  0.19324857518E+03  0.12500863960E+03 0.  0.
          2    1    1    2  501    0 -0.14004058841E+03  0.20179582522E+01 -0.11495522727E+03  0.18119090163E+03  0.00000000000E+00 0. -1.
          1    1    1    2  502    0  0.49999350388E+02 -0.40470421205E+02  0.22909345473E+04  0.22918374484E+04  0.00000000000E+00 0. -1.
         22    1    3    3    0    0  0.97606273288E+02  0.36134901523E+02 -0.24091098617E+02  0.10683209595E+03  0.00000000000E+00 0.  1.
         22    1    3    3    0    0 -0.75650352615E+01  0.23175614293E+01 -0.86053512612E+02  0.86416479229E+02  0.00000000000E+00 0.  1.
</event>
<event>
 7    1  0.6262315E-006  0.5278678E+02  0.7818608E-02  0.1498642E+00
          2   -1    0    0  502    0  0.00000000000E+00  0.00000000000E+00  0.21699075188E+03  0.21699075188E+03  0.00000000000E+00 0. -1.
          1   -1    0    0  501    0 -0.00000000000E+00 -0.00000000000E+00 -0.22586714334E+04  0.22586714334E+04  0.00000000000E+00 0. -1.
         25    2    1    2    0    0  0.52794427872E+02 -0.12896579330E+02 -0.39396767246E+02  0.14188501544E+03  0.12500271583E+03 0.  0.
          2    1    1    2  501    0 -0.34778994778E+02  0.39778860151E+02 -0.21661257481E+04  0.21667701061E+04  0.00000000000E+00 0. -1.
          1    1    1    2  502    0 -0.18015433094E+02 -0.26882280821E+02  0.16384183378E+03  0.16700706377E+03  0.00000000000E+00 0. -1.
         22    1    3    3    0    0 -0.27347630933E+02  0.21391146701E+02  0.16389051800E+02  0.38393685597E+02  0.00000000000E+00 0.  1.
         22    1    3    3    0    0  0.80142058805E+02 -0.34287726031E+02 -0.55785819045E+02  0.10349132984E+03  0.00000000000E+00 0.  1.
</event>
<event>
 7    1  0.6262315E-006  0.8647327E+02  0.7818608E-02  0.1354820E+00
          2   -1    0    0  502    0  0.00000000000E+00  0.00000000000E+00  0.12377013324E+04  0.12377013324E+04  0.00000000000E+00 0. -1.
          1   -1    0    0  501    0 -0.00000000000E+00 -0.00000000000E+00 -0.14409644427E+04  0.14409644427E+04  0.00000000000E+00 0. -1.
         25    2    1    2    0    0  0.28004605467E+02 -0.10898331496E+02  0.78408595012E+02  0.15058285800E+03  0.12499703114E+03 0.  0.
          2    1    1    2  501    0  0.56522146164E+02 -0.17745422086E+02 -0.14024781058E+04  0.14037287809E+04  0.00000000000E+00 0. -1.
          1    1    1    2  502    0 -0.84526751630E+02  0.28643753582E+02  0.11208064005E+04  0.11243541362E+04  0.00000000000E+00 0. -1.
         22    1    3    3    0    0  0.14611030997E+02  0.27362020052E+02 -0.24790273371E+02  0.39707933993E+02  0.00000000000E+00 0.  1.
         22    1    3    3    0    0  0.13393574470E+02 -0.38260351549E+02  0.10319886838E+03  0.11087492401E+03  0.00000000000E+00 0.  1.
</event>
<event>
 7    1  0.6262315E-006  0.1430263E+03  0.7818608E-02  0.1227612E+00
          2   -1    0    0  502    0  0.00000000000E+00  0.00000000000E+00  0.11093174505E+04  0.11093174505E+04  0.00000000000E+00 0. -1.
          1   -1    0    0  501    0 -0.00000000000E+00 -0.00000000000E+00 -0.11710753851E+03  0.11710753851E+03  0.00000000000E+00 0. -1.
         25    2    1    2    0    0 -0.74404745281E+02  0.92396119389E+02  0.98084793521E+02  0.19828607873E+03  0.12499453308E+03 0.  0.
          2    1    1    2  501    0  0.17704663310E+03 -0.34246809347E+02  0.66579104150E+02  0.19222677064E+03  0.00000000000E+00 0. -1.
          1    1    1    2  502    0 -0.10264188782E+03 -0.58149310041E+02  0.82754601431E+03  0.83591213964E+03  0.00000000000E+00 0. -1.
         22    1    3    3    0    0 -0.92183213793E+02  0.70984523168E+02  0.23524481701E+02  0.11870108961E+03  0.00000000000E+00 0. -1.
         22    1    3    3    0    0  0.17778468512E+02  0.21411596221E+02  0.74560311820E+02  0.79584989125E+02  0.00000000000E+00 0. -1.
</event>
<event>
 7    1  0.6262315E-006  0.5289326E+02  0.7818608E-02  0.1521362E+00
          2   -1    0    0  502    0  0.00000000000E+00  0.00000000000E+00  0.12239209733E+03  0.12239209733E+03  0.00000000000E+00 0. -1.
          1   -1    0    0  501    0 -0.00000000000E+00 -0.00000000000E+00 -0.94653990151E+03  0.94653990151E+03  0.00000000000E+00 0. -1.
         25    2    1    2    0    0 -0.41042764011E+02  0.14070366298E+02 -0.49614694895E+03  0.51348731982E+03  0.12499979594E+03 0.  0.
          2    1    1    2  501    0  0.54924623585E+02  0.98839551463E+01 -0.43824156273E+03  0.44178057240E+03  0.00000000000E+00 0. -1.
          1    1    1    2  502    0 -0.13881859574E+02 -0.23954321444E+02  0.11024070751E+03  0.11366410661E+03  0.00000000000E+00 0. -1.
         22    1    3    3    0    0 -0.29899702474E+02  0.97398584378E+01 -0.49995311191E+03  0.50094108552E+03  0.00000000000E+00 0. -1.
         22    1    3    3    0    0 -0.11143061537E+02  0.43305078602E+01  0.38061629636E+01  0.12546234306E+02  0.00000000000E+00 0. -1.
</event>
<event>
 7    1  0.6262315E-006  0.1032434E+03  0.7818608E-02  0.1330250E+00
          2   -1    0    0  502    0  0.00000000000E+00  0.00000000000E+00  0.31797872253E+03  0.31797872253E+03  0.00000000000E+00 0. -1.
          1   -1    0    0  501    0 -0.00000000000E+00 -0.00000000000E+00 -0.15338026679E+03  0.15338026679E+03  0.00000000000E+00 0. -1.
         25    2    1    2    0    0 -0.19411536663E+02 -0.14883269973E+03  0.54805902405E+02  0.20287082724E+03  0.12499962138E+03 0.  0.
          2    1    1    2  501    0  0.29453136024E+02  0.53804815133E+02 -0.52112598917E+02  0.80487069266E+02  0.00000000000E+00 0. -1.
          1    1    1    2  502    0 -0.10041599362E+02  0.95027884595E+02  0.16190515226E+03  0.18800109281E+03  0.00000000000E+00 0. -1.
         22    1    3    3    0    0 -0.36870538015E+01 -0.22336951730E+02 -0.38663833751E+02  0.44804305805E+02  0.00000000000E+00 0.  1.
         22    1    3    3    0    0 -0.15724482861E+02 -0.12649574800E+03  0.93469736156E+02  0.15806652144E+03  0.00000000000E+00 0.  1.
</event>
<event>
 7    1  0.6262315E-006  0.1136489E+03  0.7818608E-02  0.1256431E+00
          2   -1    0    0  502    0  0.00000000000E+00  0.00000000000E+00  0.25251093625E+04  0.25251093625E+04  0.00000000000E+00 0. -1.
          1   -1    0    0  501    0 -0.00000000000E+00 -0.00000000000E+00 -0.14516189737E+03  0.14516189737E+03  0.00000000000E+00 0. -1.
         25    2    1    2    0    0 -0.63806254265E+02  0.14058433616E+03  0.26692040437E+03  0.33272623435E+03  0.12500020437E+03 0.  0.
          2    1    1    2  501    0  0.10535596934E+03 -0.34622716250E+02 -0.83031986024E+02  0.13853852698E+03  0.00000000000E+00 0. -1.
          1    1    1    2  502    0 -0.41549715071E+02 -0.10596161991E+03  0.21960590468E+04  0.21990064985E+04  0.00000000000E+00 0. -1.
         22    1    3    3    0    0 -0.82686517328E+02  0.40035538845E+02  0.91556648555E+02  0.12970167467E+03  0.00000000000E+00 0.  1.
         22    1    3    3    0    0  0.18880263063E+02  0.10054879732E+03  0.17536375582E+03  0.20302455967E+03  0.00000000000E+00 0.  1.
</event>
<event>
 7    1  0.6262315E-006  0.1820814E+03  0.7818608E-02  0.1255035E+00
          2   -1    0    0  502    0  0.00000000000E+00  0.00000000000E+00  0.11874255871E+04  0.11874255871E+04  0.00000000000E+00 0. -1.
          1   -1    0    0  501    0 -0.00000000000E+00 -0.00000000000E+00 -0.24073805999E+03  0.24073805999E+03  0.00000000000E+00 0. -1.
         25    2    1    2    0    0 -0.16953942034E+03  0.75045834879E+02  0.43533917412E+02  0.22779307521E+03  0.12497596075E+03 0.  0.
          2    1    1    2  501    0 -0.13228481962E+02 -0.68924418659E+02 -0.13183421767E+03  0.14935136147E+03  0.00000000000E+00 0. -1.
          1    1    1    2  502    0  0.18276790230E+03 -0.61214162198E+01  0.10349878273E+04  0.10510192104E+04  0.00000000000E+00 0. -1.
         22    1    3    3    0    0 -0.18860265928E+02  0.55093290867E+02 -0.22031115985E+02  0.62260343726E+02  0.00000000000E+00 0. -1.
         22    1    3    3    0    0 -0.15067915441E+03  0.19952544012E+02  0.65565033397E+02  0.16553273148E+03  0.00000000000E+00 0. -1.
</event>
<event>
 7    1  0.6262315E-006  0.1273605E+03  0.7818608E-02  0.1295445E+00
          2   -1    0    0  502    0  0.00000000000E+00  0.00000000000E+00  0.82992543718E+03  0.82992543718E+03  0.00000000000E+00 0. -1.
          1   -1    0    0  501    0 -0.00000000000E+00 -0.00000000000E+00 -0.17618252388E+04  0.17618252388E+04  0.00000000000E+00 0. -1.
         25    2    1    2    0    0  0.94763281347E+02  0.13001138721E+03 -0.56830893777E+03  0.60371210052E+03  0.12494083105E+03 0.  0.
          2    1    1    2  501    0 -0.67860574265E+02 -0.56977999949E+01 -0.11698389971E+04  0.11718194407E+04  0.00000000000E+00 0. -1.
          1    1    1    2  502    0 -0.26902707083E+02 -0.12431358722E+03  0.80624813324E+03  0.81621913477E+03  0.00000000000E+00 0. -1.
         22    1    3    3    0    0  0.64794959162E+02  0.14868016682E+03 -0.39790814677E+03  0.42969183376E+03  0.00000000000E+00 0.  1.
         22    1    3    3    0    0  0.29968322185E+02 -0.18668779606E+02 -0.17040079100E+03  0.17402026675E+03  0.00000000000E+00 0.  1.
</event>
<event>
 7    1  0.6262315E-006  0.1012393E+03  0.7818608E-02  0.1370310E+00
          2   -1    0    0  502    0  0.00000000000E+00  0.00000000000E+00  0.10757617250E+04  0.10757617250E+04  0.00000000000E+00 0. -1.
          1   -1    0    0  501    0 -0.00000000000E+00 -0.00000000000E+00 -0.93869927376E+03  0.93869927376E+03  0.00000000000E+00 0. -1.
         25    2    1    2    0    0 -0.64753153684E+02 -0.45229873487E+02 -0.14361270026E+02  0.14855691413E+03  0.12499679313E+03 0.  0.
          2    1    1    2  501    0  0.10075694591E+03  0.19165888570E+02 -0.85367949068E+03  0.85981856588E+03  0.00000000000E+00 0. -1.
          1    1    1    2  502    0 -0.36003792222E+02  0.26063984916E+02  0.10051032119E+04  0.10060855187E+04  0.00000000000E+00 0. -1.
         22    1    3    3    0    0 -0.23559398651E+02 -0.86083312235E+02 -0.21818205889E+01  0.89275653183E+02  0.00000000000E+00 0.  1.
         22    1    3    3    0    0 -0.41193755033E+02  0.40853438749E+02 -0.12179449437E+02  0.59281260951E+02  0.00000000000E+00 0.  1.
</event>
<event>
 7    1  0.6262315E-006  0.2250060E+03  0.7818608E-02  0.1181870E+00
          2   -1    0    0  502    0  0.00000000000E+00  0.00000000000E+00  0.74949646944E+02  0.74949646944E+02  0.00000000000E+00 0. -1.
          1   -1    0    0  501    0 -0.00000000000E+00 -0.00000000000E+00 -0.24774147870E+04  0.24774147870E+04  0.00000000000E+00 0. -1.
         25    2    1    2    0    0  0.17153775726E+03 -0.35557078838E+02 -0.33367852609E+03  0.39705593595E+03  0.12499019755E+03 0.  0.
          2    1    1    2  501    0 -0.18175587925E+03  0.15789398392E+03 -0.20002940776E+04  0.20147312740E+04  0.00000000000E+00 0. -1.
          1    1    1    2  502    0  0.10218121999E+02 -0.12233690508E+03 -0.68492536451E+02  0.14057722401E+03  0.00000000000E+00 0. -1.
         22    1    3    3    0    0 -0.15464297842E+02  0.10360571359E+01 -0.70225329670E+02  0.71915331115E+02  0.00000000000E+00 0.  1.
         22    1    3    3    0    0  0.18700205510E+03 -0.36593135974E+02 -0.26345319642E+03  0.32514060484E+03  0.00000000000E+00 0.  1.
</event>
<event>
 7    1  0.6262315E-006  0.1617979E+03  0.7818608E-02  0.1351417E+00
          2   -1    0    0  502    0  0.00000000000E+00  0.00000000000E+00  0.31941358216E+04  0.31941358216E+04  0.00000000000E+00 0. -1.
          1   -1    0    0  501    0 -0.00000000000E+00 -0.00000000000E+00 -0.48773033854E+02  0.48773033854E+02  0.00000000000E+00 0. -1.
         25    2    1    2    0    0  0.61441343405E+01 -0.17539065101E+03  0.71447341459E+03  0.74625534153E+03  0.12500057504E+03 0.  0.
          2    1    1    2  501    0  0.20966529934E+02  0.15730358928E+03  0.15939014715E+03  0.22492050504E+03  0.00000000000E+00 0. -1.
          1    1    1    2  502    0 -0.27110664275E+02  0.18087061735E+02  0.22714992260E+04  0.22717330089E+04  0.00000000000E+00 0. -1.
         22    1    3    3    0    0 -0.59156338311E+02 -0.72108396727E+02  0.30807003620E+03  0.32187923271E+03  0.00000000000E+00 0.  1.
         22    1    3    3    0    0  0.65300472652E+02 -0.10328225429E+03  0.40640337838E+03  0.42437610882E+03  0.00000000000E+00 0.  1.
</event>
<event>
 7    1  0.6262315E-006  0.4845186E+02  0.7818608E-02  0.1522257E+00
          2   -1    0    0  502    0  0.00000000000E+00  0.00000000000E+00  0.93142878496E+03  0.93142878496E+03  0.00000000000E+00 0. -1.
          1   -1    0    0  501    0 -0.00000000000E+00 -0.00000000000E+00 -0.17577453687E+04  0.17577453687E+04  0.00000000000E+00 0. -1.
         25    2    1    2    0    0  0.10665733402E+02 -0.28201219092E+02  0.25307509792E+03  0.28386791656E+03  0.12499968895E+03 0.  0.
          2    1    1    2  501    0  0.30037660445E+02 -0.61364340627E+00 -0.17412813250E+04  0.17415404934E+04  0.00000000000E+00 0. -1.
          1    1    1    2  502    0 -0.40703393847E+02  0.28814862498E+02  0.66188964330E+03  0.66376574368E+03  0.00000000000E+00 0. -1.
         22    1    3    3    0    0 -0.56497842129E+02 -0.22598557171E+02  0.13038099177E+03  0.14388156229E+03  0.00000000000E+00 0.  1.
         22    1    3    3    0    0  0.67163575531E+02 -0.56026619210E+01  0.12269410615E+03  0.13998635427E+03  0.00000000000E+00 0.  1.
</event>
<event>
 7    1  0.6262315E-006  0.2813009E+03  0.7818608E-02  0.1146999E+00
          2   -1    0    0  502    0  0.00000000000E+00  0.00000000000E+00  0.20815867603E+04  0.20815867603E+04  0.00000000000E+00 0. -1.
          1   -1    0    0  501    0 -0.00000000000E+00 -0.00000000000E+00 -0.21319243971E+03  0.21319243971E+03  0.00000000000E+00 0. -1.
         25    2    1    2    0    0 -0.89587432849E+02  0.36293353109E+03  0.10048990629E+04  0.10794417829E+04  0.12500311966E+03 0.  0.
          2    1    1    2  501    0  0.89632812518E+02 -0.11638857322E+03 -0.12726493693E+03  0.19436230403E+03  0.00000000000E+00 0. -1.
          1    1    1    2  502    0 -0.45379668969E-01 -0.24654495787E+03  0.99076019460E+03  0.10209751131E+04  0.00000000000E+00 0. -1.
         22    1    3    3    0    0 -0.44939049532E+02  0.13889686447E+03  0.23766088117E+03  0.27891674667E+03  0.00000000000E+00 0. -1.
         22    1    3    3    0    0 -0.44648383318E+02  0.22403666662E+03  0.76723818170E+03  0.80052503620E+03  0.00000000000E+00 0. -1.
</event>
<event>
 7    1  0.6262315E-006  0.7449366E+02  0.7818608E-02  0.1411652E+00
          2   -1    0    0  502    0  0.00000000000E+00  0.00000000000E+00  0.75006168256E+03  0.75006168256E+03  0.00000000000E+00 0. -1.
          1   -1    0    0  501    0 -0.00000000000E+00 -0.00000000000E+00 -0.43046816927E+03  0.43046816927E+03  0.00000000000E+00 0. -1.
         25    2    1    2    0    0  0.12796663434E+02  0.11599294229E+03  0.20452368424E+02  0.17222500218E+03  0.12500013898E+03 0.  0.
          2    1    1    2  501    0 -0.48982812634E+01 -0.43072298266E+02 -0.35118757724E+03  0.35385297857E+03  0.00000000000E+00 0. -1.
          1    1    1    2  502    0 -0.78983821707E+01 -0.72920644029E+02  0.65032872210E+03  0.65445187108E+03  0.00000000000E+00 0. -1.
         22    1    3    3    0    0 -0.53872662749E+02  0.35505235322E+02  0.20541614178E+02  0.67711471997E+02  0.00000000000E+00 0.  1.
         22    1    3    3    0    0  0.66669326183E+02  0.80487706973E+02 -0.89245754162E-01  0.10451353019E+03  0.00000000000E+00 0.  1.
</event>
<event>
 7    1  0.6262315E-006  0.7100593E+02  0.7818608E-02  0.1419362E+00
          2   -1    0    0  502    0  0.00000000000E+00  0.00000000000E+00  0.20157254494E+04  0.20157254494E+04  0.00000000000E+00 0. -1.
          1   -1    0    0  501    0 -0.00000000000E+00 -0.00000000000E+00 -0.74730106859E+02  0.74730106859E+02  0.00000000000E+00 0. -1.
         25    2    1    2    0    0 -0.32760734929E+02  0.29258928510E+02  0.23377845631E+03  0.26871260016E+03  0.12499897679E+03 0.  0.
          2    1    1    2  501    0  0.22184775188E+02 -0.70777534356E+02 -0.32869140634E+02  0.81129550878E+02  0.00000000000E+00 0. -1.
          1    1    1    2  502    0  0.10575959741E+02  0.41518605846E+02  0.17400860269E+04  0.17406134052E+04  0.00000000000E+00 0. -1.
         22    1    3    3    0    0 -0.81054211227E+01  0.76189113125E+02  0.16458879683E+03  0.18154875613E+03  0.00000000000E+00 0.  1.
         22    1    3    3    0    0 -0.24655313806E+02 -0.46930184615E+02  0.69189659484E+02  0.87163844031E+02  0.00000000000E+00 0.  1.
</event>
<event>
 7    1  0.6262315E-006  0.3281000E+02  0.7818608E-02  0.1618292E+00
          2   -1    0    0  502    0  0.00000000000E+00  0.00000000000E+00  0.13454255620E+04  0.13454255620E+04  0.00000000000E+00 0. -1.
          1   -1    0    0  501    0 -0.00000000000E+00 -0.00000000000E+00 -0.42649561613E+03  0.42649561613E+03  0.00000000000E+00 0. -1.
         25    2    1    2    0    0 -0.18831624433E+02 -0.32218298435E+02 -0.28956255986E+03  0.31758931047E+03  0.12499538079E+03 0.  0.
          2    1    1    2  501    0 -0.12049836985E+02  0.21127098538E+02 -0.12151221639E+03  0.12392244186E+03  0.00000000000E+00 0. -1.
          1    1    1    2  502    0  0.30881461418E+02  0.11091199897E+02  0.13300047221E+04  0.13304094258E+04  0.00000000000E+00 0. -1.
         22    1    3    3    0    0  0.26940614490E+02  0.24277463803E+02 -0.19479238300E+03  0.19813950750E+03  0.00000000000E+00 0. -1.
         22    1    3    3    0    0 -0.45772238922E+02 -0.56495762238E+02 -0.94770176861E+02  0.11944980297E+03  0.00000000000E+00 0. -1.
</event>
<event>
 7    1  0.6262315E-006  0.8668552E+02  0.7818608E-02  0.1448218E+00
          2   -1    0    0  502    0  0.00000000000E+00  0.00000000000E+00  0.66402413046E+03  0.66402413046E+03  0.00000000000E+00 0. -1.
          1   -1    0    0  501    0 -0.00000000000E+00 -0.00000000000E+00 -0.14578464333E+03  0.14578464333E+03  0.00000000000E+00 0. -1.
         25    2    1    2    0    0  0.85903650394E+02  0.10341457395E+02 -0.89541422376E+01  0.15230769971E+03  0.12502430098E+03 0.  0.
          2    1    1    2  501    0 -0.79550756386E+02 -0.37849819204E+02 -0.34857270936E+02  0.94741548396E+02  0.00000000000E+00 0. -1.
          1    1    1    2  502    0 -0.63528940084E+01  0.27508361809E+02  0.56205090030E+03  0.56275952569E+03  0.00000000000E+00 0. -1.
         22    1    3    3    0    0  0.10123610699E+03 -0.18529693723E+02 -0.36867295020E+02  0.10932198475E+03  0.00000000000E+00 0.  1.
         22    1    3    3    0    0 -0.15332456594E+02  0.28871151118E+02  0.27913152782E+02  0.42985714956E+02  0.00000000000E+00 0.  1.
</event>
<event>
 7    1  0.6262315E-006  0.7307216E+02  0.7818608E-02  0.1420771E+00
          2   -1    0    0  502    0  0.00000000000E+00  0.00000000000E+00  0.61163383270E+03  0.61163383270E+03  0.00000000000E+00 0. -1.
          1   -1    0    0  501    0 -0.00000000000E+00 -0.00000000000E+00 -0.99928089999E+02  0.99928089999E+02  0.00000000000E+00 0. -1.
         25    2    1    2    0    0 -0.38806869168E+02 -0.51612785103E+02  0.24932610024E+02  0.14288559827E+03  0.12499922588E+03 0.  0.
          2    1    1    2  501    0  0.88059308694E+01  0.79827832106E+02  0.14866361649E+00  0.80312198937E+02  0.00000000000E+00 0. -1.
          1    1    1    2  502    0  0.30000938299E+02 -0.28215047004E+02  0.48662446906E+03  0.48836412549E+03  0.00000000000E+00 0. -1.
         22    1    3    3    0    0 -0.44390390210E+02 -0.32425056930E+02 -0.44442518221E+02  0.70689663217E+02  0.00000000000E+00 0. -1.
         22    1    3    3    0    0  0.55835210414E+01 -0.19187728172E+02  0.69375128245E+02  0.72195935056E+02  0.00000000000E+00 0. -1.
</event>
<event>
 7    1  0.6262315E-006  0.1367728E+03  0.7818608E-02  0.1330972E+00
          2   -1    0    0  502    0  0.00000000000E+00  0.00000000000E+00  0.10333732693E+04  0.10333732693E+04  0.00000000000E+00 0. -1.
          1   -1    0    0  501    0 -0.00000000000E+00 -0.00000000000E+00 -0.13646445898E+04  0.13646445898E+04  0.00000000000E+00 0. -1.
         25    2    1    2    0    0 -0.95991488457E+02 -0.39913629710E+02 -0.41641245960E+03  0.44702523073E+03  0.12499902684E+03 0.  0.
          2    1    1    2  501    0  0.13571311299E+03  0.63130224764E+02 -0.92639592715E+03  0.93840976559E+03  0.00000000000E+00 0. -1.
          1    1    1    2  502    0 -0.39721624529E+02 -0.23216595055E+02  0.10115370662E+04  0.10125828628E+04  0.00000000000E+00 0. -1.
         22    1    3    3    0    0 -0.32649659497E+02  0.46269137075E+01 -0.11728438242E+02  0.34999497987E+02  0.00000000000E+00 0.  1.
         22    1    3    3    0    0 -0.63341828960E+02 -0.44540543417E+02 -0.40468402136E+03  0.41202573275E+03  0.00000000000E+00 0.  1.
</event>
<event>
 7    1  0.6262315E-006  0.8564844E+02  0.7818608E-02  0.1399849E+00
          2   -1    0    0  502    0  0.00000000000E+00  0.00000000000E+00  0.12580759846E+04  0.12580759846E+04  0.00000000000E+00 0. -1.
          1   -1    0    0  501    0 -0.00000000000E+00 -0.00000000000E+00 -0.14447524911E+03  0.14447524911E+03  0.00000000000E+00 0. -1.
         25    2    1    2    0    0  0.34749355817E+02 -0.35242279764E+02  0.12802124947E+03  0.18564217915E+03  0.12499616934E+03 0.  0.
          2    1    1    2  501    0 -0.71528214011E+02  0.54173844331E+02 -0.97808718777E+02  0.13273144419E+03  0.00000000000E+00 0. -1.
          1    1    1    2  502    0  0.36778858194E+02 -0.18931564567E+02  0.10833882048E+04  0.10841776103E+04  0.00000000000E+00 0. -1.
         22    1    3    3    0    0  0.31126649404E+02 -0.77431668473E+02  0.11349633942E+03  0.14087565669E+03  0.00000000000E+00 0.  1.
         22    1    3    3    0    0  0.36227064124E+01  0.42189388709E+02  0.14524910056E+02  0.44766522464E+02  0.00000000000E+00 0.  1.
</event>
<event>
 7    1  0.6262315E-006  0.1262005E+03  0.7818608E-02  0.1377102E+00
          2   -1    0    0  502    0  0.00000000000E+00  0.00000000000E+00  0.94260500199E+03  0.94260500199E+03  0.00000000000E+00 0. -1.
          1   -1    0    0  501    0 -0.00000000000E+00 -0.00000000000E+00 -0.23243099670E+03  0.23243099670E+03  0.00000000000E+00 0. -1.
         25    2    1    2    0    0  0.93846646311E+01  0.10224169388E+03  0.49980847100E+03  0.52534760001E+03  0.12506061433E+03 0.  0.
          2    1    1    2  501    0  0.14214129493E+02 -0.12632441474E+03 -0.20052104099E+03  0.23742069648E+03  0.00000000000E+00 0. -1.
          1    1    1    2  502    0 -0.23598794125E+02  0.24082720858E+02  0.41088657528E+03  0.41226770219E+03  0.00000000000E+00 0. -1.
         22    1    3    3    0    0  0.30689155577E+02 -0.53362138877E+01  0.25749891828E+03  0.25937615997E+03  0.00000000000E+00 0.  1.
         22    1    3    3    0    0 -0.21304490946E+02  0.10757790777E+03  0.24230955272E+03  0.26597144004E+03  0.00000000000E+00 0.  1.
</event>
<event>
 7    1  0.6262315E-006  0.8896897E+02  0.7818608E-02  0.1417079E+00
          2   -1    0    0  502    0  0.00000000000E+00  0.00000000000E+00  0.61066592121E+03  0.61066592121E+03  0.00000000000E+00 0. -1.
          1   -1    0    0  501    0 -0.00000000000E+00 -0.00000000000E+00 -0.29049798239E+03  0.29049798239E+03  0.00000000000E+00 0. -1.
         25    2    1    2    0    0  0.56948542338E+02  0.66941728792E+02 -0.66745822135E+01  0.15294767687E+03  0.12499644109E+03 0.  0.
          2    1    1    2  501    0 -0.27552682577E+02 -0.85569767728E+02 -0.20049786305E+03  0.21972876132E+03  0.00000000000E+00 0. -1.
          1    1    1    2  502    0 -0.29395859761E+02  0.18628038936E+02  0.52734038408E+03  0.52848746540E+03  0.00000000000E+00 0. -1.
         22    1    3    3    0    0  0.46285998224E+02  0.57258103082E+02 -0.61704370844E+02  0.96064110788E+02  0.00000000000E+00 0. -1.
         22    1    3    3    0    0  0.10662544114E+02  0.96836257100E+01  0.55029788631E+02  0.56883566086E+02  0.00000000000E+00 0. -1.
</event>
<event>
 7    1  0.6262315E-006  0.8956507E+02  0.7818608E-02  0.1317186E+00
          2   -1    0    0  502    0  0.00000000000E+00  0.00000000000E+00  0.30304041405E+04  0.30304041405E+04  0.00000000000E+00 0. -1.
          1   -1    0    0  501    0 -0.00000000000E+00 -0.00000000000E+00 -0.16774098072E+04  0.16774098072E+04  0.00000000000E+00 0. -1.
         25    2    1    2    0    0  0.12590424321E+03  0.10419925546E+03  0.30612833105E+01  0.20577791824E+03  0.12500326748E+03 0.  0.
          2    1    1    2  501    0 -0.72165077245E+02 -0.33130046761E+02 -0.15743723421E+04  0.15763735820E+04  0.00000000000E+00 0. -1.
          1    1    1    2  502    0 -0.53739165961E+02 -0.71069208703E+02  0.29243053921E+04  0.29256624475E+04  0.00000000000E+00 0. -1.
         22    1    3    3    0    0 -0.97270181856E+01  0.95269323080E+01 -0.33692079421E+02  0.36339146078E+02  0.00000000000E+00 0. -1.
         22    1    3    3    0    0  0.13563126139E+03  0.94672323155E+02  0.36753362731E+02  0.16943877216E+03  0.00000000000E+00 0. -1.
</event>
<event>
 7    1  0.6262315E-006  0.1782825E+03  0.7818608E-02  0.1284817E+00
          2   -1    0    0  502    0  0.00000000000E+00  0.00000000000E+00  0.44737410764E+03  0.44737410764E+03  0.00000000000E+00 0. -1.
          1   -1    0    0  501    0 -0.00000000000E+00 -0.00000000000E+00 -0.89738965210E+03  0.89738965210E+03  0.00000000000E+00 0. -1.
         25    2    1    2    0    0  0.47280417140E+02  0.13206854208E+03 -0.15043955974E+03  0.24069860613E+03  0.12500488073E+03 0.  0.
          2    1    1    2  501    0 -0.39384796230E+02 -0.18522350687E+03 -0.68715938404E+03  0.71277410779E+03  0.00000000000E+00 0. -1.
          1    1    1    2  502    0 -0.78956209102E+01  0.53154964791E+02  0.38758339931E+03  0.39129104582E+03  0.00000000000E+00 0. -1.
         22    1    3    3    0    0 -0.42728928379E+02  0.42120345908E+02 -0.39088454962E+02  0.71608604029E+02  0.00000000000E+00 0. -1.
         22    1    3    3    0    0  0.90009345519E+02  0.89948196174E+02 -0.11135110478E+03  0.16909000210E+03  0.00000000000E+00 0. -1.
</event>
<event>
 7    1  0.6262315E-006  0.3084439E+02  0.7818608E-02  0.1632407E+00
          2   -1    0    0  502    0  0.00000000000E+00  0.00000000000E+00  0.19631359512E+04  0.19631359512E+04  0.00000000000E+00 0. -1.
          1   -1    0    0  501    0 -0.00000000000E+00 -0.00000000000E+00 -0.14822411346E+02  0.14822411346E+02  0.00000000000E+00 0. -1.
         25    2    1    2    0    0 -0.47200849531E+02  0.13927215968E+02  0.36085745752E+03  0.38505264140E+03  0.12500217782E+03 0.  0.
          2    1    1    2  501    0  0.23252680341E+02  0.52130616947E+01  0.52630384259E+02  0.57773873875E+02  0.00000000000E+00 0. -1.
          1    1    1    2  502    0  0.23948169190E+02 -0.19140277663E+02  0.15348256981E+04  0.15351318473E+04  0.00000000000E+00 0. -1.
         22    1    3    3    0    0  0.17919519592E+02  0.48300107388E+02  0.22177765644E+03  0.22768253876E+03  0.00000000000E+00 0. -1.
         22    1    3    3    0    0 -0.65120369123E+02 -0.34372891420E+02  0.13907980108E+03  0.15737010265E+03  0.00000000000E+00 0. -1.
</event>
<event>
 7    1  0.6262315E-006  0.1632996E+03  0.7818608E-02  0.1264289E+00
          2   -1    0    0  502    0  0.00000000000E+00  0.00000000000E+00  0.11247209701E+04  0.11247209701E+04  0.00000000000E+00 0. -1.
          1   -1    0    0  501    0 -0.00000000000E+00 -0.00000000000E+00 -0.39040325943E+03  0.39040325943E+03  0.00000000000E+00 0. -1.
         25    2    1    2    0    0  0.89609788054E+02  0.21302562768E+03  0.14866468606E+02  0.26316307958E+03  0.12499584952E+03 0.  0.
          2    1    1    2  501    0 -0.30445118679E+02 -0.64636864483E+02 -0.25483688185E+03  0.26466330658E+03  0.00000000000E+00 0. -1.
          1    1    1    2  502    0 -0.59164669375E+02 -0.14838876320E+03  0.97428812391E+03  0.98729784337E+03  0.00000000000E+00 0. -1.
         22    1    3    3    0    0  0.10774226395E+03  0.10823634951E+03 -0.12862268216E+02  0.15326102160E+03  0.00000000000E+00 0.  1.
         22    1    3    3    0    0 -0.18132475900E+02  0.10478927817E+03  0.27728736822E+02  0.10990205798E+03  0.00000000000E+00 0.  1.
</event>
<event>
 7    1  0.6262315E-006  0.1603212E+03  0.7818608E-02  0.1268620E+00
          2   -1    0    0  502    0  0.00000000000E+00  0.00000000000E+00  0.12517936643E+04  0.12517936643E+04  0.00000000000E+00 0. -1.
          1   -1    0    0  501    0 -0.00000000000E+00 -0.00000000000E+00 -0.97650533267E+03  0.97650533267E+03  0.00000000000E+00 0. -1.
         25    2    1    2    0    0  0.87875583180E+02 -0.10495383355E+03  0.21174058374E+03  0.28141811496E+03  0.12499862131E+03 0.  0.
          2    1    1    2  501    0 -0.42054100828E+02 -0.55676124455E+02 -0.93341625444E+03  0.93602044971E+03  0.00000000000E+00 0. -1.
          1    1    1    2  502    0 -0.45821482352E+02  0.16062995800E+03  0.99696400233E+03  0.10108604323E+04  0.00000000000E+00 0. -1.
         22    1    3    3    0    0  0.27010092323E+02  0.28147323774E+02  0.44013607838E+02  0.58813387913E+02  0.00000000000E+00 0.  1.
         22    1    3    3    0    0  0.60865490857E+02 -0.13310115732E+03  0.16772697590E+03  0.22260472704E+03  0.00000000000E+00 0.  1.
</event>
<event>
 7    1  0.6262315E-006  0.1557883E+03  0.7818608E-02  0.1263556E+00
          2   -1    0    0  502    0  0.00000000000E+00  0.00000000000E+00  0.15179094455E+04  0.15179094455E+04  0.00000000000E+00 0. -1.
          1   -1    0    0  501    0 -0.00000000000E+00 -0.00000000000E+00 -0.26986124453E+03  0.26986124453E+03  0.00000000000E+00 0. -1.
         25    2    1    2    0    0 -0.10342264756E+03 -0.93672714217E+02  0.37915301645E+02  0.19113908727E+03  0.12500303662E+03 0.  0.
          2    1    1    2  501    0 -0.49837406898E+02  0.56621381429E+02 -0.18126237254E+03  0.19633083217E+03  0.00000000000E+00 0. -1.
          1    1    1    2  502    0  0.15326005446E+03  0.37051332788E+02  0.13913952718E+04  0.14003007706E+04  0.00000000000E+00 0. -1.
         22    1    3    3    0    0 -0.29252116362E+02 -0.50248766243E+01  0.65847583472E+02  0.72227695144E+02  0.00000000000E+00 0.  1.
         22    1    3    3    0    0 -0.74170531202E+02 -0.88647837593E+02 -0.27932281827E+02  0.11891139212E+03  0.00000000000E+00 0.  1.
</event>
<event>
 7    1  0.6262315E-006  0.8248258E+02  0.7818608E-02  0.1345515E+00
          2   -1    0    0  502    0  0.00000000000E+00  0.00000000000E+00  0.17626024603E+03  0.17626024603E+03  0.00000000000E+00 0. -1.
          1   -1    0    0  501    0 -0.00000000000E+00 -0.00000000000E+00 -0.62330009630E+03  0.62330009630E+03  0.00000000000E+00 0. -1.
         25    2    1    2    0    0 -0.77852057680E+02 -0.86898949808E+02 -0.16657323638E+03  0.23871396808E+03  0.12500138045E+03 0.  0.
          2    1    1    2  501    0  0.66964153005E+02  0.60719860892E+01 -0.40578954344E+03  0.41132252597E+03  0.00000000000E+00 0. -1.
          1    1    1    2  502    0  0.10887904675E+02  0.80826963719E+02  0.12532292956E+03  0.14952384828E+03  0.00000000000E+00 0. -1.
         22    1    3    3    0    0 -0.66966554452E+02  0.13566448498E+02 -0.51457410385E+02  0.85536150390E+02  0.00000000000E+00 0. -1.
         22    1    3    3    0    0 -0.10885503228E+02 -0.10046539831E+03 -0.11511582600E+03  0.15317781769E+03  0.00000000000E+00 0. -1.
</event>
<event>
 7    1  0.6262315E-006  0.3767659E+02  0.7818608E-02  0.1604453E+00
          2   -1    0    0  502    0  0.00000000000E+00  0.00000000000E+00  0.82203109614E+03  0.82203109614E+03  0.00000000000E+00 0. -1.
          1   -1    0    0  501    0 -0.00000000000E+00 -0.00000000000E+00 -0.22553969912E+02  0.22553969912E+02  0.00000000000E+00 0. -1.
         25    2    1    2    0    0 -0.58739266489E+01  0.55034303156E+02  0.48906093542E+03  0.50780792846E+03  0.12500006445E+03 0.  0.
          2    1    1    2  501    0  0.11976024015E+02 -0.19626162071E+02 -0.12702226628E+01  0.23026611875E+02  0.00000000000E+00 0. -1.
          1    1    1    2  502    0 -0.61020973661E+01 -0.35408141085E+02  0.31168641347E+03  0.31375052572E+03  0.00000000000E+00 0. -1.
         22    1    3    3    0    0  0.30212093747E+02  0.48414375334E+02  0.45224914944E+03  0.45583551366E+03  0.00000000000E+00 0. -1.
         22    1    3    3    0    0 -0.36086020396E+02  0.66199278222E+01  0.36811785978E+02  0.51972414792E+02  0.00000000000E+00 0. -1.
</event>
<event>
 7    1  0.6262315E-006  0.8441778E+02  0.7818608E-02  0.1443789E+00
          2   -1    0    0  502    0  0.00000000000E+00  0.00000000000E+00  0.23107814952E+04  0.23107814952E+04  0.00000000000E+00 0. -1.
          1   -1    0    0  501    0 -0.00000000000E+00 -0.00000000000E+00 -0.26826724343E+03  0.26826724343E+03  0.00000000000E+00 0. -1.
         25    2    1    2    0    0 -0.58883405769E+02  0.59894789210E+02  0.48547925963E+02  0.15822981693E+03  0.12500053041E+03 0.  0.
          2    1    1    2  501    0  0.34621188079E+02 -0.77468100465E+02 -0.20488648299E+03  0.22176204402E+03  0.00000000000E+00 0. -1.
          1    1    1    2  502    0  0.24262217690E+02  0.17573311255E+02  0.21988528088E+04  0.21990568777E+04  0.00000000000E+00 0. -1.
         22    1    3    3    0    0 -0.94130179049E+02  0.48130868505E+02  0.57020077445E+02  0.12011810997E+03  0.00000000000E+00 0.  1.
         22    1    3    3    0    0  0.35246773280E+02  0.11763920704E+02 -0.84721514819E+01  0.38111706964E+02  0.00000000000E+00 0.  1.
</event>
<event>
 7    1  0.6262315E-006  0.1077449E+03  0.7818608E-02  0.1368074E+00
          2   -1    0    0  502    0  0.00000000000E+00  0.00000000000E+00  0.12367738659E+04  0.12367738659E+04  0.00000000000E+00 0. -1.
          1   -1    0    0  501    0 -0.00000000000E+00 -0.00000000000E+00 -0.13147512615E+03  0.13147512615E+03  0.00000000000E+00 0. -1.
         25    2    1    2    0    0 -0.72417494503E+02 -0.32717973526E+02  0.13523999698E+02  0.14873731232E+03  0.12500052083E+03 0.  0.
          2    1    1    2  501    0 -0.69507206847E+01 -0.41973754723E+02 -0.53898045081E+02  0.68666643046E+02  0.00000000000E+00 0. -1.
          1    1    1    2  502    0  0.79368215188E+02  0.74691728249E+02  0.11456727852E+04  0.11508450367E+04  0.00000000000E+00 0. -1.
         22    1    3    3    0    0 -0.23027163768E+02 -0.26877993991E+02 -0.54188163930E+02  0.64722746715E+02  0.00000000000E+00 0.  1.
         22    1    3    3    0    0 -0.49390330735E+02 -0.58399795349E+01  0.67712163628E+02  0.84014565607E+02  0.00000000000E+00 0.  1.
</event>
<event>
 7    1  0.6262315E-006  0.6328802E+02  0.7818608E-02  0.1435385E+00
          2   -1    0    0  502    0  0.00000000000E+00  0.00000000000E+00  0.14462230140E+03  0.14462230140E+03  0.00000000000E+00 0. -1.
          1   -1    0    0  501    0 -0.00000000000E+00 -0.00000000000E+00 -0.14255999403E+04  0.14255999403E+04  0.00000000000E+00 0. -1.
         25    2    1    2    0    0 -0.56281428083E+01 -0.92285231269E+02 -0.18319481837E+03  0.24027612900E+03  0.12499614710E+03 0.  0.
          2    1    1    2  501    0 -0.20948944999E+02  0.59054460683E+02 -0.12091262984E+04  0.12107488151E+04  0.00000000000E+00 0. -1.
          1    1    1    2  502    0  0.26577087807E+02  0.33230770586E+02  0.11134347786E+03  0.11919729767E+03  0.00000000000E+00 0. -1.
         22    1    3    3    0    0  0.39833567258E+02 -0.15346709169E+02 -0.12872464699E+03  0.13561810095E+03  0.00000000000E+00 0.  1.
         22    1    3    3    0    0 -0.45461710067E+02 -0.76938522100E+02 -0.54470171377E+02  0.10465802805E+03  0.00000000000E+00 0.  1.
</event>
<event>
 7    1  0.6262315E-006  0.8978338E+02  0.7818608E-02  0.1346082E+00
          2   -1    0    0  502    0  0.00000000000E+00  0.00000000000E+00  0.14449381601E+04  0.14449381601E+04  0.00000000000E+00 0. -1.
          1   -1    0    0  501    0 -0.00000000000E+00 -0.00000000000E+00 -0.32722119045E+03  0.32722119045E+03  0.00000000000E+00 0. -1.
         25    2    1    2    0    0 -0.30277751711E+02  0.10232012338E+03  0.42271639569E+03  0.45353830023E+03  0.12498675408E+03 0.  0.
          2    1    1    2  501    0  0.70412128061E+02 -0.55759194421E+02 -0.30437838257E+03  0.31735336033E+03  0.00000000000E+00 0. -1.
          1    1    1    2  502    0 -0.40134376350E+02 -0.46560928961E+02  0.99937895657E+03  0.10012676900E+04  0.00000000000E+00 0. -1.
         22    1    3    3    0    0  0.65053353579E+01  0.11550590868E+03  0.37163325347E+03  0.38922385514E+03  0.00000000000E+00 0. -1.
         22    1    3    3    0    0 -0.36783087068E+02 -0.13185785298E+02  0.51083142224E+02  0.64314445093E+02  0.00000000000E+00 0. -1.
</event>
<event>
 7    1  0.6262315E-006  0.1594125E+03  0.7818608E-02  0.1258163E+00
          2   -1    0    0  502    0  0.00000000000E+00  0.00000000000E+00  0.20957189409E+03  0.20957189409E+03  0.00000000000E+00 0. -1.
          1   -1    0    0  501    0 -0.00000000000E+00 -0.00000000000E+00 -0.59490062496E+03  0.59490062496E+03  0.00000000000E+00 0. -1.
         25    2    1    2    0    0 -0.18204635793E+03 -0.96156002503E+02 -0.12482037123E+03  0.27127653369E+03  0.12499591756E+03 0.  0.
          2    1    1    2  501    0  0.10538231866E+03  0.10893730088E+03 -0.36947263992E+03  0.39935297703E+03  0.00000000000E+00 0. -1.
          1    1    1    2  502    0  0.76664039264E+02 -0.12781298382E+02  0.10896428027E+03  0.13384300833E+03  0.00000000000E+00 0. -1.
         22    1    3    3    0    0 -0.14625767563E+02  0.23089231908E+01  0.22889894047E+02  0.27261537972E+02  0.00000000000E+00 0.  1.
         22    1    3    3    0    0 -0.16742059036E+03 -0.98464925694E+02 -0.14771026527E+03  0.24401499572E+03  0.00000000000E+00 0.  1.
</event>
<event>
 7    1  0.6262315E-006  0.1061638E+03  0.7818608E-02  0.1324192E+00
          2   -1    0    0  502    0  0.00000000000E+00  0.00000000000E+00  0.39281237369E+03  0.39281237369E+03  0.00000000000E+00 0. -1.
          1   -1    0    0  501    0 -0.00000000000E+00 -0.00000000000E+00 -0.63124497044E+03  0.63124497044E+03  0.00000000000E+00 0. -1.
         25    2    1    2    0    0 -0.68737425956E+01  0.10241881628E+03 -0.53499231294E+01  0.16183245217E+03  0.12499703450E+03 0.  0.
          2    1    1    2  501    0  0.62252423621E+02 -0.92168190497E+01 -0.53641860816E+03  0.54009743304E+03  0.00000000000E+00 0. -1.
          1    1    1    2  502    0 -0.55378681025E+02 -0.93201997232E+02  0.30333593454E+03  0.32212745891E+03  0.00000000000E+00 0. -1.
         22    1    3    3    0    0 -0.49445750396E+02  0.10018229273E+03  0.18101560061E+02  0.11317703162E+03  0.00000000000E+00 0. -1.
         22    1    3    3    0    0  0.42572007800E+02  0.22365235490E+01 -0.23451483190E+02  0.48655420557E+02  0.00000000000E+00 0. -1.
</event>
<event>
 7    1  0.6262315E-006  0.1405094E+03  0.7818608E-02  0.1267394E+00
          2   -1    0    0  502    0  0.00000000000E+00  0.00000000000E+00  0.39835042134E+03  0.39835042134E+03  0.00000000000E+00 0. -1.
          1   -1    0    0  501    0 -0.00000000000E+00 -0.00000000000E+00 -0.17807398525E+04  0.17807398525E+04  0.00000000000E+00 0. -1.
         25    2    1    2    0    0  0.18854308129E+03  0.17191980950E+02 -0.79688247551E+03  0.82854747083E+03  0.12500069571E+03 0.  0.
          2    1    1    2  501    0 -0.11721684337E+03 -0.54650192465E+02 -0.95939525514E+03  0.96807318293E+03  0.00000000000E+00 0. -1.
          1    1    1    2  502    0 -0.71326237919E+02  0.37458211515E+02  0.37388829947E+03  0.38246962011E+03  0.00000000000E+00 0. -1.
         22    1    3    3    0    0  0.45314454740E+02 -0.49691615525E+02 -0.28420132847E+03  0.29204974159E+03  0.00000000000E+00 0. -1.
         22    1    3    3    0    0  0.14322862655E+03  0.66883596475E+02 -0.51268114704E+03  0.53649772923E+03  0.00000000000E+00 0. -1.
</event>
<event>
 7    1  0.6262315E-006  0.9235804E+02  0.7818608E-02  0.1421259E+00
          2   -1    0    0  502    0  0.00000000000E+00  0.00000000000E+00  0.16727037581E+03  0.16727037581E+03  0.00000000000E+00 0. -1.
          1   -1    0    0  501    0 -0.00000000000E+00 -0.00000000000E+00 -0.19957710311E+04  0.19957710311E+04  0.00000000000E+00 0. -1.
         25    2    1    2    0    0 -0.41349108259E+02  0.49280429652E+02 -0.17460990312E+03  0.22416931988E+03  0.12499982483E+03 0.  0.
          2    1    1    2  501    0  0.71917733213E+02 -0.60205536091E+02 -0.17932909685E+04  0.17957420095E+04  0.00000000000E+00 0. -1.
          1    1    1    2  502    0 -0.30568624953E+02  0.10925106439E+02  0.13940021634E+03  0.14313007754E+03  0.00000000000E+00 0. -1.
         22    1    3    3    0    0 -0.29790279813E+02  0.50373831713E+01 -0.17584787502E+03  0.17842452508E+03  0.00000000000E+00 0. -1.
         22    1    3    3    0    0 -0.11558828446E+02  0.44243046480E+02  0.12379718997E+01  0.45744794800E+02  0.00000000000E+00 0. -1.
</event>
<event>
 7    1  0.6262315E-006  0.8543277E+02  0.7818608E-02  0.1339078E+00
          2   -1    0    0  502    0  0.00000000000E+00  0.00000000000E+00  0.62638734464E+03  0.62638734464E+03  0.00000000000E+00 0. -1.
          1   -1    0    0  501    0 -0.00000000000E+00 -0.00000000000E+00 -0.19814218585E+03  0.19814218585E+03  0.00000000000E+00 0. -1.
         25    2    1    2    0    0  0.56466867890E+02  0.67585480590E+02 -0.20358322917E+02  0.15425665872E+03  0.12499740434E+03 0.  0.
          2    1    1    2  501    0 -0.66162017285E+02  0.18224979667E+02 -0.96476513714E+02  0.11839459495E+03  0.00000000000E+00 0. -1.
          1    1    1    2  502    0  0.96951493958E+01 -0.85810460256E+02  0.54507999542E+03  0.55187827681E+03  0.00000000000E+00 0. -1.
         22    1    3    3    0    0  0.34793423662E+02  0.32934966425E+02 -0.73181071097E+02  0.87468643013E+02  0.00000000000E+00 0. -1.
         22    1    3    3    0    0  0.21673444228E+02  0.34650514164E+02  0.52822748181E+02  0.66788015706E+02  0.00000000000E+00 0. -1.
</event>
<event>
 7    1  0.6262315E-006  0.9578440E+02  0.7818608E-02  0.1460435E+00
          2   -1    0    0  502    0  0.00000000000E+00  0.00000000000E+00  0.66723991688E+03  0.66723991688E+03  0.00000000000E+00 0. -1.
          1   -1    0    0  501    0 -0.00000000000E+00 -0.00000000000E+00 -0.73205865128E+03  0.73205865128E+03  0.00000000000E+00 0. -1.
         25    2    1    2    0    0 -0.81177602623E+02 -0.15254271460E+02 -0.20010854966E+03  0.24998250922E+03  0.12500130919E+03 0.  0.
          2    1    1    2  501    0 -0.14805727581E+02  0.18073974705E+02 -0.50315158168E+03  0.50369374850E+03  0.00000000000E+00 0. -1.
          1    1    1    2  502    0  0.95983330204E+02 -0.28197032456E+01  0.63844139695E+03  0.64562231044E+03  0.00000000000E+00 0. -1.
         22    1    3    3    0    0 -0.42291373236E+02  0.23765629643E+02 -0.18722528164E+03  0.19340804401E+03  0.00000000000E+00 0. -1.
         22    1    3    3    0    0 -0.38886229387E+02 -0.39019901103E+02 -0.12883268019E+02  0.56574465202E+02  0.00000000000E+00 0. -1.
</event>
<event>
 7    1  0.6262315E-006  0.5569042E+02  0.7818608E-02  0.1431419E+00
          2   -1    0    0  502    0  0.00000000000E+00  0.00000000000E+00  0.89387899071E+02  0.89387899071E+02  0.00000000000E+00 0. -1.
          1   -1    0    0  501    0 -0.00000000000E+00 -0.00000000000E+00 -0.58902253761E+03  0.58902253761E+03  0.00000000000E+00 0. -1.
         25    2    1    2    0    0 -0.36526645036E+01 -0.44069084434E+02 -0.48177196883E+03  0.49968335330E+03  0.12499518973E+03 0.  0.
          2    1    1    2  501    0  0.40617033160E+02  0.77478486361E+02 -0.65894159692E+02  0.10952031553E+03  0.00000000000E+00 0. -1.
          1    1    1    2  502    0 -0.36964368657E+02 -0.33409401927E+02  0.48031489980E+02  0.69206767855E+02  0.00000000000E+00 0. -1.
         22    1    3    3    0    0  0.30799881299E+02  0.16055515661E+02 -0.42074754035E+02  0.54559116546E+02  0.00000000000E+00 0.  1.
         22    1    3    3    0    0 -0.34452545803E+02 -0.60124600095E+02 -0.43969721480E+03  0.44512423676E+03  0.00000000000E+00 0.  1.
</event>
<event>
 7    1  0.6262315E-006  0.5519915E+02  0.7818608E-02  0.1421650E+00
          2   -1    0    0  502    0  0.00000000000E+00  0.00000000000E+00  0.16377005708E+03  0.16377005708E+03  0.00000000000E+00 0. -1.
          1   -1    0    0  501    0 -0.00000000000E+00 -0.00000000000E+00 -0.93741969985E+03  0.93741969985E+03  0.00000000000E+00 0. -1.
         25    2    1    2    0    0 -0.19527161818E+02 -0.29861036492E+01 -0.54940697561E+03  0.56379361349E+03  0.12499994761E+03 0.  0.
          2    1    1    2  501    0  0.66784488877E+02 -0.25539176361E+02 -0.37244585698E+03  0.37924706177E+03  0.00000000000E+00 0. -1.
          1    1    1    2  502    0 -0.47257327059E+02  0.28525280010E+02  0.14820318982E+03  0.15814908167E+03  0.00000000000E+00 0. -1.
         22    1    3    3    0    0  0.34660267570E+02  0.43172418609E+02 -0.24285221408E+03  0.24908309810E+03  0.00000000000E+00 0.  1.
         22    1    3    3    0    0 -0.54187429387E+02 -0.46158522259E+02 -0.30655476153E+03  0.31471051539E+03  0.00000000000E+00 0.  1.
</event>
<event>
 7    1  0.6262315E-006  0.1293230E+03  0.7818608E-02  0.1354951E+00
          2   -1    0    0  502    0  0.00000000000E+00  0.00000000000E+00  0.46662978497E+04  0.46662978497E+04  0.00000000000E+00 0. -1.
          1   -1    0    0  501    0 -0.00000000000E+00 -0.00000000000E+00 -0.13184854488E+04  0.13184854488E+04  0.00000000000E+00 0. -1.
         25    2    1    2    0    0  0.12766003491E+02 -0.12130537070E+03  0.50547073993E+03  0.53479206837E+03  0.12499569455E+03 0.  0.
          2    1    1    2  501    0 -0.39076915628E+02 -0.62212156698E+01 -0.13025019126E+04  0.13031028130E+04  0.00000000000E+00 0. -1.
          1    1    1    2  502    0  0.26310912137E+02  0.12752658637E+03  0.41448435737E+04  0.41468884172E+04  0.00000000000E+00 0. -1.
         22    1    3    3    0    0 -0.82140972949E+01  0.23081139222E+02  0.39193322240E+02  0.46220416381E+02  0.00000000000E+00 0. -1.
         22    1    3    3    0    0  0.20980100786E+02 -0.14438650993E+03  0.46627741769E+03  0.48857165199E+03  0.00000000000E+00 0. -1.
</event>
<event>
 7    1  0.6262315E-006  0.6030193E+02  0.7818608E-02  0.1424884E+00
          2   -1    0    0  502    0  0.00000000000E+00  0.00000000000E+00  0.10701344463E+04  0.10701344463E+04  0.00000000000E+00 0. -1.
          1   -1    0    0  501    0 -0.00000000000E+00 -0.00000000000E+00 -0.37254604612E+03  0.37254604612E+03  0.00000000000E+00 0. -1.
         25    2    1    2    0    0  0.16639153063E+02 -0.91421884750E+01  0.17115039867E+03  0.21278434866E+03  0.12499711614E+03 0.  0.
          2    1    1    2  501    0 -0.59461538128E+02 -0.13324681236E+02 -0.34841703962E+03  0.35370560519E+03  0.00000000000E+00 0. -1.
          1    1    1    2  502    0  0.42822385066E+02  0.22466869711E+02  0.87485504114E+03  0.87619053859E+03  0.00000000000E+00 0. -1.
         22    1    3    3    0    0  0.57645892026E+02 -0.43485137512E+02  0.86847791427E+02  0.11294487561E+03  0.00000000000E+00 0. -1.
         22    1    3    3    0    0 -0.41006738963E+02  0.34342949037E+02  0.84302607244E+02  0.99839473041E+02  0.00000000000E+00 0. -1.
</event>
<event>
 7    1  0.6262315E-006  0.6567468E+02  0.7818608E-02  0.1489644E+00
          2   -1    0    0  502    0  0.00000000000E+00  0.00000000000E+00  0.14418633420E+04  0.14418633420E+04  0.00000000000E+00 0. -1.
          1   -1    0    0  501    0 -0.00000000000E+00 -0.00000000000E+00 -0.10989757279E+03  0.10989757279E+03  0.00000000000E+00 0. -1.
         25    2    1    2    0    0 -0.26265568899E+02  0.31435643759E+02  0.10992835414E+03  0.17142609831E+03  0.12499833730E+03 0.  0.
          2    1    1    2  501    0  0.48066677941E+02 -0.48496057375E+02 -0.64245700726E+02  0.93753843499E+02  0.00000000000E+00 0. -1.
          1    1    1    2  502    0 -0.21801109041E+02  0.17060413616E+02  0.12862831158E+04  0.12865809730E+04  0.00000000000E+00 0. -1.
         22    1    3    3    0    0  0.24452243972E+01  0.36334489559E+02 -0.17718601122E+02  0.40498433051E+02  0.00000000000E+00 0.  1.
         22    1    3    3    0    0 -0.28710793297E+02 -0.48988458002E+01  0.12764695526E+03  0.13092766526E+03  0.00000000000E+00 0.  1.
</event>
<event>
 7    1  0.6262315E-006  0.5771191E+02  0.7818608E-02  0.1500087E+00
          2   -1    0    0  502    0  0.00000000000E+00  0.00000000000E+00  0.16657862788E+04  0.16657862788E+04  0.00000000000E+00 0. -1.
          1   -1    0    0  501    0 -0.00000000000E+00 -0.00000000000E+00 -0.36009410078E+03  0.36009410078E+03  0.00000000000E+00 0. -1.
         25    2    1    2    0    0  0.27117417885E+02 -0.53654223285E+02  0.47513773822E+03  0.49496975438E+03  0.12500022980E+03 0.  0.
          2    1    1    2  501    0 -0.47592456439E+02  0.32686795398E+02 -0.34761479923E+03  0.35237695320E+03  0.00000000000E+00 0. -1.
          1    1    1    2  502    0  0.20475038554E+02  0.20967427887E+02  0.11781692390E+04  0.11785336720E+04  0.00000000000E+00 0. -1.
         22    1    3    3    0    0  0.35035492492E+02 -0.60390060634E+02  0.47886378735E+03  0.48392661840E+03  0.00000000000E+00 0. -1.
         22    1    3    3    0    0 -0.79180746063E+01  0.67358373496E+01 -0.37260491347E+01  0.11043135987E+02  0.00000000000E+00 0. -1.
</event>
<event>
 7    1  0.6262315E-006  0.8703117E+02  0.7818608E-02  0.1452754E+00
          2   -1    0    0  502    0  0.00000000000E+00  0.00000000000E+00  0.23215366608E+04  0.23215366608E+04  0.00000000000E+00 0. -1.
          1   -1    0    0  501    0 -0.00000000000E+00 -0.00000000000E+00 -0.42357471444E+03  0.42357471444E+03  0.00000000000E+00 0. -1.
         25    2    1    2    0    0 -0.52363232421E+02 -0.92834975026E+02  0.13941966921E+04  0.14038416338E+04  0.12500670328E+03 0.  0.
          2    1    1    2  501    0  0.86488001681E+01  0.25784889761E+02 -0.41657179142E+03  0.41745864429E+03  0.00000000000E+00 0. -1.
          1    1    1    2  502    0  0.43714432253E+02  0.67050085265E+02  0.92033704572E+03  0.92381109717E+03  0.00000000000E+00 0. -1.
         22    1    3    3    0    0 -0.73908979437E+02 -0.46299499862E+02  0.45727418450E+03  0.46551676741E+03  0.00000000000E+00 0.  1.
         22    1    3    3    0    0  0.21545747016E+02 -0.46535475164E+02  0.93692250760E+03  0.93832486640E+03  0.00000000000E+00 0.  1.
</event>
<event>
 7    1  0.6262315E-006  0.1425223E+03  0.7818608E-02  0.1344400E+00
          2   -1    0    0  502    0  0.00000000000E+00  0.00000000000E+00  0.10336630092E+04  0.10336630092E+04  0.00000000000E+00 0. -1.
          1   -1    0    0  501    0 -0.00000000000E+00 -0.00000000000E+00 -0.82415527394E+03  0.82415527394E+03  0.00000000000E+00 0. -1.
         25    2    1    2    0    0  0.11743101976E+03 -0.71518045256E+02  0.48469283703E+02  0.19203854411E+03  0.12499862304E+03 0.  0.
          2    1    1    2  501    0 -0.20166222621E+02 -0.33717826669E+02 -0.74623026199E+03  0.74726379029E+03  0.00000000000E+00 0. -1.
          1    1    1    2  502    0 -0.97264797140E+02  0.10523587192E+03  0.90726871355E+03  0.91851594874E+03  0.00000000000E+00 0. -1.
         22    1    3    3    0    0  0.12054945575E+03 -0.34494161627E+02 -0.66523687045E+01  0.12556381834E+03  0.00000000000E+00 0.  1.
         22    1    3    3    0    0 -0.31184359856E+01 -0.37023883629E+02  0.55121652407E+02  0.66474725769E+02  0.00000000000E+00 0.  1.
</event>
<event>
 7    1  0.6262315E-006  0.6012875E+02  0.7818608E-02  0.1397519E+00
          2   -1    0    0  502    0  0.00000000000E+00  0.00000000000E+00  0.81129276204E+03  0.81129276204E+03  0.00000000000E+00 0. -1.
          1   -1    0    0  501    0 -0.00000000000E+00 -0.00000000000E+00 -0.69513277171E+03  0.69513277171E+03  0.00000000000E+00 0. -1.
         25    2    1    2    0    0  0.19347590907E+02  0.87451783279E+01  0.83402952357E+02  0.15172795857E+03  0.12495804708E+03 0.  0.
          2    1    1    2  501    0 -0.36149264684E+02  0.48875422323E+02 -0.65826888602E+03  0.66106996796E+03  0.00000000000E+00 0. -1.
          1    1    1    2  502    0  0.16801673777E+02 -0.57620600651E+02  0.69102592400E+03  0.69362760722E+03  0.00000000000E+00 0. -1.
         22    1    3    3    0    0  0.19119953653E+02 -0.12502362847E+02  0.11300394233E+03  0.11528995050E+03  0.00000000000E+00 0. -1.
         22    1    3    3    0    0  0.22763725437E+00  0.21247541175E+02 -0.29600989970E+02  0.36438008067E+02  0.00000000000E+00 0. -1.
</event>
<event>
 7    1  0.6262315E-006  0.1885413E+03  0.7818608E-02  0.1187449E+00
          2   -1    0    0  502    0  0.00000000000E+00  0.00000000000E+00  0.16610037112E+03  0.16610037112E+03  0.00000000000E+00 0. -1.
          1   -1    0    0  501    0 -0.00000000000E+00 -0.00000000000E+00 -0.11796504366E+04  0.11796504366E+04  0.00000000000E+00 0. -1.
         25    2    1    2    0    0  0.92860406120E+02  0.18973456194E+03 -0.66708940718E+03  0.71081287748E+03  0.12499764235E+03 0.  0.
          2    1    1    2  501    0  0.80960212553E+02 -0.11134854301E+03 -0.41114932464E+03  0.43358600208E+03  0.00000000000E+00 0. -1.
          1    1    1    2  502    0 -0.17382061867E+03 -0.78386018926E+02  0.64688666312E+02  0.20135192820E+03  0.00000000000E+00 0. -1.
         22    1    3    3    0    0  0.16160311890E+02  0.10164281275E+03 -0.47481017129E+03  0.48583651142E+03  0.00000000000E+00 0.  1.
         22    1    3    3    0    0  0.76700094230E+02  0.88091749192E+02 -0.19227923589E+03  0.22497636606E+03  0.00000000000E+00 0.  1.
</event>
<event>
 7    1  0.6262315E-006  0.2122590E+03  0.7818608E-02  0.1161535E+00
          2   -1    0    0  502    0  0.00000000000E+00  0.00000000000E+00  0.10439844102E+04  0.10439844102E+04  0.00000000000E+00 0. -1.
          1   -1    0    0  501    0 -0.00000000000E+00 -0.00000000000E+00 -0.10644270157E+04  0.10644270157E+04  0.00000000000E+00 0. -1.
         25    2    1    2    0    0 -0.14652148648E+03 -0.13845232676E+03 -0.13907499794E+03  0.27495223626E+03  0.12497713546E+03 0.  0.
          2    1    1    2  501    0  0.14444825601E+03 -0.77863816392E+02 -0.83736463737E+03  0.85329221752E+03  0.00000000000E+00 0. -1.
          1    1    1    2  502    0  0.20732304670E+01  0.21631614315E+03  0.95599702980E+03  0.98016697203E+03  0.00000000000E+00 0. -1.
         22    1    3    3    0    0 -0.16357782865E+03 -0.14390275214E+03 -0.13587095131E+03  0.25676180306E+03  0.00000000000E+00 0. -1.
         22    1    3    3    0    0  0.17056342176E+02  0.54504253816E+01 -0.32040466281E+01  0.18190433201E+02  0.00000000000E+00 0. -1.
</event>
<event>
 7    1  0.6262315E-006  0.1379565E+03  0.7818608E-02  0.1366058E+00
          2   -1    0    0  502    0  0.00000000000E+00  0.00000000000E+00  0.65582877539E+03  0.65582877539E+03  0.00000000000E+00 0. -1.
          1   -1    0    0  501    0 -0.00000000000E+00 -0.00000000000E+00 -0.24429974447E+03  0.24429974447E+03  0.00000000000E+00 0. -1.
         25    2    1    2    0    0  0.54842777190E+02 -0.14230644680E+03  0.37146228091E+03  0.42055739055E+03  0.12500175038E+03 0.  0.
          2    1    1    2  501    0  0.11889996407E+02  0.31628662741E+02 -0.20219139505E+03  0.20499537691E+03  0.00000000000E+00 0. -1.
          1    1    1    2  502    0 -0.66732773597E+02  0.11067778406E+03  0.24225814506E+03  0.27457575240E+03  0.00000000000E+00 0. -1.
         22    1    3    3    0    0  0.29893394430E+02 -0.27183201253E+02  0.11794365759E+02  0.42090955377E+02  0.00000000000E+00 0.  1.
         22    1    3    3    0    0  0.24949382761E+02 -0.11512324554E+03  0.35966791515E+03  0.37846643518E+03  0.00000000000E+00 0.  1.
</event>
<event>
 7    1  0.6262315E-006  0.1414236E+03  0.7818608E-02  0.1248272E+00
          2   -1    0    0  502    0  0.00000000000E+00  0.00000000000E+00  0.15314728469E+04  0.15314728469E+04  0.00000000000E+00 0. -1.
          1   -1    0    0  501    0 -0.00000000000E+00 -0.00000000000E+00 -0.67402626359E+02  0.67402626359E+02  0.00000000000E+00 0. -1.
         25    2    1    2    0    0  0.18799614750E+03  0.52280290635E+02  0.37669739603E+03  0.44226667563E+03  0.12499241548E+03 0.  0.
          2    1    1    2  501    0 -0.54242315459E+02 -0.80001038056E+02  0.47308045020E+02  0.10761248069E+03  0.00000000000E+00 0. -1.
          1    1    1    2  502    0 -0.13375383204E+03  0.27720747421E+02  0.10400647795E+04  0.10489963169E+04  0.00000000000E+00 0. -1.
         22    1    3    3    0    0  0.32477725836E+02  0.30708309089E+02  0.13668470269E+02  0.46740025696E+02  0.00000000000E+00 0.  1.
         22    1    3    3    0    0  0.15551842167E+03  0.21571981546E+02  0.36302892576E+03  0.39552664993E+03  0.00000000000E+00 0.  1.
</event>
<event>
 7    1  0.6262315E-006  0.9376527E+02  0.7818608E-02  0.1465965E+00
          2   -1    0    0  502    0  0.00000000000E+00  0.00000000000E+00  0.10592520815E+04  0.10592520815E+04  0.00000000000E+00 0. -1.
          1   -1    0    0  501    0 -0.00000000000E+00 -0.00000000000E+00 -0.11591817553E+03  0.11591817553E+03  0.00000000000E+00 0. -1.
         25    2    1    2    0    0 -0.53376781884E+02 -0.97321098582E+02  0.52421190285E+03  0.55022139640E+03  0.12499995557E+03 0.  0.
          2    1    1    2  501    0  0.55851070922E+02  0.74523412699E+02 -0.81528236226E+02  0.12377372284E+03  0.00000000000E+00 0. -1.
          1    1    1    2  502    0 -0.24742890376E+01  0.22797685883E+02  0.50065023940E+03  0.50117513785E+03  0.00000000000E+00 0. -1.
         22    1    3    3    0    0 -0.79878373634E+01 -0.83343558142E+02  0.14030024902E+03  0.16338333485E+03  0.00000000000E+00 0. -1.
         22    1    3    3    0    0 -0.45388944521E+02 -0.13977540440E+02  0.38391165383E+03  0.38683806155E+03  0.00000000000E+00 0. -1.
</event>
<event>
 7    1  0.6262315E-006  0.1112129E+03  0.7818608E-02  0.1383314E+00
          2   -1    0    0  502    0  0.00000000000E+00  0.00000000000E+00  0.45518872489E+03  0.45518872489E+03  0.00000000000E+00 0. -1.
          1   -1    0    0  501    0 -0.00000000000E+00 -0.00000000000E+00 -0.24201386614E+03  0.24201386614E+03  0.00000000000E+00 0. -1.
         25    2    1    2    0    0  0.80526504629E+02  0.52988906760E+01  0.69467616071E+02  0.16420277777E+03  0.12499682537E+03 0.  0.
          2    1    1    2  501    0 -0.11572209251E+03  0.38769839979E+01 -0.17630526088E+03  0.21092695114E+03  0.00000000000E+00 0. -1.
          1    1    1    2  502    0  0.35195587883E+02 -0.91758746739E+01  0.32001250356E+03  0.32207286213E+03  0.00000000000E+00 0. -1.
         22    1    3    3    0    0  0.10811259657E+03 -0.21578017208E+02  0.52796809470E+02  0.12223521364E+03  0.00000000000E+00 0. -1.
         22    1    3    3    0    0 -0.27586091939E+02  0.26876907884E+02  0.16670806601E+02  0.41967564125E+02  0.00000000000E+00 0. -1.
</event>
<event>
 7    1  0.6262315E-006  0.2025027E+03  0.7818608E-02  0.1225339E+00
          2   -1    0    0  502    0  0.00000000000E+00  0.00000000000E+00  0.16144753177E+04  0.16144753177E+04  0.00000000000E+00 0. -1.
          1   -1    0    0  501    0 -0.00000000000E+00 -0.00000000000E+00 -0.39651603472E+03  0.39651603472E+03  0.00000000000E+00 0. -1.
         25    2    1    2    0    0 -0.16240350862E+03  0.13265610477E+03 -0.12192920268E+03  0.27288265532E+03  0.12500268544E+03 0.  0.
          2    1    1    2  501    0  0.19729165419E+03 -0.54805646213E+02 -0.14491619138E+03  0.25085525347E+03  0.00000000000E+00 0. -1.
          1    1    1    2  502    0 -0.34888145575E+02 -0.77850458560E+02  0.14848046770E+04  0.14872534436E+04  0.00000000000E+00 0. -1.
         22    1    3    3    0    0 -0.64492951865E+02  0.11234073680E+03 -0.21773430279E+02  0.13135396550E+03  0.00000000000E+00 0.  1.
         22    1    3    3    0    0 -0.97910556750E+02  0.20315367970E+02 -0.10015577240E+03  0.14152868982E+03  0.00000000000E+00 0.  1.
</event>
<event>
 7    1  0.1121411E-005  0.8410831E+02  0.7818608E-02  0.1414765E+00
          2   -1    0    0  502    0  0.00000000000E+00  0.00000000000E+00  0.87439843898E+03  0.87439843898E+03  0.00000000000E+00 0. -1.
          1   -1    0    0  501    0 -0.00000000000E+00 -0.00000000000E+00 -0.15400929772E+04  0.15400929772E+04  0.00000000000E+00 0. -1.
         25    2    1    2    0    0 -0.28392875734E+02  0.73301298438E+02 -0.32246138429E+03  0.35466308709E+03  0.12500130097E+03 0.  0.
          2    1    1    2  501    0 -0.33684677977E+02 -0.16428101712E+02 -0.11991726889E+04  0.11997581747E+04  0.00000000000E+00 0. -1.
          1    1    1    2  502    0  0.62077553711E+02 -0.56873196726E+02  0.85593953488E+03  0.86007015444E+03  0.00000000000E+00 0. -1.
         22    1    3    3    0    0 -0.11832589373E+02  0.13412408291E+02  0.71382050007E+01  0.19257643627E+02  0.00000000000E+00 0.  1.
         22    1    3    3    0    0 -0.16560286360E+02  0.59888890147E+02 -0.32959958929E+03  0.33540544346E+03  0.00000000000E+00 0.  1.
</event>
<event>
 7    1  0.6262315E-006  0.1686685E+03  0.7818608E-02  0.1367354E+00
          2   -1    0    0  502    0  0.00000000000E+00  0.00000000000E+00  0.61845387580E+03  0.61845387580E+03  0.00000000000E+00 0. -1.
          1   -1    0    0  501    0 -0.00000000000E+00 -0.00000000000E+00 -0.18116033279E+03  0.18116033279E+03  0.00000000000E+00 0. -1.
         25    2    1    2    0    0 -0.11844071130E+02 -0.18119845201E+03  0.49677772932E+01  0.22050648934E+03  0.12500108799E+03 0.  0.
          2    1    1    2  501    0 -0.21167264899E+02  0.17305037736E+02 -0.56345682076E+02  0.62628694086E+02  0.00000000000E+00 0. -1.
          1    1    1    2  502    0  0.33011336029E+02  0.16389341427E+03  0.48867144779E+03  0.51647902516E+03  0.00000000000E+00 0. -1.
         22    1    3    3    0    0  0.32391879398E+02 -0.21202399016E+02 -0.32249866178E+02  0.50386798306E+02  0.00000000000E+00 0.  1.
         22    1    3    3    0    0 -0.44235950528E+02 -0.15999605299E+03  0.37217643471E+02  0.17011969104E+03  0.00000000000E+00 0.  1.
</event>
<event>
 7    1  0.6262315E-006  0.5377905E+02  0.7818608E-02  0.1430989E+00
          2   -1    0    0  502    0  0.00000000000E+00  0.00000000000E+00  0.34205783493E+02  0.34205783493E+02  0.00000000000E+00 0. -1.
          1   -1    0    0  501    0 -0.00000000000E+00 -0.00000000000E+00 -0.17026461018E+04  0.17026461018E+04  0.00000000000E+00 0. -1.
         25    2    1    2    0    0 -0.17356553036E+02  0.21040788636E+02 -0.79118690783E+03  0.80146456469E+03  0.12499904243E+03 0.  0.
          2    1    1    2  501    0 -0.17714989737E+02 -0.59113232104E+02 -0.88130684315E+03  0.88346474001E+03  0.00000000000E+00 0. -1.
          1    1    1    2  502    0  0.35071542773E+02  0.38072443468E+02  0.40534326225E+01  0.51922580639E+02  0.00000000000E+00 0. -1.
         22    1    3    3    0    0  0.50053507374E+02  0.26622190235E+02 -0.26856524657E+03  0.27448385432E+03  0.00000000000E+00 0. -1.
         22    1    3    3    0    0 -0.67410060410E+02 -0.55814015993E+01 -0.52262166126E+03  0.52698071037E+03  0.00000000000E+00 0. -1.
</event>
<event>
 7    1  0.6262315E-006  0.1191740E+03  0.7818608E-02  0.1294615E+00
          2   -1    0    0  502    0  0.00000000000E+00  0.00000000000E+00  0.13844330402E+04  0.13844330402E+04  0.00000000000E+00 0. -1.
          1   -1    0    0  501    0 -0.00000000000E+00 -0.00000000000E+00 -0.12205470609E+04  0.12205470609E+04  0.00000000000E+00 0. -1.
         25    2    1    2    0    0 -0.56787193533E+02  0.75157079673E+01  0.12046514951E+03  0.18280776469E+03  0.12500222146E+03 0.  0.
          2    1    1    2  501    0 -0.57036444774E+02  0.46104368027E+02 -0.11850287790E+04  0.11872960776E+04  0.00000000000E+00 0. -1.
          1    1    1    2  502    0  0.11382363831E+03 -0.53620075994E+02  0.12284496088E+04  0.12348762588E+04  0.00000000000E+00 0. -1.
         22    1    3    3    0    0 -0.53301575929E+02 -0.28519363876E+02  0.37066248093E+01  0.60565263806E+02  0.00000000000E+00 0.  1.
         22    1    3    3    0    0 -0.34856176040E+01  0.36035071843E+02  0.11675852470E+03  0.12224250088E+03  0.00000000000E+00 0.  1.
</event>
<event>
 7    1  0.6262315E-006  0.7623889E+02  0.7818608E-02  0.1460204E+00
          2   -1    0    0  502    0  0.00000000000E+00  0.00000000000E+00  0.18175340554E+03  0.18175340554E+03  0.00000000000E+00 0. -1.
          1   -1    0    0  501    0 -0.00000000000E+00 -0.00000000000E+00 -0.15777856350E+03  0.15777856350E+03  0.00000000000E+00 0. -1.
         25    2    1    2    0    0  0.49625715833E+01 -0.64683394469E+02 -0.36570548865E+02  0.14551776816E+03  0.12501778742E+03 0.  0.
          2    1    1    2  501    0 -0.27531231374E+02 -0.10323905302E+02 -0.50313370098E+02  0.58275097016E+02  0.00000000000E+00 0. -1.
          1    1    1    2  502    0  0.22568659790E+02  0.75007299771E+02  0.11085876100E+03  0.13573910385E+03  0.00000000000E+00 0. -1.
         22    1    3    3    0    0  0.55088155787E+02 -0.69960448066E+02 -0.13415236303E+02  0.90050751061E+02  0.00000000000E+00 0. -1.
         22    1    3    3    0    0 -0.50125584204E+02  0.52770535966E+01 -0.23155312562E+02  0.55467017103E+02  0.00000000000E+00 0. -1.
</event>
<event>
 7    1  0.6262315E-006  0.4456959E+02  0.7818608E-02  0.1587839E+00
          2   -1    0    0  502    0  0.00000000000E+00  0.00000000000E+00  0.17009479902E+04  0.17009479902E+04  0.00000000000E+00 0. -1.
          1   -1    0    0  501    0 -0.00000000000E+00 -0.00000000000E+00 -0.20728271290E+03  0.20728271290E+03  0.00000000000E+00 0. -1.
         25    2    1    2    0    0 -0.44902387745E+02  0.44981865423E+02  0.60549560027E+02  0.15273864289E+03  0.12499300449E+03 0.  0.
          2    1    1    2  501    0  0.35975843006E+02 -0.25433895330E+02 -0.15810358315E+03  0.16412765555E+03  0.00000000000E+00 0. -1.
          1    1    1    2  502    0  0.89265447389E+01 -0.19547970093E+02  0.15912193004E+04  0.15913644046E+04  0.00000000000E+00 0. -1.
         22    1    3    3    0    0 -0.73446191095E+02 -0.52223577355E+01  0.69703274475E+01  0.73960810375E+02  0.00000000000E+00 0.  1.
         22    1    3    3    0    0  0.28543803350E+02  0.50204223158E+02  0.53579232579E+02  0.78777832519E+02  0.00000000000E+00 0.  1.
</event>
<event>
 7    1  0.6262315E-006  0.2463499E+02  0.7818608E-02  0.1669018E+00
          2   -1    0    0  502    0  0.00000000000E+00  0.00000000000E+00  0.14639885820E+03  0.14639885820E+03  0.00000000000E+00 0. -1.
          1   -1    0    0  501    0 -0.00000000000E+00 -0.00000000000E+00 -0.90751813630E+03  0.90751813630E+03  0.00000000000E+00 0. -1.
         25    2    1    2    0    0 -0.74375955872E+01 -0.93661184512E+01 -0.15337073641E+03  0.19821684658E+03  0.12499717387E+03 0.  0.
          2    1    1    2  501    0  0.21669735164E+02 -0.10925022898E+02 -0.73028205365E+03  0.73068516574E+03  0.00000000000E+00 0. -1.
          1    1    1    2  502    0 -0.14232139577E+02  0.20291141349E+02  0.12253351197E+03  0.12501498218E+03  0.00000000000E+00 0. -1.
         22    1    3    3    0    0  0.58911448920E+01 -0.46983089823E+02 -0.87014240746E+01  0.48143858366E+02  0.00000000000E+00 0.  1.
         22    1    3    3    0    0 -0.13328740479E+02  0.37616971372E+02 -0.14466931234E+03  0.15007298821E+03  0.00000000000E+00 0.  1.
</event>
<event>
 7    1  0.6262315E-006  0.9083833E+02  0.7818608E-02  0.1354152E+00
          2   -1    0    0  502    0  0.00000000000E+00  0.00000000000E+00  0.20825323813E+04  0.20825323813E+04  0.00000000000E+00 0. -1.
          1   -1    0    0  501    0 -0.00000000000E+00 -0.00000000000E+00 -0.16492361767E+03  0.16492361767E+03  0.00000000000E+00 0. -1.
         25    2    1    2    0    0  0.10275018335E+02 -0.38071597667E+02  0.10530180501E+04  0.10611442458E+04  0.12500029582E+03 0.  0.
          2    1    1    2  501    0  0.10289473598E+02  0.90927955075E+02 -0.14698757416E+03  0.17314477537E+03  0.00000000000E+00 0. -1.
          1    1    1    2  502    0 -0.20564491933E+02 -0.52856357408E+02  0.10115782877E+04  0.10131669778E+04  0.00000000000E+00 0. -1.
         22    1    3    3    0    0 -0.26977152879E+02 -0.59220453956E+02  0.89684430297E+03  0.89920216454E+03  0.00000000000E+00 0.  1.
         22    1    3    3    0    0  0.37252171214E+02  0.21148856289E+02  0.15617374715E+03  0.16194208126E+03  0.00000000000E+00 0.  1.
</event>
<event>
 7    1  0.6262315E-006  0.1316001E+03  0.7818608E-02  0.1412315E+00
          2   -1    0    0  502    0  0.00000000000E+00  0.00000000000E+00  0.17297283629E+03  0.17297283629E+03  0.00000000000E+00 0. -1.
          1   -1    0    0  501    0 -0.00000000000E+00 -0.00000000000E+00 -0.25178495209E+03  0.25178495209E+03  0.00000000000E+00 0. -1.
         25    2    1    2    0    0  0.53322915316E+01 -0.12422562155E+03  0.53018286626E+02  0.18410849481E+03  0.12499824304E+03 0.  0.
          2    1    1    2  501    0  0.17719841477E+02 -0.16792077330E+02 -0.87798688829E+02  0.91129448605E+02  0.00000000000E+00 0. -1.
          1    1    1    2  502    0 -0.23052133008E+02  0.14101769888E+03 -0.44031713603E+02  0.14951984496E+03  0.00000000000E+00 0. -1.
         22    1    3    3    0    0  0.86560875470E+01 -0.88975352242E+02 -0.29644160490E+02  0.94182362517E+02  0.00000000000E+00 0. -1.
         22    1    3    3    0    0 -0.33237960154E+01 -0.35250269309E+02  0.82662447116E+02  0.89926132295E+02  0.00000000000E+00 0. -1.
</event>
<event>
 7    1  0.6262315E-006  0.1203049E+03  0.7818608E-02  0.1412839E+00
          2   -1    0    0  502    0  0.00000000000E+00  0.00000000000E+00  0.45674622152E+03  0.45674622152E+03  0.00000000000E+00 0. -1.
          1   -1    0    0  501    0 -0.00000000000E+00 -0.00000000000E+00 -0.95156134641E+03  0.95156134641E+03  0.00000000000E+00 0. -1.
         25    2    1    2    0    0 -0.59749502241E+02 -0.72773423598E+02 -0.75737860895E+03  0.77337736193E+03  0.12499684976E+03 0.  0.
          2    1    1    2  501    0 -0.14090664679E+02 -0.22556552175E+02 -0.17707186234E+03  0.17905806128E+03  0.00000000000E+00 0. -1.
          1    1    1    2  502    0  0.73840166920E+02  0.95329975773E+02  0.43963534639E+03  0.45587214472E+03  0.00000000000E+00 0. -1.
         22    1    3    3    0    0 -0.52082620749E+01 -0.38821116398E+02 -0.52114023353E+02  0.65192610796E+02  0.00000000000E+00 0.  1.
         22    1    3    3    0    0 -0.54541240166E+02 -0.33952307200E+02 -0.70526458560E+03  0.70818475114E+03  0.00000000000E+00 0.  1.
</event>
<event>
 7    1  0.6262315E-006  0.1883637E+03  0.7818608E-02  0.1242114E+00
          2   -1    0    0  502    0  0.00000000000E+00  0.00000000000E+00  0.14176386515E+04  0.14176386515E+04  0.00000000000E+00 0. -1.
          1   -1    0    0  501    0 -0.00000000000E+00 -0.00000000000E+00 -0.94724075632E+03  0.94724075632E+03  0.00000000000E+00 0. -1.
         25    2    1    2    0    0 -0.17465172921E+03 -0.57650136457E+02  0.27521752092E+03  0.35382962070E+03  0.12499580759E+03 0.  0.
          2    1    1    2  501    0  0.31583141119E+02 -0.70456186931E+02 -0.89790722526E+03  0.90122081326E+03  0.00000000000E+00 0. -1.
          1    1    1    2  502    0  0.14306858809E+03  0.12810632339E+03  0.10930875995E+04  0.11098289739E+04  0.00000000000E+00 0. -1.
         22    1    3    3    0    0 -0.75579296344E+01 -0.50187466488E+02  0.37228354986E+02  0.62943264197E+02  0.00000000000E+00 0.  1.
         22    1    3    3    0    0 -0.16709379957E+03 -0.74626699694E+01  0.23798916593E+03  0.29088635650E+03  0.00000000000E+00 0.  1.
</event>
<event>
 7    1  0.6262315E-006  0.1003531E+03  0.7818608E-02  0.1293205E+00
          2   -1    0    0  502    0  0.00000000000E+00  0.00000000000E+00  0.12512155951E+03  0.12512155951E+03  0.00000000000E+00 0. -1.
          1   -1    0    0  501    0 -0.00000000000E+00 -0.00000000000E+00 -0.82859659748E+03  0.82859659748E+03  0.00000000000E+00 0. -1.
         25    2    1    2    0    0 -0.41842709714E+02  0.65670633037E+02 -0.19595624978E+03  0.24512880171E+03  0.12500333275E+03 0.  0.
          2    1    1    2  501    0 -0.37488539358E+02 -0.10432141906E+03 -0.58239922636E+03  0.59285513233E+03  0.00000000000E+00 0. -1.
          1    1    1    2  502    0  0.79331249072E+02  0.38650786027E+02  0.74880438185E+02  0.11573422295E+03  0.00000000000E+00 0. -1.
         22    1    3    3    0    0 -0.42269718082E+02  0.72394979713E+02 -0.21186736958E+03  0.22784982872E+03  0.00000000000E+00 0. -1.
         22    1    3    3    0    0  0.42700836762E+00 -0.67243466762E+01  0.15911119798E+02  0.17278972990E+02  0.00000000000E+00 0. -1.
</event>
<event>
 7    1  0.6262315E-006  0.4542244E+02  0.7818608E-02  0.1497386E+00
          2   -1    0    0  502    0  0.00000000000E+00  0.00000000000E+00  0.38038678399E+03  0.38038678399E+03  0.00000000000E+00 0. -1.
          1   -1    0    0  501    0 -0.00000000000E+00 -0.00000000000E+00 -0.36876920433E+03  0.36876920433E+03  0.00000000000E+00 0. -1.
         25    2    1    2    0    0 -0.68613290492E+01  0.58322593140E+01 -0.13374638151E+02  0.12603916945E+03  0.12500359277E+03 0.  0.
          2    1    1    2  501    0  0.27157753364E+02 -0.37880045656E+02 -0.29612301439E+03  0.29976871264E+03  0.00000000000E+00 0. -1.
          1    1    1    2  502    0 -0.20296424314E+02  0.32047786342E+02  0.32111523220E+03  0.32334810622E+03  0.00000000000E+00 0. -1.
         22    1    3    3    0    0 -0.47434947533E+02 -0.36234363585E+02  0.14289643435E+02  0.61377498005E+02  0.00000000000E+00 0.  1.
         22    1    3    3    0    0  0.40573618484E+02  0.42066622899E+02 -0.27664281586E+02  0.64661671449E+02  0.00000000000E+00 0.  1.
</event>
<event>
 7    1  0.6262315E-006  0.8629825E+02  0.7818608E-02  0.1493392E+00
          2   -1    0    0  502    0  0.00000000000E+00  0.00000000000E+00  0.25317733294E+03  0.25317733294E+03  0.00000000000E+00 0. -1.
          1   -1    0    0  501    0 -0.00000000000E+00 -0.00000000000E+00 -0.11411083904E+04  0.11411083904E+04  0.00000000000E+00 0. -1.
         25    2    1    2    0    0 -0.41957425794E+01  0.10424167688E+03 -0.42388304777E+01  0.16286868214E+03  0.12499723390E+03 0.  0.
          2    1    1    2  501    0  0.11651012656E+02 -0.85117997591E+02 -0.10551969053E+04  0.10586884946E+04  0.00000000000E+00 0. -1.
          1    1    1    2  502    0 -0.74552700769E+01 -0.19123679292E+02  0.17150467828E+03  0.17272854666E+03  0.00000000000E+00 0. -1.
         22    1    3    3    0    0 -0.56441228361E+02  0.47988060065E+02  0.28539531501E+02  0.79391252831E+02  0.00000000000E+00 0.  1.
         22    1    3    3    0    0  0.52245485782E+02  0.56253616818E+02 -0.32778361979E+02  0.83477429307E+02  0.00000000000E+00 0.  1.
</event>
<event>
 7    1  0.6262315E-006  0.1728593E+03  0.7818608E-02  0.1278252E+00
          2   -1    0    0  502    0  0.00000000000E+00  0.00000000000E+00  0.15164696866E+04  0.15164696866E+04  0.00000000000E+00 0. -1.
          1   -1    0    0  501    0 -0.00000000000E+00 -0.00000000000E+00 -0.58244103949E+03  0.58244103949E+03  0.00000000000E+00 0. -1.
         25    2    1    2    0    0 -0.95962093512E+02 -0.10559079712E+03 -0.84655308124E+02  0.20772436114E+03  0.12499899675E+03 0.  0.
          2    1    1    2  501    0 -0.55590709327E+02  0.19729865328E+02 -0.42901242909E+03  0.43304879502E+03  0.00000000000E+00 0. -1.
          1    1    1    2  502    0  0.15155280284E+03  0.85860931795E+02  0.14476963843E+04  0.14581375699E+04  0.00000000000E+00 0. -1.
         22    1    3    3    0    0 -0.16893491699E+02  0.21178639565E+02  0.12156851053E+02  0.29693667054E+02  0.00000000000E+00 0. -1.
         22    1    3    3    0    0 -0.79068601813E+02 -0.12676943669E+03 -0.96812159177E+02  0.17803069408E+03  0.00000000000E+00 0. -1.
</event>
<event>
 7    1  0.6262315E-006  0.1464485E+03  0.7818608E-02  0.1247445E+00
          2   -1    0    0  502    0  0.00000000000E+00  0.00000000000E+00  0.65998420220E+03  0.65998420220E+03  0.00000000000E+00 0. -1.
          1   -1    0    0  501    0 -0.00000000000E+00 -0.00000000000E+00 -0.16326988352E+04  0.16326988352E+04  0.00000000000E+00 0. -1.
         25    2    1    2    0    0  0.11746495951E+03  0.14123196478E+03 -0.72308761102E+02  0.23366189726E+03  0.12499936285E+03 0.  0.
          2    1    1    2  501    0  0.19618486643E+02 -0.92049706719E+02 -0.14690302320E+04  0.14720420701E+04  0.00000000000E+00 0. -1.
          1    1    1    2  502    0 -0.13708344615E+03 -0.49182258060E+02  0.56862436014E+03  0.58697907004E+03  0.00000000000E+00 0. -1.
         22    1    3    3    0    0  0.13323968926E+03  0.72646080810E+02 -0.51881551963E+02  0.16038068240E+03  0.00000000000E+00 0. -1.
         22    1    3    3    0    0 -0.15774729756E+02  0.68585883970E+02 -0.20427209139E+02  0.73281214864E+02  0.00000000000E+00 0. -1.
</event>
<event>
 7    1  0.6262315E-006  0.9428151E+02  0.7818608E-02  0.1381246E+00
          2   -1    0    0  502    0  0.00000000000E+00  0.00000000000E+00  0.22123107920E+04  0.22123107920E+04  0.00000000000E+00 0. -1.
          1   -1    0    0  501    0 -0.00000000000E+00 -0.00000000000E+00 -0.43566353419E+02  0.43566353419E+02  0.00000000000E+00 0. -1.
         25    2    1    2    0    0 -0.11964385683E+03 -0.39157503934E+01  0.49860815584E+03  0.52779265998E+03  0.12500005313E+03 0.  0.
          2    1    1    2  501    0  0.87684507136E+02 -0.25787495709E+02  0.44131843990E+02  0.10149476529E+03  0.00000000000E+00 0. -1.
          1    1    1    2  502    0  0.31959349695E+02  0.29703246102E+02  0.16260044388E+04  0.16265897202E+04  0.00000000000E+00 0. -1.
         22    1    3    3    0    0 -0.11735581090E+02  0.21115129750E+01 -0.48442560867E+01  0.12870476587E+02  0.00000000000E+00 0.  1.
         22    1    3    3    0    0 -0.10790827574E+03 -0.60272633684E+01  0.50345241193E+03  0.51492218339E+03  0.00000000000E+00 0.  1.
</event>
<event>
 7    1  0.6262315E-006  0.8452165E+02  0.7818608E-02  0.1392910E+00
          2   -1    0    0  502    0  0.00000000000E+00  0.00000000000E+00  0.99031920012E+03  0.99031920012E+03  0.00000000000E+00 0. -1.
          1   -1    0    0  501    0 -0.00000000000E+00 -0.00000000000E+00 -0.27622281241E+04  0.27622281241E+04  0.00000000000E+00 0. -1.
         25    2    1    2    0    0 -0.34434136007E+02 -0.81831540000E+02  0.11416970692E+03  0.19115825504E+03  0.12499858331E+03 0.  0.
          2    1    1    2  501    0 -0.32703188131E+02  0.29878774526E+02 -0.27214023406E+04  0.27217628367E+04  0.00000000000E+00 0. -1.
          1    1    1    2  502    0  0.67137324138E+02  0.51952765474E+02  0.83532370976E+03  0.83962623246E+03  0.00000000000E+00 0. -1.
         22    1    3    3    0    0 -0.63804206878E+02 -0.87184126829E+02  0.47321108217E+02  0.11794632707E+03  0.00000000000E+00 0.  1.
         22    1    3    3    0    0  0.29370070870E+02  0.53525868289E+01  0.66848598700E+02  0.73211927968E+02  0.00000000000E+00 0.  1.
</event>
<event>
 7    1  0.6262315E-006  0.8859345E+02  0.7818608E-02  0.1323542E+00
          2   -1    0    0  502    0  0.00000000000E+00  0.00000000000E+00  0.29880129474E+04  0.29880129474E+04  0.00000000000E+00 0. -1.
          1   -1    0    0  501    0 -0.00000000000E+00 -0.00000000000E+00 -0.70531005843E+02  0.70531005843E+02  0.00000000000E+00 0. -1.
         25    2    1    2    0    0 -0.55057537893E+02 -0.21883370588E+02  0.12668488247E+03  0.18756970230E+03  0.12499247733E+03 0.  0.
          2    1    1    2  501    0  0.37010392549E+02 -0.66205921938E+02 -0.28292104166E+01  0.75901236406E+02  0.00000000000E+00 0. -1.
          1    1    1    2  502    0  0.18047145344E+02  0.88089292526E+02  0.27936262695E+04  0.27950730145E+04  0.00000000000E+00 0. -1.
         22    1    3    3    0    0 -0.81887951786E+02  0.22396722124E+02  0.92364525390E+02  0.12545300060E+03  0.00000000000E+00 0.  1.
         22    1    3    3    0    0  0.26830413892E+02 -0.44280092712E+02  0.34320357081E+02  0.62116701702E+02  0.00000000000E+00 0.  1.
</event>
<event>
 7    1  0.6262315E-006  0.1174427E+03  0.7818608E-02  0.1452778E+00
          2   -1    0    0  502    0  0.00000000000E+00  0.00000000000E+00  0.97936146026E+03  0.97936146026E+03  0.00000000000E+00 0. -1.
          1   -1    0    0  501    0 -0.00000000000E+00 -0.00000000000E+00 -0.10887151734E+03  0.10887151734E+03  0.00000000000E+00 0. -1.
         25    2    1    2    0    0  0.58742906697E+02 -0.92632053868E+02  0.19284685128E+01  0.16631331508E+03  0.12499989316E+03 0.  0.
          2    1    1    2  501    0 -0.12508605143E+02 -0.15798237237E+02 -0.18323212664E+02  0.27235815110E+02  0.00000000000E+00 0. -1.
          1    1    1    2  502    0 -0.46234301554E+02  0.10843029110E+03  0.88688468707E+03  0.89468384742E+03  0.00000000000E+00 0. -1.
         22    1    3    3    0    0  0.55292764096E+02 -0.30067808742E+02 -0.53538988623E+02  0.82630419258E+02  0.00000000000E+00 0.  1.
         22    1    3    3    0    0  0.34501426006E+01 -0.62564245125E+02  0.55467457136E+02  0.83682895822E+02  0.00000000000E+00 0.  1.
</event>
<event>
 7    1  0.6262315E-006  0.8525227E+02  0.7818608E-02  0.1359715E+00
          2   -1    0    0  502    0  0.00000000000E+00  0.00000000000E+00  0.29051422337E+04  0.29051422337E+04  0.00000000000E+00 0. -1.
          1   -1    0    0  501    0 -0.00000000000E+00 -0.00000000000E+00 -0.15746693309E+03  0.15746693309E+03  0.00000000000E+00 0. -1.
         25    2    1    2    0    0 -0.39197084809E+02 -0.29879225823E+02  0.26586407071E+03  0.29788916098E+03  0.12500027416E+03 0.  0.
          2    1    1    2  501    0  0.21576794561E+02  0.84780068329E+02 -0.12757943758E+03  0.15469237519E+03  0.00000000000E+00 0. -1.
          1    1    1    2  502    0  0.17620290248E+02 -0.54900842506E+02  0.26093906675E+04  0.26100276306E+04  0.00000000000E+00 0. -1.
         22    1    3    3    0    0  0.26801962368E+02 -0.23491591139E+02  0.20437476023E+03  0.20745901441E+03  0.00000000000E+00 0. -1.
         22    1    3    3    0    0 -0.65999047177E+02 -0.63876346831E+01  0.61489310479E+02  0.90430146568E+02  0.00000000000E+00 0. -1.
</event>
<event>
 7    1  0.6262315E-006  0.4934061E+02  0.7818608E-02  0.1532166E+00
          2   -1    0    0  502    0  0.00000000000E+00  0.00000000000E+00  0.52946226726E+02  0.52946226726E+02  0.00000000000E+00 0. -1.
          1   -1    0    0  501    0 -0.00000000000E+00 -0.00000000000E+00 -0.43072779945E+03  0.43072779945E+03  0.00000000000E+00 0. -1.
         25    2    1    2    0    0 -0.13333156825E+02  0.71774606509E+02 -0.24948751225E+03  0.28844124595E+03  0.12499986554E+03 0.  0.
          2    1    1    2  501    0  0.13825756106E+02 -0.23921138450E+02 -0.14262544582E+03  0.14527694308E+03  0.00000000000E+00 0. -1.
          1    1    1    2  502    0 -0.49259928075E+00 -0.47853468060E+02  0.14331385339E+02  0.49955837147E+02  0.00000000000E+00 0. -1.
         22    1    3    3    0    0 -0.55708762378E+02  0.52702957477E+02 -0.72781173431E+02  0.10572685155E+03  0.00000000000E+00 0. -1.
         22    1    3    3    0    0  0.42375605553E+02  0.19071649032E+02 -0.17670633881E+03  0.18271439440E+03  0.00000000000E+00 0. -1.
</event>
<event>
 7    1  0.6262315E-006  0.8702188E+02  0.7818608E-02  0.1368097E+00
          2   -1    0    0  502    0  0.00000000000E+00  0.00000000000E+00  0.14976746849E+04  0.14976746849E+04  0.00000000000E+00 0. -1.
          1   -1    0    0  501    0 -0.00000000000E+00 -0.00000000000E+00 -0.34917297055E+02  0.34917297055E+02  0.00000000000E+00 0. -1.
         25    2    1    2    0    0 -0.71371224470E+02  0.88787327249E+02  0.46798853749E+03  0.49761428911E+03  0.12501867200E+03 0.  0.
          2    1    1    2  501    0  0.52317235858E+02 -0.60588906781E+01  0.19716348050E+02  0.56236444629E+02  0.00000000000E+00 0. -1.
          1    1    1    2  502    0  0.19053988612E+02 -0.82728436571E+02  0.97505250233E+03  0.97874124824E+03  0.00000000000E+00 0. -1.
         22    1    3    3    0    0 -0.86410082579E+02  0.80781143494E+01  0.22695486980E+03  0.24298245046E+03  0.00000000000E+00 0. -1.
         22    1    3    3    0    0  0.15038858109E+02  0.80709212900E+02  0.24103366768E+03  0.25463183865E+03  0.00000000000E+00 0. -1.
</event>
<event>
 7    1  0.6262315E-006  0.1405848E+03  0.7818608E-02  0.1403351E+00
          2   -1    0    0  502    0  0.00000000000E+00  0.00000000000E+00  0.93086382378E+03  0.93086382378E+03  0.00000000000E+00 0. -1.
          1   -1    0    0  501    0 -0.00000000000E+00 -0.00000000000E+00 -0.36321089498E+03  0.36321089498E+03  0.00000000000E+00 0. -1.
         25    2    1    2    0    0  0.92941356841E+00 -0.11910032324E+03  0.59804010735E+03  0.62246511296E+03  0.12500038419E+03 0.  0.
          2    1    1    2  501    0 -0.12876457226E+02  0.14050527353E+03 -0.33630906392E+03  0.36470717229E+03  0.00000000000E+00 0. -1.
          1    1    1    2  502    0  0.11947043657E+02 -0.21404950290E+02  0.30592188537E+03  0.30690243352E+03  0.00000000000E+00 0. -1.
         22    1    3    3    0    0  0.25797547426E+02 -0.11142287252E+03  0.26778606487E+03  0.29118713315E+03  0.00000000000E+00 0. -1.
         22    1    3    3    0    0 -0.24868133858E+02 -0.76774507157E+01  0.33025404248E+03  0.33127797981E+03  0.00000000000E+00 0. -1.
</event>
<event>
 7    1  0.6262315E-006  0.5904197E+02  0.7818608E-02  0.1421042E+00
          2   -1    0    0  502    0  0.00000000000E+00  0.00000000000E+00  0.13648289231E+04  0.13648289231E+04  0.00000000000E+00 0. -1.
          1   -1    0    0  501    0 -0.00000000000E+00 -0.00000000000E+00 -0.63645154437E+03  0.63645154437E+03  0.00000000000E+00 0. -1.
         25    2    1    2    0    0 -0.10179698774E+03  0.29169806139E+02  0.13874262638E+03  0.21468480759E+03  0.12500618357E+03 0.  0.
          2    1    1    2  501    0  0.43668549511E+02 -0.26082265511E+02 -0.59668477721E+03  0.59884885418E+03  0.00000000000E+00 0. -1.
          1    1    1    2  502    0  0.58128438232E+02 -0.30875406282E+01  0.11863195295E+04  0.11877468057E+04  0.00000000000E+00 0. -1.
         22    1    3    3    0    0 -0.11998009702E+03  0.53690317328E+02  0.12431592241E+03  0.18092076282E+03  0.00000000000E+00 0. -1.
         22    1    3    3    0    0  0.18183109272E+02 -0.24520511189E+02  0.14426703970E+02  0.33764044769E+02  0.00000000000E+00 0. -1.
</event>
<event>
 7    1  0.6262315E-006  0.9607781E+02  0.7818608E-02  0.1457428E+00
          2   -1    0    0  502    0  0.00000000000E+00  0.00000000000E+00  0.31994741207E+04  0.31994741207E+04  0.00000000000E+00 0. -1.
          1   -1    0    0  501    0 -0.00000000000E+00 -0.00000000000E+00 -0.89481144855E+02  0.89481144855E+02  0.00000000000E+00 0. -1.
         25    2    1    2    0    0 -0.26459906317E+02 -0.73886798481E+02  0.33942571441E+03  0.37012694301E+03  0.12499901081E+03 0.  0.
          2    1    1    2  501    0  0.96997947659E+01 -0.21742420666E+02 -0.71368423585E+02  0.75234770951E+02  0.00000000000E+00 0. -1.
          1    1    1    2  502    0  0.16760111551E+02  0.95629219146E+02  0.28419356851E+04  0.28435935516E+04  0.00000000000E+00 0. -1.
         22    1    3    3    0    0  0.29722305931E+02 -0.57980579070E+02  0.27736761844E+03  0.28491745959E+03  0.00000000000E+00 0.  1.
         22    1    3    3    0    0 -0.56182212248E+02 -0.15906219411E+02  0.62058095971E+02  0.85209483419E+02  0.00000000000E+00 0.  1.
</event>
<event>
 7    1  0.6262315E-006  0.3384683E+02  0.7818608E-02  0.1625705E+00
          2   -1    0    0  502    0  0.00000000000E+00  0.00000000000E+00  0.10947666847E+04  0.10947666847E+04  0.00000000000E+00 0. -1.
          1   -1    0    0  501    0 -0.00000000000E+00 -0.00000000000E+00 -0.60094767233E+02  0.60094767233E+02  0.00000000000E+00 0. -1.
         25    2    1    2    0    0 -0.17120008589E+02  0.48665233887E+02  0.29812212321E+03  0.32735723897E+03  0.12499824748E+03 0.  0.
          2    1    1    2  501    0  0.35425094927E+00 -0.33545635982E+02 -0.39103731826E+02  0.51522199389E+02  0.00000000000E+00 0. -1.
          1    1    1    2  502    0  0.16765757640E+02 -0.15119597905E+02  0.77565352607E+03  0.77598201357E+03  0.00000000000E+00 0. -1.
         22    1    3    3    0    0 -0.19727716936E+02  0.90387930992E+02  0.18705433369E+03  0.20868273680E+03  0.00000000000E+00 0.  1.
         22    1    3    3    0    0  0.26077083463E+01 -0.41722697106E+02  0.11106778952E+03  0.11867450217E+03  0.00000000000E+00 0.  1.
</event>
<event>
 7    1  0.6262315E-006  0.6325001E+02  0.7818608E-02  0.1403537E+00
          2   -1    0    0  502    0  0.00000000000E+00  0.00000000000E+00  0.39163258191E+03  0.39163258191E+03  0.00000000000E+00 0. -1.
          1   -1    0    0  501    0 -0.00000000000E+00 -0.00000000000E+00 -0.18436376153E+03  0.18436376153E+03  0.00000000000E+00 0. -1.
         25    2    1    2    0    0 -0.20034795832E+02  0.67734746993E+02  0.19616941209E+03  0.24309815264E+03  0.12499953832E+03 0.  0.
          2    1    1    2  501    0 -0.38981678798E+02 -0.37952607313E+02 -0.14957184862E+03  0.15915938421E+03  0.00000000000E+00 0. -1.
          1    1    1    2  502    0  0.59016474629E+02 -0.29782139680E+02  0.16067125690E+03  0.17373880659E+03  0.00000000000E+00 0. -1.
         22    1    3    3    0    0  0.63584127179E+01 -0.27991723326E+02  0.71474686407E+01  0.29581282849E+02  0.00000000000E+00 0. -1.
         22    1    3    3    0    0 -0.26393208549E+02  0.95726470319E+02  0.18902194345E+03  0.21351686979E+03  0.00000000000E+00 0. -1.
</event>
<event>
 7    1  0.6262315E-006  0.5226990E+02  0.7818608E-02  0.1513633E+00
          2   -1    0    0  502    0  0.00000000000E+00  0.00000000000E+00  0.16693207846E+03  0.16693207846E+03  0.00000000000E+00 0. -1.
          1   -1    0    0  501    0 -0.00000000000E+00 -0.00000000000E+00 -0.14827746931E+04  0.14827746931E+04  0.00000000000E+00 0. -1.
         25    2    1    2    0    0  0.83880074621E+01  0.30598389947E+02 -0.59121261536E+03  0.60511425810E+03  0.12499715462E+03 0.  0.
          2    1    1    2  501    0 -0.21531584373E+02  0.20175918340E+02 -0.88005873326E+03  0.88055326403E+03  0.00000000000E+00 0. -1.
          1    1    1    2  502    0  0.13143576911E+02 -0.50774308287E+02  0.15542873400E+03  0.16403924941E+03  0.00000000000E+00 0. -1.
         22    1    3    3    0    0 -0.35352604191E+02 -0.89846779851E+01 -0.57118268099E+02  0.67771879214E+02  0.00000000000E+00 0.  1.
         22    1    3    3    0    0  0.43740611653E+02  0.39583067932E+02 -0.53409434726E+03  0.53734237889E+03  0.00000000000E+00 0.  1.
</event>
<event>
 7    1  0.6262315E-006  0.2140584E+03  0.7818608E-02  0.1201481E+00
          2   -1    0    0  502    0  0.00000000000E+00  0.00000000000E+00  0.50609520837E+03  0.50609520837E+03  0.00000000000E+00 0. -1.
          1   -1    0    0  501    0 -0.00000000000E+00 -0.00000000000E+00 -0.77340548029E+03  0.77340548029E+03  0.00000000000E+00 0. -1.
         25    2    1    2    0    0 -0.29376254155E+03  0.86749087274E+02  0.12425884481E+03  0.35339339066E+03  0.12499917234E+03 0.  0.
          2    1    1    2  501    0  0.20529329393E+03 -0.32134801128E+02 -0.63139833489E+03  0.66471184680E+03  0.00000000000E+00 0. -1.
          1    1    1    2  502    0  0.88469247621E+02 -0.54614286146E+02  0.23982921816E+03  0.26139545121E+03  0.00000000000E+00 0. -1.
         22    1    3    3    0    0 -0.25334179564E+03  0.55631919319E+02  0.51351418181E+02  0.26441245057E+03  0.00000000000E+00 0. -1.
         22    1    3    3    0    0 -0.40420745908E+02  0.31117167955E+02  0.72907426631E+02  0.88980940090E+02  0.00000000000E+00 0. -1.
</event>
<event>
 7    1  0.6262315E-006  0.6865086E+02  0.7818608E-02  0.1491855E+00
          2   -1    0    0  502    0  0.00000000000E+00  0.00000000000E+00  0.11309472872E+04  0.11309472872E+04  0.00000000000E+00 0. -1.
          1   -1    0    0  501    0 -0.00000000000E+00 -0.00000000000E+00 -0.90749908990E+02  0.90749908990E+02  0.00000000000E+00 0. -1.
         25    2    1    2    0    0  0.59371102922E+02  0.71145601427E+02  0.30707567278E+03  0.34425027630E+03  0.12500463775E+03 0.  0.
          2    1    1    2  501    0 -0.14122690555E+02 -0.21923481036E+02 -0.68368231900E+02  0.73173113521E+02  0.00000000000E+00 0. -1.
          1    1    1    2  502    0 -0.45248412367E+02 -0.49222120391E+02  0.80148993733E+03  0.80427380636E+03  0.00000000000E+00 0. -1.
         22    1    3    3    0    0  0.37756240876E+02  0.42209387436E+02  0.30260270549E+03  0.30785640075E+03  0.00000000000E+00 0.  1.
         22    1    3    3    0    0  0.21614862046E+02  0.28936213991E+02  0.44729672847E+01  0.36393875552E+02  0.00000000000E+00 0.  1.
</event>
<event>
 7    1  0.6262315E-006  0.2178823E+03  0.7818608E-02  0.1229642E+00
          2   -1    0    0  502    0  0.00000000000E+00  0.00000000000E+00  0.23287595642E+04  0.23287595642E+04  0.00000000000E+00 0. -1.
          1   -1    0    0  501    0 -0.00000000000E+00 -0.00000000000E+00 -0.28816582695E+03  0.28816582695E+03  0.00000000000E+00 0. -1.
         25    2    1    2    0    0 -0.27723165125E+03 -0.16750318102E+02  0.28964790765E+03  0.42031040504E+03  0.12500785802E+03 0.  0.
          2    1    1    2  501    0  0.20917910286E+03 -0.16701362674E+02 -0.17251825896E+03  0.27165673609E+03  0.00000000000E+00 0. -1.
          1    1    1    2  502    0  0.68052548388E+02  0.33451680776E+02  0.19234640886E+04  0.19249582501E+04  0.00000000000E+00 0. -1.
         22    1    3    3    0    0 -0.10177064785E+03  0.31752733970E+02  0.45859922785E+02  0.11605444152E+03  0.00000000000E+00 0. -1.
         22    1    3    3    0    0 -0.17546100340E+03 -0.48503052072E+02  0.24378798486E+03  0.30425596352E+03  0.00000000000E+00 0. -1.
</event>
<event>
 7    1  0.6262315E-006  0.4604134E+02  0.7818608E-02  0.1468335E+00
          2   -1    0    0  502    0  0.00000000000E+00  0.00000000000E+00  0.12622837899E+04  0.12622837899E+04  0.00000000000E+00 0. -1.
          1   -1    0    0  501    0 -0.00000000000E+00 -0.00000000000E+00 -0.66923951289E+03  0.66923951289E+03  0.00000000000E+00 0. -1.
         25    2    1    2    0    0 -0.28525355076E+01 -0.23629506875E+02 -0.73258068918E+02  0.14682719740E+03  0.12499996272E+03 0.  0.
          2    1    1    2  501    0  0.46272857816E+02  0.87099930061E+01 -0.55777458416E+03  0.55975845512E+03  0.00000000000E+00 0. -1.
          1    1    1    2  502    0 -0.43420322309E+02  0.14919513869E+02  0.12240769301E+04  0.12249376503E+04  0.00000000000E+00 0. -1.
         22    1    3    3    0    0 -0.57382403970E+02  0.26866144513E+01 -0.63275437106E+02  0.85461916217E+02  0.00000000000E+00 0. -1.
         22    1    3    3    0    0  0.54529868462E+02 -0.26316121326E+02 -0.99826318119E+01  0.61365281178E+02  0.00000000000E+00 0. -1.
</event>
<event>
 7    1  0.6262315E-006  0.9295641E+02  0.7818608E-02  0.1318520E+00
          2   -1    0    0  502    0  0.00000000000E+00  0.00000000000E+00  0.60499410586E+03  0.60499410586E+03  0.00000000000E+00 0. -1.
          1   -1    0    0  501    0 -0.00000000000E+00 -0.00000000000E+00 -0.27215613542E+03  0.27215613542E+03  0.00000000000E+00 0. -1.
         25    2    1    2    0    0 -0.31498639396E+02  0.33878730229E+02  0.14733834575E+03  0.19868016972E+03  0.12500115627E+03 0.  0.
          2    1    1    2  501    0 -0.74207384392E+02 -0.14444211067E+02 -0.23374577871E+03  0.24566737715E+03  0.00000000000E+00 0. -1.
          1    1    1    2  502    0  0.10570602379E+03 -0.19434519162E+02  0.41924540341E+03  0.43280269440E+03  0.00000000000E+00 0. -1.
         22    1    3    3    0    0 -0.71623759223E+01 -0.30017789768E+02 -0.54062777151E+01  0.31330419246E+02  0.00000000000E+00 0. -1.
         22    1    3    3    0    0 -0.24336263474E+02  0.63896519997E+02  0.15274462346E+03  0.16734975048E+03  0.00000000000E+00 0. -1.
</event>
<event>
 7    1  0.6262315E-006  0.1463005E+03  0.7818608E-02  0.1329327E+00
          2   -1    0    0  502    0  0.00000000000E+00  0.00000000000E+00  0.30521219656E+03  0.30521219656E+03  0.00000000000E+00 0. -1.
          1   -1    0    0  501    0 -0.00000000000E+00 -0.00000000000E+00 -0.43587778698E+03  0.43587778698E+03  0.00000000000E+00 0. -1.
         25    2    1    2    0    0 -0.75367799087E+02 -0.11016022010E+03 -0.97380117495E+01  0.18311215258E+03  0.12497860745E+03 0.  0.
          2    1    1    2  501    0  0.11608405116E+03  0.94457061511E+02 -0.32048398004E+03  0.35370556239E+03  0.00000000000E+00 0. -1.
          1    1    1    2  502    0 -0.40716252077E+02  0.15703158584E+02  0.19955640138E+03  0.20427226856E+03  0.00000000000E+00 0. -1.
         22    1    3    3    0    0 -0.60249564763E+02 -0.58608307648E+01  0.33514593201E+02  0.69192393721E+02  0.00000000000E+00 0.  1.
         22    1    3    3    0    0 -0.15118234325E+02 -0.10429938933E+03 -0.43252604951E+02  0.11391975886E+03  0.00000000000E+00 0.  1.
</event>
<event>
 7    1  0.6262315E-006  0.1263760E+03  0.7818608E-02  0.1304039E+00
          2   -1    0    0  502    0  0.00000000000E+00  0.00000000000E+00  0.11047477864E+04  0.11047477864E+04  0.00000000000E+00 0. -1.
          1   -1    0    0  501    0 -0.00000000000E+00 -0.00000000000E+00 -0.53162166324E+03  0.53162166324E+03  0.00000000000E+00 0. -1.
         25    2    1    2    0    0 -0.14797010679E+03  0.24577327560E+02  0.17938763614E+03  0.26515003555E+03  0.12500167927E+03 0.  0.
          2    1    1    2  501    0  0.27137200623E+02 -0.57299463995E+02 -0.48221540032E+03  0.48636544751E+03  0.00000000000E+00 0. -1.
          1    1    1    2  502    0  0.12083290616E+03  0.32722136436E+02  0.87595388734E+03  0.88485396658E+03  0.00000000000E+00 0. -1.
         22    1    3    3    0    0 -0.12768347656E+03 -0.30578671593E+02  0.15032237692E+03  0.19958692930E+03  0.00000000000E+00 0.  1.
         22    1    3    3    0    0 -0.20286630220E+02  0.55155999153E+02  0.29065259226E+02  0.65563106257E+02  0.00000000000E+00 0.  1.
</event>
<event>
 7    1  0.6262315E-006  0.6854780E+02  0.7818608E-02  0.1434420E+00
          2   -1    0    0  502    0  0.00000000000E+00  0.00000000000E+00  0.20103996362E+03  0.20103996362E+03  0.00000000000E+00 0. -1.
          1   -1    0    0  501    0 -0.00000000000E+00 -0.00000000000E+00 -0.69856568119E+03  0.69856568119E+03  0.00000000000E+00 0. -1.
         25    2    1    2    0    0  0.75118949310E+02 -0.56015912094E+02 -0.25168283940E+02  0.15823748652E+03  0.12500008269E+03 0.  0.
          2    1    1    2  501    0 -0.39569548804E+02 -0.50615990770E+00 -0.59788134856E+03  0.59918954626E+03  0.00000000000E+00 0. -1.
          1    1    1    2  502    0 -0.35549400506E+02  0.56522072001E+02  0.12552391493E+03  0.14217861203E+03  0.00000000000E+00 0. -1.
         22    1    3    3    0    0 -0.31856097412E+02  0.18611858022E+01  0.64744065787E+01  0.32560603426E+02  0.00000000000E+00 0. -1.
         22    1    3    3    0    0  0.10697504672E+03 -0.57877097896E+02 -0.31642690519E+02  0.12567688310E+03  0.00000000000E+00 0. -1.
</event>
<event>
 7    1  0.6262315E-006  0.1940622E+03  0.7818608E-02  0.1340050E+00
          2   -1    0    0  502    0  0.00000000000E+00  0.00000000000E+00  0.16804812441E+03  0.16804812441E+03  0.00000000000E+00 0. -1.
          1   -1    0    0  501    0 -0.00000000000E+00 -0.00000000000E+00 -0.10496363590E+04  0.10496363590E+04  0.00000000000E+00 0. -1.
         25    2    1    2    0    0  0.86170515577E+02 -0.19907093549E+03 -0.37478651507E+03  0.45071569507E+03  0.12500044316E+03 0.  0.
          2    1    1    2  501    0  0.98974797959E+00  0.29941769848E+02 -0.56670362195E+03  0.56749492007E+03  0.00000000000E+00 0. -1.
          1    1    1    2  502    0 -0.87160263556E+02  0.16912916564E+03  0.59901902418E+02  0.19947386828E+03  0.00000000000E+00 0. -1.
         22    1    3    3    0    0 -0.21450385989E+02  0.90621673709E+00 -0.49939209921E+02  0.54358669735E+02  0.00000000000E+00 0. -1.
         22    1    3    3    0    0  0.10762090157E+03 -0.19997715223E+03 -0.32484730515E+03  0.39635702533E+03  0.00000000000E+00 0. -1.
</event>
<event>
 7    1  0.6262315E-006  0.6986897E+02  0.7818608E-02  0.1494200E+00
          2   -1    0    0  502    0  0.00000000000E+00  0.00000000000E+00  0.52646177410E+03  0.52646177410E+03  0.00000000000E+00 0. -1.
          1   -1    0    0  501    0 -0.00000000000E+00 -0.00000000000E+00 -0.10491248608E+04  0.10491248608E+04  0.00000000000E+00 0. -1.
         25    2    1    2    0    0 -0.47617886496E+02 -0.16448903546E+02  0.14344810534E+03  0.19682778844E+03  0.12500315930E+03 0.  0.
          2    1    1    2  501    0 -0.24382918536E+02  0.64062181566E+01 -0.10185694410E+04  0.10188813829E+04  0.00000000000E+00 0. -1.
          1    1    1    2  502    0  0.72000805032E+02  0.10042685390E+02  0.35245824898E+03  0.35987746349E+03  0.00000000000E+00 0. -1.
         22    1    3    3    0    0  0.40831314653E+02 -0.56766664132E+01  0.70519577806E+02  0.81684953644E+02  0.00000000000E+00 0.  1.
         22    1    3    3    0    0 -0.88449201149E+02 -0.10772237133E+02  0.72928527537E+02  0.11514283480E+03  0.00000000000E+00 0.  1.
</event>
<event>
 7    1  0.6411342E-006  0.1009691E+03  0.7818608E-02  0.1444430E+00
          2   -1    0    0  502    0  0.00000000000E+00  0.00000000000E+00  0.16371947630E+04  0.16371947630E+04  0.00000000000E+00 0. -1.
          1   -1    0    0  501    0 -0.00000000000E+00 -0.00000000000E+00 -0.54105477184E+03  0.54105477184E+03  0.00000000000E+00 0. -1.
         25    2    1    2    0    0  0.92642187439E+01  0.77004874135E+02 -0.11756004005E+03  0.18831356327E+03  0.12500423475E+03 0.  0.
          2    1    1    2  501    0 -0.61267258908E+01  0.24163562423E+02 -0.38611669009E+03  0.38692055112E+03  0.00000000000E+00 0. -1.
          1    1    1    2  502    0 -0.31374928531E+01 -0.10116843656E+03  0.15998167213E+04  0.16030154204E+04  0.00000000000E+00 0. -1.
         22    1    3    3    0    0  0.57608883926E+02  0.12731674288E+02 -0.20949101467E+02  0.62607858051E+02  0.00000000000E+00 0. -1.
         22    1    3    3    0    0 -0.48344665183E+02  0.64273199846E+02 -0.96610938585E+02  0.12570570522E+03  0.00000000000E+00 0. -1.
</event>
<event>
 7    1  0.6262315E-006  0.1551246E+03  0.7818608E-02  0.1326724E+00
          2   -1    0    0  502    0  0.00000000000E+00  0.00000000000E+00  0.25546109525E+04  0.25546109525E+04  0.00000000000E+00 0. -1.
          1   -1    0    0  501    0 -0.00000000000E+00 -0.00000000000E+00 -0.23615834359E+02  0.23615834359E+02  0.00000000000E+00 0. -1.
         25    2    1    2    0    0  0.94967078147E+02  0.12837138001E+03  0.16581230884E+04  0.16704776393E+04  0.12500163970E+03 0.  0.
          2    1    1    2  501    0  0.25208066008E+02 -0.33735634461E+02  0.31513734994E+02  0.52599003010E+02  0.00000000000E+00 0. -1.
          1    1    1    2  502    0 -0.12017514415E+03 -0.94635745547E+02  0.84135829474E+03  0.85515014455E+03  0.00000000000E+00 0. -1.
         22    1    3    3    0    0 -0.10524817896E+02 -0.17825208418E+02  0.11383205120E+03  0.11569894437E+03  0.00000000000E+00 0. -1.
         22    1    3    3    0    0  0.10549189604E+03  0.14619658843E+03  0.15442910372E+04  0.15547786949E+04  0.00000000000E+00 0. -1.
</event>
<event>
 7    1  0.6262315E-006  0.7097134E+02  0.7818608E-02  0.1366001E+00
          2   -1    0    0  502    0  0.00000000000E+00  0.00000000000E+00  0.20137007675E+04  0.20137007675E+04  0.00000000000E+00 0. -1.
          1   -1    0    0  501    0 -0.00000000000E+00 -0.00000000000E+00 -0.16375057476E+04  0.16375057476E+04  0.00000000000E+00 0. -1.
         25    2    1    2    0    0  0.81545779621E+02  0.10287078005E+03  0.76933149710E+03  0.79039706642E+03  0.12499783441E+03 0.  0.
          2    1    1    2  501    0 -0.44680328902E+02 -0.48185348373E+02 -0.16254272945E+04  0.16267550674E+04  0.00000000000E+00 0. -1.
          1    1    1    2  502    0 -0.36865450720E+02 -0.54685431673E+02  0.12322908172E+04  0.12340543813E+04  0.00000000000E+00 0. -1.
         22    1    3    3    0    0 -0.26547717662E+02  0.56670909923E+02  0.31072372312E+03  0.31696309794E+03  0.00000000000E+00 0. -1.
         22    1    3    3    0    0  0.10809349728E+03  0.46199870123E+02  0.45860777398E+03  0.47343396848E+03  0.00000000000E+00 0. -1.
</event>
<event>
 7    1  0.6262315E-006  0.1914352E+03  0.7818608E-02  0.1235748E+00
          2   -1    0    0  502    0  0.00000000000E+00  0.00000000000E+00  0.56223280420E+03  0.56223280420E+03  0.00000000000E+00 0. -1.
          1   -1    0    0  501    0 -0.00000000000E+00 -0.00000000000E+00 -0.46726424421E+03  0.46726424421E+03  0.00000000000E+00 0. -1.
         25    2    1    2    0    0 -0.24425420699E+03  0.83962087412E+01  0.27173830587E+03  0.38626648849E+03  0.12501791591E+03 0.  0.
          2    1    1    2  501    0  0.17955008206E+03 -0.57215891527E+02 -0.38014929785E+03  0.42429397694E+03  0.00000000000E+00 0. -1.
          1    1    1    2  502    0  0.64704124928E+02  0.48819682786E+02  0.20337955196E+03  0.21893658298E+03  0.00000000000E+00 0. -1.
         22    1    3    3    0    0 -0.16817841431E+03 -0.44518057290E+02  0.13107650884E+03  0.21782306497E+03  0.00000000000E+00 0. -1.
         22    1    3    3    0    0 -0.76075792674E+02  0.52914266031E+02  0.14066179704E+03  0.16844342352E+03  0.00000000000E+00 0. -1.
</event>
<event>
 7    1  0.6262315E-006  0.1114679E+03  0.7818608E-02  0.1291866E+00
          2   -1    0    0  502    0  0.00000000000E+00  0.00000000000E+00  0.48261544721E+03  0.48261544721E+03  0.00000000000E+00 0. -1.
          1   -1    0    0  501    0 -0.00000000000E+00 -0.00000000000E+00 -0.40574639000E+03  0.40574639000E+03  0.00000000000E+00 0. -1.
         25    2    1    2    0    0 -0.30907554043E+02  0.47342391602E+02  0.26344693871E+03  0.29702932407E+03  0.12500220360E+03 0.  0.
          2    1    1    2  501    0  0.10948532022E+03 -0.30112862850E+02 -0.37214277755E+03  0.38908105420E+03  0.00000000000E+00 0. -1.
          1    1    1    2  502    0 -0.78577766178E+02 -0.17229528752E+02  0.18556489605E+03  0.20225145895E+03  0.00000000000E+00 0. -1.
         22    1    3    3    0    0  0.32299147789E+01 -0.62809462390E+01  0.21981457766E+03  0.21992801365E+03  0.00000000000E+00 0. -1.
         22    1    3    3    0    0 -0.34137468822E+02  0.53623337841E+02  0.43632361047E+02  0.77101310425E+02  0.00000000000E+00 0. -1.
</event>
<event>
 7    1  0.6262315E-006  0.2156750E+03  0.7818608E-02  0.1151865E+00
          2   -1    0    0  502    0  0.00000000000E+00  0.00000000000E+00  0.11196616239E+04  0.11196616239E+04  0.00000000000E+00 0. -1.
          1   -1    0    0  501    0 -0.00000000000E+00 -0.00000000000E+00 -0.10540530764E+04  0.10540530764E+04  0.00000000000E+00 0. -1.
         25    2    1    2    0    0 -0.62550462061E+02 -0.25429498574E+03  0.29147984850E+03  0.41129676076E+03  0.12500409297E+03 0.  0.
          2    1    1    2  501    0  0.18142997841E+03  0.11799716896E+03 -0.97142470654E+03  0.99524174422E+03  0.00000000000E+00 0. -1.
          1    1    1    2  502    0 -0.11887951635E+03  0.13629781677E+03  0.74555340548E+03  0.76717619534E+03  0.00000000000E+00 0. -1.
         22    1    3    3    0    0 -0.51876133301E+02 -0.25828565902E+03  0.23294134841E+03  0.35165933325E+03  0.00000000000E+00 0. -1.
         22    1    3    3    0    0 -0.10674328761E+02  0.39906732864E+01  0.58538500086E+02  0.59637427511E+02  0.00000000000E+00 0. -1.
</event>
<event>
 7    1  0.6262315E-006  0.1852304E+03  0.7818608E-02  0.1325027E+00
          2   -1    0    0  502    0  0.00000000000E+00  0.00000000000E+00  0.11268422386E+04  0.11268422386E+04  0.00000000000E+00 0. -1.
          1   -1    0    0  501    0 -0.00000000000E+00 -0.00000000000E+00 -0.51068290142E+03  0.51068290142E+03  0.00000000000E+00 0. -1.
         25    2    1    2    0    0 -0.92944960655E+02 -0.13312956430E+03  0.24757682924E+03  0.32137507401E+03  0.12500162086E+03 0.  0.
          2    1    1    2  501    0  0.12867219637E+03  0.13545013611E+03 -0.45496241385E+03  0.49182727812E+03  0.00000000000E+00 0. -1.
          1    1    1    2  502    0 -0.35727235720E+02 -0.23205718108E+01  0.82354492183E+03  0.82432278793E+03  0.00000000000E+00 0. -1.
         22    1    3    3    0    0 -0.11004460816E+03 -0.98973993521E+02  0.12743813915E+03  0.19531038500E+03  0.00000000000E+00 0. -1.
         22    1    3    3    0    0  0.17099647503E+02 -0.34155570781E+02  0.12013869009E+03  0.12606468902E+03  0.00000000000E+00 0. -1.
</event>
<event>
 7    1  0.6262315E-006  0.1017601E+03  0.7818608E-02  0.1287760E+00
          2   -1    0    0  502    0  0.00000000000E+00  0.00000000000E+00  0.55087430651E+03  0.55087430651E+03  0.00000000000E+00 0. -1.
          1   -1    0    0  501    0 -0.00000000000E+00 -0.00000000000E+00 -0.50183281319E+03  0.50183281319E+03  0.00000000000E+00 0. -1.
         25    2    1    2    0    0 -0.63385299364E+02 -0.20570282926E+02 -0.84999908539E+02  0.16519890346E+03  0.12499944215E+03 0.  0.
          2    1    1    2  501    0 -0.14612489567E+02  0.90401603692E+02 -0.36566278834E+03  0.37695523551E+03  0.00000000000E+00 0. -1.
          1    1    1    2  502    0  0.77997788932E+02 -0.69831320766E+02  0.49970419019E+03  0.51055298073E+03  0.00000000000E+00 0. -1.
         22    1    3    3    0    0 -0.66127162903E+02  0.17194635203E+02 -0.10273951215E+03  0.12338502547E+03  0.00000000000E+00 0. -1.
         22    1    3    3    0    0  0.27418635388E+01 -0.37764918129E+02  0.17739603608E+02  0.41813877996E+02  0.00000000000E+00 0. -1.
</event>
<event>
 7    1  0.6262315E-006  0.1467938E+03  0.7818608E-02  0.1348979E+00
          2   -1    0    0  502    0  0.00000000000E+00  0.00000000000E+00  0.10576501640E+04  0.10576501640E+04  0.00000000000E+00 0. -1.
          1   -1    0    0  501    0 -0.00000000000E+00 -0.00000000000E+00 -0.78889488972E+03  0.78889488972E+03  0.00000000000E+00 0. -1.
         25    2    1    2    0    0 -0.88897741427E+01 -0.11163918783E+03  0.55607039459E+03  0.58084588465E+03  0.12500128651E+03 0.  0.
          2    1    1    2  501    0  0.15351994239E-01  0.14722566035E+03 -0.76882498639E+03  0.78279451646E+03  0.00000000000E+00 0. -1.
          1    1    1    2  502    0  0.88744221485E+01 -0.35586472519E+02  0.48150986611E+03  0.48290465266E+03  0.00000000000E+00 0. -1.
         22    1    3    3    0    0  0.39604617910E+02 -0.10394079089E+03  0.29660962719E+03  0.31677986791E+03  0.00000000000E+00 0.  1.
         22    1    3    3    0    0 -0.48494392053E+02 -0.76983969399E+01  0.25946076740E+03  0.26406601674E+03  0.00000000000E+00 0.  1.
</event>
<event>
 7    1  0.6262315E-006  0.5670036E+02  0.7818608E-02  0.1455535E+00
          2   -1    0    0  502    0  0.00000000000E+00  0.00000000000E+00  0.14412415385E+04  0.14412415385E+04  0.00000000000E+00 0. -1.
          1   -1    0    0  501    0 -0.00000000000E+00 -0.00000000000E+00 -0.40588621463E+02  0.40588621463E+02  0.00000000000E+00 0. -1.
         25    2    1    2    0    0  0.16368368639E+02  0.96653035205E+01  0.10766247412E+04  0.10840239119E+04  0.12500266650E+03 0.  0.
          2    1    1    2  501    0 -0.33424644557E+02 -0.46843029484E+02 -0.12428559517E+02  0.58872280122E+02  0.00000000000E+00 0. -1.
          1    1    1    2  502    0  0.17056275918E+02  0.37177725964E+02  0.33645673528E+03  0.33893396786E+03  0.00000000000E+00 0. -1.
         22    1    3    3    0    0  0.25860539011E+01 -0.57000447267E+02  0.56927557089E+03  0.57212797019E+03  0.00000000000E+00 0.  1.
         22    1    3    3    0    0  0.13782314738E+02  0.66665750787E+02  0.50734917035E+03  0.51189594175E+03  0.00000000000E+00 0.  1.
</event>
<event>
 7    1  0.6262315E-006  0.1026773E+03  0.7818608E-02  0.1360936E+00
          2   -1    0    0  502    0  0.00000000000E+00  0.00000000000E+00  0.84463872329E+02  0.84463872329E+02  0.00000000000E+00 0. -1.
          1   -1    0    0  501    0 -0.00000000000E+00 -0.00000000000E+00 -0.21292993615E+04  0.21292993615E+04  0.00000000000E+00 0. -1.
         25    2    1    2    0    0 -0.74747219856E+02  0.76526519344E+02 -0.49929925785E+03  0.52570758422E+03  0.12500104072E+03 0.  0.
          2    1    1    2  501    0  0.42309223138E+02  0.21338384011E+02 -0.15789612265E+04  0.15796721026E+04  0.00000000000E+00 0. -1.
          1    1    1    2  502    0  0.32437996718E+02 -0.97864903354E+02  0.33424995235E+02  0.10838354693E+03  0.00000000000E+00 0. -1.
         22    1    3    3    0    0 -0.33356751614E+02  0.30417707254E+02 -0.43152047793E+03  0.43387536536E+03  0.00000000000E+00 0.  1.
         22    1    3    3    0    0 -0.41390468242E+02  0.46108812089E+02 -0.67778779914E+02  0.91832218857E+02  0.00000000000E+00 0.  1.
</event>
<event>
 7    1  0.6262315E-006  0.4636651E+02  0.7818608E-02  0.1504576E+00
          2   -1    0    0  502    0  0.00000000000E+00  0.00000000000E+00  0.14942482529E+04  0.14942482529E+04  0.00000000000E+00 0. -1.
          1   -1    0    0  501    0 -0.00000000000E+00 -0.00000000000E+00 -0.86572284336E+02  0.86572284336E+02  0.00000000000E+00 0. -1.
         25    2    1    2    0    0 -0.15371584159E+02 -0.91649157970E+00  0.24949789610E+02  0.12839283682E+03  0.12500041195E+03 0.  0.
          2    1    1    2  501    0 -0.23840095832E+02  0.26132097305E+02 -0.25388858652E+02  0.43541139426E+02  0.00000000000E+00 0. -1.
          1    1    1    2  502    0  0.39211679991E+02 -0.25215605726E+02  0.14081150376E+04  0.14088865610E+04  0.00000000000E+00 0. -1.
         22    1    3    3    0    0 -0.34333031340E+00 -0.12460630365E+02  0.74399404158E+02  0.75436440292E+02  0.00000000000E+00 0.  1.
         22    1    3    3    0    0 -0.15028253845E+02  0.11544138786E+02 -0.49449614548E+02  0.52956396524E+02  0.00000000000E+00 0.  1.
</event>
<event>
 7    1  0.6262315E-006  0.2471085E+03  0.7818608E-02  0.1137936E+00
          2   -1    0    0  502    0  0.00000000000E+00  0.00000000000E+00  0.21153467796E+04  0.21153467796E+04  0.00000000000E+00 0. -1.
          1   -1    0    0  501    0 -0.00000000000E+00 -0.00000000000E+00 -0.97065992635E+03  0.97065992635E+03  0.00000000000E+00 0. -1.
         25    2    1    2    0    0  0.57958599039E+01 -0.18211511070E+03 -0.11124003875E+03  0.24737877478E+03  0.12498962538E+03 0.  0.
          2    1    1    2  501    0  0.18562918518E+03  0.17528697623E+02 -0.77243292820E+03  0.79461819649E+03  0.00000000000E+00 0. -1.
          1    1    1    2  502    0 -0.19142504508E+03  0.16458641308E+03  0.20283598202E+04  0.20440097347E+04  0.00000000000E+00 0. -1.
         22    1    3    3    0    0 -0.39519901027E+02 -0.94468386096E+01 -0.88573996655E+01  0.41587484484E+02  0.00000000000E+00 0. -1.
         22    1    3    3    0    0  0.45315760931E+02 -0.17266827209E+03 -0.10238263908E+03  0.20579129030E+03  0.00000000000E+00 0. -1.
</event>
<event>
 7    1  0.6262315E-006  0.1120166E+03  0.7818608E-02  0.1326990E+00
          2   -1    0    0  502    0  0.00000000000E+00  0.00000000000E+00  0.41696993122E+04  0.41696993122E+04  0.00000000000E+00 0. -1.
          1   -1    0    0  501    0 -0.00000000000E+00 -0.00000000000E+00 -0.60876820721E+02  0.60876820721E+02  0.00000000000E+00 0. -1.
         25    2    1    2    0    0 -0.13127133770E+03 -0.45964547541E+02  0.27798454180E+03  0.33503094950E+03  0.12500171162E+03 0.  0.
          2    1    1    2  501    0  0.78979934248E+02  0.71477309081E+02  0.56160657783E+02  0.12041949680E+03  0.00000000000E+00 0. -1.
          1    1    1    2  502    0  0.52291403447E+02 -0.25512761540E+02  0.37746772919E+04  0.37751256867E+04  0.00000000000E+00 0. -1.
         22    1    3    3    0    0 -0.75650109170E+02  0.10996780269E+02  0.22931039466E+03  0.24171703559E+03  0.00000000000E+00 0. -1.
         22    1    3    3    0    0 -0.55621228525E+02 -0.56961327810E+02  0.48674147141E+02  0.93313913906E+02  0.00000000000E+00 0. -1.
</event>
<event>
 7    1  0.6262315E-006  0.9237358E+02  0.7818608E-02  0.1381121E+00
          2   -1    0    0  502    0  0.00000000000E+00  0.00000000000E+00  0.76568917124E+03  0.76568917124E+03  0.00000000000E+00 0. -1.
          1   -1    0    0  501    0 -0.00000000000E+00 -0.00000000000E+00 -0.24136123824E+03  0.24136123824E+03  0.00000000000E+00 0. -1.
         25    2    1    2    0    0  0.53711784092E+02 -0.11823688222E+03 -0.47623540503E+01  0.18030076553E+03  0.12498307872E+03 0.  0.
          2    1    1    2  501    0  0.80267821374E-01  0.44577365800E+02 -0.14233764532E+03  0.14915479630E+03  0.00000000000E+00 0. -1.
          1    1    1    2  502    0 -0.53792051914E+02  0.73659516422E+02  0.67142793236E+03  0.67759484765E+03  0.00000000000E+00 0. -1.
         22    1    3    3    0    0  0.57676419748E+02 -0.84419845759E+02  0.51544768178E+02  0.11449953222E+03  0.00000000000E+00 0. -1.
         22    1    3    3    0    0 -0.39646356563E+01 -0.33817036463E+02 -0.56307122228E+02  0.65801233307E+02  0.00000000000E+00 0. -1.
</event>
<event>
 7    1  0.6262315E-006  0.6509820E+02  0.7818608E-02  0.1399604E+00
          2   -1    0    0  502    0  0.00000000000E+00  0.00000000000E+00  0.97965381807E+03  0.97965381807E+03  0.00000000000E+00 0. -1.
          1   -1    0    0  501    0 -0.00000000000E+00 -0.00000000000E+00 -0.17787146314E+03  0.17787146314E+03  0.00000000000E+00 0. -1.
         25    2    1    2    0    0  0.46556061240E+02 -0.48437998135E+02  0.25110156691E+03  0.28842733298E+03  0.12499849202E+03 0.  0.
          2    1    1    2  501    0  0.20084357756E+02  0.50695662284E+02 -0.15291658768E+03  0.16234812715E+03  0.00000000000E+00 0. -1.
          1    1    1    2  502    0 -0.66640418996E+02 -0.22576641492E+01  0.70359737570E+03  0.70674982107E+03  0.00000000000E+00 0. -1.
         22    1    3    3    0    0  0.86898304322E+02 -0.42740940464E+02  0.20612892467E+03  0.22774379656E+03  0.00000000000E+00 0. -1.
         22    1    3    3    0    0 -0.40342243082E+02 -0.56970576709E+01  0.44972642244E+02  0.60683536428E+02  0.00000000000E+00 0. -1.
</event>
<event>
 7    1  0.6262315E-006  0.1159640E+03  0.7818608E-02  0.1343870E+00
          2   -1    0    0  502    0  0.00000000000E+00  0.00000000000E+00  0.17353599711E+04  0.17353599711E+04  0.00000000000E+00 0. -1.
          1   -1    0    0  501    0 -0.00000000000E+00 -0.00000000000E+00 -0.23945274181E+03  0.23945274181E+03  0.00000000000E+00 0. -1.
         25    2    1    2    0    0  0.55142319178E+02 -0.74113519420E+02  0.22291606058E+03  0.27175475951E+03  0.12500236048E+03 0.  0.
          2    1    1    2  501    0 -0.25772230466E+02 -0.41093890459E+02 -0.20988798800E+03  0.21542024790E+03  0.00000000000E+00 0. -1.
          1    1    1    2  502    0 -0.29370088712E+02  0.11520740988E+03  0.14828791568E+04  0.14876377055E+04  0.00000000000E+00 0. -1.
         22    1    3    3    0    0  0.89059559404E+02 -0.19620751521E+02  0.12740409130E+03  0.15667923121E+03  0.00000000000E+00 0. -1.
         22    1    3    3    0    0 -0.33917240226E+02 -0.54492767899E+02  0.95511969277E+02  0.11507552830E+03  0.00000000000E+00 0. -1.
</event>
<event>
 7    1  0.6262315E-006  0.8149859E+02  0.7818608E-02  0.1379376E+00
          2   -1    0    0  502    0  0.00000000000E+00  0.00000000000E+00  0.29165085317E+03  0.29165085317E+03  0.00000000000E+00 0. -1.
          1   -1    0    0  501    0 -0.00000000000E+00 -0.00000000000E+00 -0.47740537211E+03  0.47740537211E+03  0.00000000000E+00 0. -1.
         25    2    1    2    0    0  0.11313999566E+03 -0.61053001954E+02 -0.13857942517E+02  0.17984772408E+03  0.12500013448E+03 0.  0.
          2    1    1    2  501    0 -0.47757701945E+02  0.18594814025E+02 -0.37144939352E+03  0.37496828819E+03  0.00000000000E+00 0. -1.
          1    1    1    2  502    0 -0.65382293716E+02  0.42458187929E+02  0.19955281710E+03  0.21424021300E+03  0.00000000000E+00 0. -1.
         22    1    3    3    0    0  0.10213087736E+03 -0.11255402998E+02 -0.52948790557E+02  0.11558968219E+03  0.00000000000E+00 0.  1.
         22    1    3    3    0    0  0.11009118303E+02 -0.49797598955E+02  0.39090848039E+02  0.64258041893E+02  0.00000000000E+00 0.  1.
</event>
<event>
 7    1  0.1149968E-005  0.8892262E+02  0.7818608E-02  0.1315438E+00
          2   -1    0    0  502    0  0.00000000000E+00  0.00000000000E+00  0.12707604903E+04  0.12707604903E+04  0.00000000000E+00 0. -1.
          1   -1    0    0  501    0 -0.00000000000E+00 -0.00000000000E+00 -0.83142973076E+03  0.83142973076E+03  0.00000000000E+00 0. -1.
         25    2    1    2    0    0  0.15438875226E+03 -0.13997872750E+02 -0.24792628934E+03  0.31799938753E+03  0.12499735301E+03 0.  0.
          2    1    1    2  501    0 -0.75909761025E+02  0.35023440421E+02 -0.54393451117E+03  0.55032143847E+03  0.00000000000E+00 0. -1.
          1    1    1    2  502    0 -0.78478991232E+02 -0.21025567671E+02  0.12311915600E+04  0.12338693950E+04  0.00000000000E+00 0. -1.
         22    1    3    3    0    0  0.23368081233E+02 -0.19235573966E+02  0.72333984426E+01  0.31119070991E+02  0.00000000000E+00 0. -1.
         22    1    3    3    0    0  0.13102067102E+03  0.52377012163E+01 -0.25515968778E+03  0.28688031654E+03  0.00000000000E+00 0. -1.
</event>
<event>
 7    1  0.6262315E-006  0.5314887E+02  0.7818608E-02  0.1457991E+00
          2   -1    0    0  502    0  0.00000000000E+00  0.00000000000E+00  0.42435650752E+02  0.42435650752E+02  0.00000000000E+00 0. -1.
          1   -1    0    0  501    0 -0.00000000000E+00 -0.00000000000E+00 -0.10701260126E+04  0.10701260126E+04  0.00000000000E+00 0. -1.
         25    2    1    2    0    0  0.33464003417E+02  0.87012694059E+02 -0.35272480438E+03  0.38566296391E+03  0.12502034096E+03 0.  0.
          2    1    1    2  501    0 -0.16917718206E+02 -0.39381547267E+02 -0.67511598546E+03  0.67647520965E+03  0.00000000000E+00 0. -1.
          1    1    1    2  502    0 -0.16546285211E+02 -0.47631146792E+02  0.15042794223E+00  0.50423489839E+02  0.00000000000E+00 0. -1.
         22    1    3    3    0    0 -0.21867701400E+02  0.92104649958E+02 -0.16885564493E+03  0.19358122774E+03  0.00000000000E+00 0.  1.
         22    1    3    3    0    0  0.55331704817E+02 -0.50919558994E+01 -0.18386915945E+03  0.19208173616E+03  0.00000000000E+00 0.  1.
</event>
<event>
 7    1  0.6262315E-006  0.7778794E+02  0.7818608E-02  0.1390669E+00
          2   -1    0    0  502    0  0.00000000000E+00  0.00000000000E+00  0.66357905058E+03  0.66357905058E+03  0.00000000000E+00 0. -1.
          1   -1    0    0  501    0 -0.00000000000E+00 -0.00000000000E+00 -0.37647804019E+03  0.37647804019E+03  0.00000000000E+00 0. -1.
         25    2    1    2    0    0 -0.11210180910E+03 -0.57256300669E+02 -0.12523869817E+03  0.21715154680E+03  0.12499985275E+03 0.  0.
          2    1    1    2  501    0  0.45225122838E+02  0.18869272979E+02 -0.19990518144E+03  0.20582381486E+03  0.00000000000E+00 0. -1.
          1    1    1    2  502    0  0.66876686264E+02  0.38387027690E+02  0.61224489000E+03  0.61708172910E+03  0.00000000000E+00 0. -1.
         22    1    3    3    0    0 -0.11536581390E+03 -0.75264007485E+02 -0.13788936329E+03  0.19490361297E+03  0.00000000000E+00 0.  1.
         22    1    3    3    0    0  0.32640047957E+01  0.18007706817E+02  0.12650665115E+02  0.22247933835E+02  0.00000000000E+00 0.  1.
</event>
<event>
 7    1  0.6262315E-006  0.7281120E+02  0.7818608E-02  0.1410717E+00
          2   -1    0    0  502    0  0.00000000000E+00  0.00000000000E+00  0.15155734540E+04  0.15155734540E+04  0.00000000000E+00 0. -1.
          1   -1    0    0  501    0 -0.00000000000E+00 -0.00000000000E+00 -0.51922311221E+02  0.51922311221E+02  0.00000000000E+00 0. -1.
         25    2    1    2    0    0  0.21200037087E+02  0.51341167876E+02  0.52512524732E+03  0.54264494034E+03  0.12498659454E+03 0.  0.
          2    1    1    2  501    0  0.18293384831E+02 -0.72226231287E+02 -0.10086911198E+02  0.75186582526E+02  0.00000000000E+00 0. -1.
          1    1    1    2  502    0 -0.39493421918E+02  0.20885063411E+02  0.94861280663E+03  0.94966424233E+03  0.00000000000E+00 0. -1.
         22    1    3    3    0    0  0.28494225947E+02  0.84029457775E+02  0.24590713641E+03  0.26142530563E+03  0.00000000000E+00 0. -1.
         22    1    3    3    0    0 -0.72941888590E+01 -0.32688289899E+02  0.27921811090E+03  0.28121963470E+03  0.00000000000E+00 0. -1.
</event>
<event>
 7    1  0.6262315E-006  0.2271907E+03  0.7818608E-02  0.1350077E+00
          2   -1    0    0  502    0  0.00000000000E+00  0.00000000000E+00  0.74798004504E+03  0.74798004504E+03  0.00000000000E+00 0. -1.
          1   -1    0    0  501    0 -0.00000000000E+00 -0.00000000000E+00 -0.22690834666E+03  0.22690834666E+03  0.00000000000E+00 0. -1.
         25    2    1    2    0    0  0.92861186851E+02 -0.18979501978E+03  0.89145879948E+02  0.26118484410E+03  0.12500074127E+03 0.  0.
          2    1    1    2  501    0  0.19866181527E+02 -0.12509110061E+02 -0.11625922215E+03  0.11860585878E+03  0.00000000000E+00 0. -1.
          1    1    1    2  502    0 -0.11272736838E+03  0.20230412984E+03  0.54818504057E+03  0.59509768882E+03  0.00000000000E+00 0. -1.
         22    1    3    3    0    0  0.64994507645E+01 -0.14374248702E+03  0.75099916592E+02  0.16230878876E+03  0.00000000000E+00 0. -1.
         22    1    3    3    0    0  0.86361736086E+02 -0.46052532760E+02  0.14045963356E+02  0.98876055342E+02  0.00000000000E+00 0. -1.
</event>
<event>
 7    1  0.6262315E-006  0.5113682E+02  0.7818608E-02  0.1443249E+00
          2   -1    0    0  502    0  0.00000000000E+00  0.00000000000E+00  0.13027283837E+04  0.13027283837E+04  0.00000000000E+00 0. -1.
          1   -1    0    0  501    0 -0.00000000000E+00 -0.00000000000E+00 -0.13546103858E+04  0.13546103858E+04  0.00000000000E+00 0. -1.
         25    2    1    2    0    0 -0.69175955330E+02  0.60133642247E+02  0.13592011829E+03  0.20615821438E+03  0.12500225227E+03 0.  0.
          2    1    1    2  501    0  0.21487903495E+02 -0.46299408014E+02 -0.13184526070E+04  0.13194402761E+04  0.00000000000E+00 0. -1.
          1    1    1    2  502    0  0.47688051836E+02 -0.13834234234E+02  0.11306504866E+04  0.11317402791E+04  0.00000000000E+00 0. -1.
         22    1    3    3    0    0  0.22049423900E+02  0.43735338636E+02  0.10309373068E+02  0.50052373700E+02  0.00000000000E+00 0. -1.
         22    1    3    3    0    0 -0.91225379230E+02  0.16398303611E+02  0.12561074523E+03  0.15610584068E+03  0.00000000000E+00 0. -1.
</event>
<event>
 7    1  0.6262315E-006  0.1365046E+03  0.7818608E-02  0.1340995E+00
          2   -1    0    0  502    0  0.00000000000E+00  0.00000000000E+00  0.11292300829E+03  0.11292300829E+03  0.00000000000E+00 0. -1.
          1   -1    0    0  501    0 -0.00000000000E+00 -0.00000000000E+00 -0.37692134682E+03  0.37692134682E+03  0.00000000000E+00 0. -1.
         25    2    1    2    0    0 -0.71001842806E+02  0.81215013142E+02 -0.67713091449E+02  0.17845720296E+03  0.12499908196E+03 0.  0.
          2    1    1    2  501    0  0.87014146323E+02 -0.12030559719E+03 -0.21810169434E+03  0.26384322513E+03  0.00000000000E+00 0. -1.
          1    1    1    2  502    0 -0.16012303517E+02  0.39090584046E+02  0.21816447257E+02  0.47543927013E+02  0.00000000000E+00 0. -1.
         22    1    3    3    0    0 -0.68692241310E+02  0.84349629388E+02 -0.98905294984E+02  0.14702292804E+03  0.00000000000E+00 0.  1.
         22    1    3    3    0    0 -0.23096014967E+01 -0.31346162457E+01  0.31192203535E+02  0.31434274915E+02  0.00000000000E+00 0.  1.
</event>
<event>
 7    1  0.6262315E-006  0.6046644E+02  0.7818608E-02  0.1474584E+00
          2   -1    0    0  502    0  0.00000000000E+00  0.00000000000E+00  0.61146757564E+03  0.61146757564E+03  0.00000000000E+00 0. -1.
          1   -1    0    0  501    0 -0.00000000000E+00 -0.00000000000E+00 -0.11439827146E+03  0.11439827146E+03  0.00000000000E+00 0. -1.
         25    2    1    2    0    0  0.21733165023E+02 -0.22726743198E+02  0.19567730692E+03  0.23430666207E+03  0.12498467158E+03 0.  0.
          2    1    1    2  501    0  0.27949548650E+02 -0.18344458829E+02 -0.89420718111E+02  0.95466021531E+02  0.00000000000E+00 0. -1.
          1    1    1    2  502    0 -0.49682713673E+02  0.41071202027E+02  0.39081271537E+03  0.39609316349E+03  0.00000000000E+00 0. -1.
         22    1    3    3    0    0  0.39651495142E+02 -0.16105904337E+02  0.20748272389E+03  0.21185070671E+03  0.00000000000E+00 0.  1.
         22    1    3    3    0    0 -0.17918330118E+02 -0.66208388608E+01 -0.11805416969E+02  0.22455955363E+02  0.00000000000E+00 0.  1.
</event>
<event>
 7    1  0.6262315E-006  0.1637752E+03  0.7818608E-02  0.1221445E+00
          2   -1    0    0  502    0  0.00000000000E+00  0.00000000000E+00  0.36223523159E+03  0.36223523159E+03  0.00000000000E+00 0. -1.
          1   -1    0    0  501    0 -0.00000000000E+00 -0.00000000000E+00 -0.10004810404E+04  0.10004810404E+04  0.00000000000E+00 0. -1.
         25    2    1    2    0    0  0.55042320124E+02 -0.26962755976E+02  0.68014574629E+02  0.15494498544E+03  0.12500127573E+03 0.  0.
          2    1    1    2  501    0 -0.15859813453E+03  0.63645088009E+02 -0.93687088311E+03  0.95232931128E+03  0.00000000000E+00 0. -1.
          1    1    1    2  502    0  0.10355581441E+03 -0.36682332033E+02  0.23061049967E+03  0.25544197529E+03  0.00000000000E+00 0. -1.
         22    1    3    3    0    0  0.39474926742E+02 -0.30521709439E+01 -0.32020548939E+02  0.50920537537E+02  0.00000000000E+00 0.  1.
         22    1    3    3    0    0  0.15567393382E+02 -0.23910585032E+02  0.10003512357E+03  0.10402444790E+03  0.00000000000E+00 0.  1.
</event>
<event>
 7    1  0.6262315E-006  0.1331760E+03  0.7818608E-02  0.1371307E+00
          2   -1    0    0  502    0  0.00000000000E+00  0.00000000000E+00  0.26795690574E+03  0.26795690574E+03  0.00000000000E+00 0. -1.
          1   -1    0    0  501    0 -0.00000000000E+00 -0.00000000000E+00 -0.79258741895E+03  0.79258741895E+03  0.00000000000E+00 0. -1.
         25    2    1    2    0    0  0.79475153204E+02 -0.14363866250E+03 -0.20047198892E+02  0.20730280061E+03  0.12499678242E+03 0.  0.
          2    1    1    2  501    0 -0.67631352627E+02  0.11228975475E+03 -0.67089809565E+03  0.68358411598E+03  0.00000000000E+00 0. -1.
          1    1    1    2  502    0 -0.11843800576E+02  0.31348907757E+02  0.16631478134E+03  0.16965740809E+03  0.00000000000E+00 0. -1.
         22    1    3    3    0    0 -0.12112959984E+02 -0.75513771226E+02  0.30665779157E+02  0.82398079199E+02  0.00000000000E+00 0.  1.
         22    1    3    3    0    0  0.91588113188E+02 -0.68124891278E+02 -0.50712978048E+02  0.12490472141E+03  0.00000000000E+00 0.  1.
</event>
<event>
 7    1  0.6262315E-006  0.1001402E+03  0.7818608E-02  0.1471109E+00
          2   -1    0    0  502    0  0.00000000000E+00  0.00000000000E+00  0.26597711874E+03  0.26597711874E+03  0.00000000000E+00 0. -1.
          1   -1    0    0  501    0 -0.00000000000E+00 -0.00000000000E+00 -0.52462352048E+03  0.52462352048E+03  0.00000000000E+00 0. -1.
         25    2    1    2    0    0  0.88771017621E+02  0.20142619002E+02 -0.19605613483E+03  0.24969963864E+03  0.12500353140E+03 0.  0.
          2    1    1    2  501    0  0.33427569249E+01  0.20421664198E+02 -0.29077184013E+03  0.29150725790E+03  0.00000000000E+00 0. -1.
          1    1    1    2  502    0 -0.92113774546E+02 -0.40564283201E+02  0.22818157322E+03  0.24939374268E+03  0.00000000000E+00 0. -1.
         22    1    3    3    0    0  0.65360611258E+00  0.58494909386E+02 -0.71645947323E+02  0.92494450605E+02  0.00000000000E+00 0.  1.
         22    1    3    3    0    0  0.88117411508E+02 -0.38352290383E+02 -0.12441018751E+03  0.15720518803E+03  0.00000000000E+00 0.  1.
</event>
<event>
 7    1  0.6262315E-006  0.2423374E+03  0.7818608E-02  0.1265736E+00
          2   -1    0    0  502    0  0.00000000000E+00  0.00000000000E+00  0.26055740447E+03  0.26055740447E+03  0.00000000000E+00 0. -1.
          1   -1    0    0  501    0 -0.00000000000E+00 -0.00000000000E+00 -0.76142820659E+03  0.76142820659E+03  0.00000000000E+00 0. -1.
         25    2    1    2    0    0 -0.70549806614E+01 -0.27187250819E+03 -0.14015881849E+03  0.33050580544E+03  0.12500063828E+03 0.  0.
          2    1    1    2  501    0  0.33083787098E+02  0.23217377041E+03 -0.49570580280E+03  0.54838256680E+03  0.00000000000E+00 0. -1.
          1    1    1    2  502    0 -0.26028806437E+02  0.39698737777E+02  0.13499381916E+03  0.14309723882E+03  0.00000000000E+00 0. -1.
         22    1    3    3    0    0 -0.12594839834E+02 -0.66608765603E+02 -0.10072978594E+03  0.12141600974E+03  0.00000000000E+00 0. -1.
         22    1    3    3    0    0  0.55398591730E+01 -0.20526374259E+03 -0.39429032550E+02  0.20908979571E+03  0.00000000000E+00 0. -1.
</event>
<event>
 7    1  0.6262315E-006  0.1040736E+03  0.7818608E-02  0.1399162E+00
          2   -1    0    0  502    0  0.00000000000E+00  0.00000000000E+00  0.81020469218E+03  0.81020469218E+03  0.00000000000E+00 0. -1.
          1   -1    0    0  501    0 -0.00000000000E+00 -0.00000000000E+00 -0.42811752577E+03  0.42811752577E+03  0.00000000000E+00 0. -1.
         25    2    1    2    0    0  0.97067997778E+02  0.18534116280E+02 -0.31669158646E+02  0.16245912022E+03  0.12499728187E+03 0.  0.
          2    1    1    2  501    0 -0.65337979064E+01  0.33598364990E+02 -0.32649093095E+03  0.32828016790E+03  0.00000000000E+00 0. -1.
          1    1    1    2  502    0 -0.90534199871E+02 -0.52132481270E+02  0.74024725601E+03  0.74758292983E+03  0.00000000000E+00 0. -1.
         22    1    3    3    0    0  0.88434131478E+02  0.62317962307E+02 -0.78654485227E+00  0.10818845913E+03  0.00000000000E+00 0. -1.
         22    1    3    3    0    0  0.86338663000E+01 -0.43783846027E+02 -0.30882613794E+02  0.54270661088E+02  0.00000000000E+00 0. -1.
</event>
<event>
 7    1  0.6262315E-006  0.1015261E+03  0.7818608E-02  0.1307058E+00
          2   -1    0    0  502    0  0.00000000000E+00  0.00000000000E+00  0.29816388460E+04  0.29816388460E+04  0.00000000000E+00 0. -1.
          1   -1    0    0  501    0 -0.00000000000E+00 -0.00000000000E+00 -0.39803307767E+03  0.39803307767E+03  0.00000000000E+00 0. -1.
         25    2    1    2    0    0  0.14827411724E+03  0.82536283799E+02 -0.16058890346E+02  0.21137850098E+03  0.12500212290E+03 0.  0.
          2    1    1    2  501    0 -0.90584477185E+02 -0.31883547000E+02 -0.27567831485E+03  0.29192574630E+03  0.00000000000E+00 0. -1.
          1    1    1    2  502    0 -0.57689640060E+02 -0.50652736799E+02  0.28753429735E+04  0.28763676764E+04  0.00000000000E+00 0. -1.
         22    1    3    3    0    0  0.40923237549E+01  0.41958957356E+02  0.33245442260E+02  0.53689483581E+02  0.00000000000E+00 0.  1.
         22    1    3    3    0    0  0.14418179349E+03  0.40577326443E+02 -0.49304332606E+02  0.15768901740E+03  0.00000000000E+00 0.  1.
</event>
<event>
 7    1  0.6262315E-006  0.8495028E+02  0.7818608E-02  0.1368384E+00
          2   -1    0    0  502    0  0.00000000000E+00  0.00000000000E+00  0.82856893819E+03  0.82856893819E+03  0.00000000000E+00 0. -1.
          1   -1    0    0  501    0 -0.00000000000E+00 -0.00000000000E+00 -0.34195357461E+03  0.34195357461E+03  0.00000000000E+00 0. -1.
         25    2    1    2    0    0 -0.42270663668E+02 -0.12832883000E+03  0.65171539341E+02  0.19526447039E+03  0.12500314491E+03 0.  0.
          2    1    1    2  501    0  0.34456384335E+02  0.75076157345E+02 -0.26967680869E+03  0.28204477121E+03  0.00000000000E+00 0. -1.
          1    1    1    2  502    0  0.78142793331E+01  0.53252672657E+02  0.69112063293E+03  0.69321327120E+03  0.00000000000E+00 0. -1.
         22    1    3    3    0    0 -0.61636168941E+02 -0.58447175966E+02  0.84917748407E+02  0.12010875778E+03  0.00000000000E+00 0. -1.
         22    1    3    3    0    0  0.19365505273E+02 -0.69881654036E+02 -0.19746209066E+02  0.75155712609E+02  0.00000000000E+00 0. -1.
</event>
<event>
 7    1  0.6262315E-006  0.1283141E+03  0.7818608E-02  0.1290235E+00
          2   -1    0    0  502    0  0.00000000000E+00  0.00000000000E+00  0.19141427062E+04  0.19141427062E+04  0.00000000000E+00 0. -1.
          1   -1    0    0  501    0 -0.00000000000E+00 -0.00000000000E+00 -0.20496336448E+03  0.20496336448E+03  0.00000000000E+00 0. -1.
         25    2    1    2    0    0 -0.14975430554E+02  0.61900568482E+02  0.15358351397E+03  0.20801057566E+03  0.12499823969E+03 0.  0.
          2    1    1    2  501    0 -0.11362469072E+02  0.70041552336E+02 -0.16794056628E+03  0.18231554668E+03  0.00000000000E+00 0. -1.
          1    1    1    2  502    0  0.26337899626E+02 -0.13194212082E+03  0.17235363941E+04  0.17287799484E+04  0.00000000000E+00 0. -1.
         22    1    3    3    0    0  0.43504819039E+02  0.43489942194E+01  0.10230287633E+03  0.11125404054E+03  0.00000000000E+00 0. -1.
         22    1    3    3    0    0 -0.58480249593E+02  0.57551574263E+02  0.51280637638E+02  0.96756535124E+02  0.00000000000E+00 0. -1.
</event>
<event>
 7    1  0.6262315E-006  0.8649079E+02  0.7818608E-02  0.1386648E+00
          2   -1    0    0  502    0  0.00000000000E+00  0.00000000000E+00  0.63402426154E+03  0.63402426154E+03  0.00000000000E+00 0. -1.
          1   -1    0    0  501    0 -0.00000000000E+00 -0.00000000000E+00 -0.81868484233E+03  0.81868484233E+03  0.00000000000E+00 0. -1.
         25    2    1    2    0    0  0.54678533727E+02  0.48457841497E+02  0.41671639878E+03  0.44115249504E+03  0.12500024966E+03 0.  0.
          2    1    1    2  501    0 -0.78358614397E+01  0.44843503468E+02 -0.79248503160E+03  0.79379144984E+03  0.00000000000E+00 0. -1.
          1    1    1    2  502    0 -0.46842672287E+02 -0.93301344965E+02  0.19110805204E+03  0.21776515900E+03  0.00000000000E+00 0. -1.
         22    1    3    3    0    0  0.14162599461E+02 -0.23808396114E+02  0.16062290918E+02  0.32022119520E+02  0.00000000000E+00 0.  1.
         22    1    3    3    0    0  0.40515934266E+02  0.72266237611E+02  0.40065410786E+03  0.40913037552E+03  0.00000000000E+00 0.  1.
</event>
<event>
 7    1  0.6262315E-006  0.4843339E+02  0.7818608E-02  0.1532862E+00
          2   -1    0    0  502    0  0.00000000000E+00  0.00000000000E+00  0.29675237169E+04  0.29675237169E+04  0.00000000000E+00 0. -1.
          1   -1    0    0  501    0 -0.00000000000E+00 -0.00000000000E+00 -0.10767810983E+03  0.10767810983E+03  0.00000000000E+00 0. -1.
         25    2    1    2    0    0 -0.20925733149E+02 -0.21010473424E+02  0.17735334225E+03  0.21899488087E+03  0.12500089415E+03 0.  0.
          2    1    1    2  501    0  0.95963245251E+01 -0.26323431931E+02 -0.84378250407E+02  0.88908389114E+02  0.00000000000E+00 0. -1.
          1    1    1    2  502    0  0.11329408624E+02  0.47333905355E+02  0.27668705153E+04  0.27672985568E+04  0.00000000000E+00 0. -1.
         22    1    3    3    0    0 -0.58416042738E+02  0.53557764873E+01  0.15925904078E+03  0.16971906334E+03  0.00000000000E+00 0.  1.
         22    1    3    3    0    0  0.37490309589E+02 -0.26366249911E+02  0.18094301469E+02  0.49275817529E+02  0.00000000000E+00 0.  1.
</event>
<event>
 7    1  0.6262315E-006  0.6856965E+02  0.7818608E-02  0.1395396E+00
          2   -1    0    0  502    0  0.00000000000E+00  0.00000000000E+00  0.21128102965E+04  0.21128102965E+04  0.00000000000E+00 0. -1.
          1   -1    0    0  501    0 -0.00000000000E+00 -0.00000000000E+00 -0.13193473519E+02  0.13193473519E+02  0.00000000000E+00 0. -1.
         25    2    1    2    0    0  0.50698161044E+02 -0.80416037197E+02  0.67038572915E+03  0.68853402553E+03  0.12500014356E+03 0.  0.
          2    1    1    2  501    0 -0.51882079038E+02  0.13176136799E+02  0.22182438789E+03  0.22819162949E+03  0.00000000000E+00 0. -1.
          1    1    1    2  502    0  0.11839179948E+01  0.67239900398E+02  0.12074067059E+04  0.12092781150E+04  0.00000000000E+00 0. -1.
         22    1    3    3    0    0  0.22415098017E+01  0.10792661837E+02  0.38290272812E+03  0.38306135947E+03  0.00000000000E+00 0.  1.
         22    1    3    3    0    0  0.48456651242E+02 -0.91208699034E+02  0.28748300104E+03  0.30547266607E+03  0.00000000000E+00 0.  1.
</event>
<event>
 7    1  0.6262315E-006  0.1135119E+03  0.7818608E-02  0.1296861E+00
          2   -1    0    0  502    0  0.00000000000E+00  0.00000000000E+00  0.94175017029E+03  0.94175017029E+03  0.00000000000E+00 0. -1.
          1   -1    0    0  501    0 -0.00000000000E+00 -0.00000000000E+00 -0.17932408889E+03  0.17932408889E+03  0.00000000000E+00 0. -1.
         25    2    1    2    0    0 -0.69425158693E+02 -0.98658990324E+02  0.33845236119E+03  0.38043155800E+03  0.12499888197E+03 0.  0.
          2    1    1    2  501    0 -0.41836216059E+02  0.62741457755E+02 -0.14303991469E+03  0.16170088648E+03  0.00000000000E+00 0. -1.
          1    1    1    2  502    0  0.11126137475E+03  0.35917532569E+02  0.56701363489E+03  0.57894181470E+03  0.00000000000E+00 0. -1.
         22    1    3    3    0    0 -0.40731417174E+02 -0.97947607245E+01  0.24414685877E+03  0.24771490534E+03  0.00000000000E+00 0. -1.
         22    1    3    3    0    0 -0.28693741519E+02 -0.88864229599E+02  0.94305502427E+02  0.13271665266E+03  0.00000000000E+00 0. -1.
</event>
<event>
 7    1  0.6262315E-006  0.4653909E+02  0.7818608E-02  0.1465309E+00
          2   -1    0    0  502    0  0.00000000000E+00  0.00000000000E+00  0.54041360341E+02  0.54041360341E+02  0.00000000000E+00 0. -1.
          1   -1    0    0  501    0 -0.00000000000E+00 -0.00000000000E+00 -0.66651687799E+03  0.66651687799E+03  0.00000000000E+00 0. -1.
         25    2    1    2    0    0 -0.57994776237E+02  0.15284220728E+02 -0.21232760415E+03  0.25358372593E+03  0.12499877239E+03 0.  0.
          2    1    1    2  501    0  0.19440969244E+02 -0.42153695217E+02 -0.41507868400E+03  0.41766637310E+03  0.00000000000E+00 0. -1.
          1    1    1    2  502    0  0.38553806993E+02  0.26869474489E+02  0.14930770508E+02  0.49308139297E+02  0.00000000000E+00 0. -1.
         22    1    3    3    0    0  0.42018941076E+01  0.35927025410E+02 -0.54567479036E+01  0.36581185965E+02  0.00000000000E+00 0.  1.
         22    1    3    3    0    0 -0.62196670345E+02 -0.20642804682E+02 -0.20687085625E+03  0.21700253997E+03  0.00000000000E+00 0.  1.
</event>
<event>
 7    1  0.8884593E-006  0.1025122E+03  0.7818608E-02  0.1404738E+00
          2   -1    0    0  502    0  0.00000000000E+00  0.00000000000E+00  0.16939318864E+04  0.16939318864E+04  0.00000000000E+00 0. -1.
          1   -1    0    0  501    0 -0.00000000000E+00 -0.00000000000E+00 -0.13198272720E+04  0.13198272720E+04  0.00000000000E+00 0. -1.
         25    2    1    2    0    0  0.52528247259E+02  0.12105736192E+03 -0.38672050111E+03  0.42730757420E+03  0.12499966144E+03 0.  0.
          2    1    1    2  501    0 -0.24397408731E+02 -0.22593839733E+02 -0.91094318892E+03  0.91154989363E+03  0.00000000000E+00 0. -1.
          1    1    1    2  502    0 -0.28130838528E+02 -0.98463522184E+02  0.16717683044E+04  0.16749016905E+04  0.00000000000E+00 0. -1.
         22    1    3    3    0    0 -0.12696833338E+02  0.11515833992E+03 -0.26074359398E+03  0.28532415712E+03  0.00000000000E+00 0. -1.
         22    1    3    3    0    0  0.65225080597E+02  0.58990219946E+01 -0.12597690712E+03  0.14198341709E+03  0.00000000000E+00 0. -1.
</event>
<event>
 7    1  0.6262315E-006  0.8892080E+02  0.7818608E-02  0.1420567E+00
          2   -1    0    0  502    0  0.00000000000E+00  0.00000000000E+00  0.15467745173E+04  0.15467745173E+04  0.00000000000E+00 0. -1.
          1   -1    0    0  501    0 -0.00000000000E+00 -0.00000000000E+00 -0.20146498631E+03  0.20146498631E+03  0.00000000000E+00 0. -1.
         25    2    1    2    0    0  0.68164669387E+02  0.33828949668E+02  0.48803763828E+03  0.50950487452E+03  0.12499464304E+03 0.  0.
          2    1    1    2  501    0 -0.52532499682E+01  0.33487350335E+02 -0.18718107212E+03  0.19022553201E+03  0.00000000000E+00 0. -1.
          1    1    1    2  502    0 -0.62911419419E+02 -0.67316300004E+02  0.10444529648E+04  0.10485090971E+04  0.00000000000E+00 0. -1.
         22    1    3    3    0    0  0.48909941373E+02  0.27432574224E+02  0.48587515516E+03  0.48910059793E+03  0.00000000000E+00 0.  1.
         22    1    3    3    0    0  0.19254728014E+02  0.63963754439E+01  0.21624831205E+01  0.20404276585E+02  0.00000000000E+00 0.  1.
</event>
<event>
 7    1  0.6262315E-006  0.2890597E+02  0.7818608E-02  0.1641362E+00
          2   -1    0    0  502    0  0.00000000000E+00  0.00000000000E+00  0.11252406293E+04  0.11252406293E+04  0.00000000000E+00 0. -1.
          1   -1    0    0  501    0 -0.00000000000E+00 -0.00000000000E+00 -0.30242953624E+02  0.30242953624E+02  0.00000000000E+00 0. -1.
         25    2    1    2    0    0 -0.24183986735E+02  0.16240974118E+02  0.27652240412E+03  0.30485636568E+03  0.12499651699E+03 0.  0.
          2    1    1    2  501    0  0.37389070123E+01 -0.29102018679E+02 -0.23606251123E+01  0.29436023301E+02  0.00000000000E+00 0. -1.
          1    1    1    2  502    0  0.20445079723E+02  0.12861044561E+02  0.82083589667E+03  0.82119119395E+03  0.00000000000E+00 0. -1.
         22    1    3    3    0    0 -0.62166136849E+02 -0.13624634906E+02  0.78667536666E+02  0.10118715616E+03  0.00000000000E+00 0.  1.
         22    1    3    3    0    0  0.37982150114E+02  0.29865609024E+02  0.19785486745E+03  0.20366920951E+03  0.00000000000E+00 0.  1.
</event>
<event>
 7    1  0.6262315E-006  0.1392711E+03  0.7818608E-02  0.1352346E+00
          2   -1    0    0  502    0  0.00000000000E+00  0.00000000000E+00  0.78633196333E+03  0.78633196333E+03  0.00000000000E+00 0. -1.
          1   -1    0    0  501    0 -0.00000000000E+00 -0.00000000000E+00 -0.78138129365E+02  0.78138129365E+02  0.00000000000E+00 0. -1.
         25    2    1    2    0    0 -0.80121358003E+02  0.70855471880E+02  0.50790845360E+03  0.53388919882E+03  0.12500699769E+03 0.  0.
          2    1    1    2  501    0  0.10571378671E+03 -0.98352117401E+02  0.19224437286E+02  0.14566441805E+03  0.00000000000E+00 0. -1.
          1    1    1    2  502    0 -0.25592428709E+02  0.27496645521E+02  0.18106094308E+03  0.18491647582E+03  0.00000000000E+00 0. -1.
         22    1    3    3    0    0  0.24539697544E+02  0.52733801709E+02  0.19026416152E+03  0.19895602971E+03  0.00000000000E+00 0. -1.
         22    1    3    3    0    0 -0.10466105555E+03  0.18121670171E+02  0.31764429208E+03  0.33493316911E+03  0.00000000000E+00 0. -1.
</event>
<event>
 7    1  0.6262315E-006  0.6849153E+02  0.7818608E-02  0.1405454E+00
          2   -1    0    0  502    0  0.00000000000E+00  0.00000000000E+00  0.17078565021E+04  0.17078565021E+04  0.00000000000E+00 0. -1.
          1   -1    0    0  501    0 -0.00000000000E+00 -0.00000000000E+00 -0.35405311299E+03  0.35405311299E+03  0.00000000000E+00 0. -1.
         25    2    1    2    0    0 -0.19083513443E+01 -0.61345840190E+02  0.25296660664E+03  0.28876800226E+03  0.12501160403E+03 0.  0.
          2    1    1    2  501    0 -0.46439350502E+02  0.50773760670E+02 -0.33219961403E+03  0.33925089773E+03  0.00000000000E+00 0. -1.
          1    1    1    2  502    0  0.48347701846E+02  0.10572079521E+02  0.14330363965E+04  0.14338907151E+04  0.00000000000E+00 0. -1.
         22    1    3    3    0    0  0.54226190927E+01 -0.30926617478E+01 -0.14049055170E+02  0.15373526131E+02  0.00000000000E+00 0.  1.
         22    1    3    3    0    0 -0.73309704370E+01 -0.58253178442E+02  0.26701566181E+03  0.27339447613E+03  0.00000000000E+00 0.  1.
</event>
<event>
 7    1  0.6262315E-006  0.7416134E+02  0.7818608E-02  0.1424638E+00
          2   -1    0    0  502    0  0.00000000000E+00  0.00000000000E+00  0.16334295946E+04  0.16334295946E+04  0.00000000000E+00 0. -1.
          1   -1    0    0  501    0 -0.00000000000E+00 -0.00000000000E+00 -0.39642973800E+02  0.39642973800E+02  0.00000000000E+00 0. -1.
         25    2    1    2    0    0 -0.68493539011E+00 -0.47127925609E+02  0.27170932277E+03  0.30277430159E+03  0.12499924445E+03 0.  0.
          2    1    1    2  501    0 -0.24537811955E+02  0.77389589577E+02  0.45409861899E+02  0.93023160278E+02  0.00000000000E+00 0. -1.
          1    1    1    2  502    0  0.25222747345E+02 -0.30261663968E+02  0.12766674362E+04  0.12772751066E+04  0.00000000000E+00 0. -1.
         22    1    3    3    0    0  0.28442570942E+02 -0.54299231960E+02  0.50164081050E+02  0.79207458366E+02  0.00000000000E+00 0. -1.
         22    1    3    3    0    0 -0.29127506332E+02  0.71713063503E+01  0.22154524172E+03  0.22356684322E+03  0.00000000000E+00 0. -1.
</event>
<event>
 7    1  0.6262315E-006  0.2119759E+03  0.7818608E-02  0.1224529E+00
          2   -1    0    0  502    0  0.00000000000E+00  0.00000000000E+00  0.22781883885E+04  0.22781883885E+04  0.00000000000E+00 0. -1.
          1   -1    0    0  501    0 -0.00000000000E+00 -0.00000000000E+00 -0.16347405520E+04  0.16347405520E+04  0.00000000000E+00 0. -1.
         25    2    1    2    0    0 -0.82971419247E+02 -0.16915099519E+03  0.86676391325E+03  0.89576852115E+03  0.12500098632E+03 0.  0.
          2    1    1    2  501    0 -0.81988575284E+02  0.57306967024E+01 -0.16095330436E+04  0.16116301020E+04  0.00000000000E+00 0. -1.
          1    1    1    2  502    0  0.16495999453E+03  0.16342029848E+03  0.13862169668E+04  0.14055303173E+04  0.00000000000E+00 0. -1.
         22    1    3    3    0    0 -0.56895985332E+02 -0.66359106189E+02  0.63384767270E+03  0.63984650996E+03  0.00000000000E+00 0.  1.
         22    1    3    3    0    0 -0.26075433915E+02 -0.10279188900E+03  0.23291624055E+03  0.25592201118E+03  0.00000000000E+00 0.  1.
</event>
<event>
 7    1  0.6262315E-006  0.9577294E+02  0.7818608E-02  0.1443341E+00
          2   -1    0    0  502    0  0.00000000000E+00  0.00000000000E+00  0.18233236270E+04  0.18233236270E+04  0.00000000000E+00 0. -1.
          1   -1    0    0  501    0 -0.00000000000E+00 -0.00000000000E+00 -0.20329064423E+03  0.20329064423E+03  0.00000000000E+00 0. -1.
         25    2    1    2    0    0  0.50807502559E+02  0.91776262533E+02  0.74956675841E+03  0.76712408155E+03  0.12499898601E+03 0.  0.
          2    1    1    2  501    0 -0.24324267995E+02 -0.92536877644E+02 -0.18256897646E+03  0.20612174777E+03  0.00000000000E+00 0. -1.
          1    1    1    2  502    0 -0.26483234564E+02  0.76061511182E+00  0.10530352008E+04  0.10533684419E+04  0.00000000000E+00 0. -1.
         22    1    3    3    0    0  0.85696319925E+02  0.47318210693E+02  0.58475849839E+03  0.59289575285E+03  0.00000000000E+00 0.  1.
         22    1    3    3    0    0 -0.34888817366E+02  0.44458051840E+02  0.16480826002E+03  0.17422832870E+03  0.00000000000E+00 0.  1.
</event>
<event>
 7    1  0.6262315E-006  0.6491947E+02  0.7818608E-02  0.1450656E+00
          2   -1    0    0  502    0  0.00000000000E+00  0.00000000000E+00  0.17338889832E+02  0.17338889832E+02  0.00000000000E+00 0. -1.
          1   -1    0    0  501    0 -0.00000000000E+00 -0.00000000000E+00 -0.19424378810E+04  0.19424378810E+04  0.00000000000E+00 0. -1.
         25    2    1    2    0    0  0.71440322004E+02  0.66722860452E+02 -0.82462763590E+03  0.83975697798E+03  0.12500153782E+03 0.  0.
          2    1    1    2  501    0 -0.29520799109E+02 -0.22349198261E+02 -0.10111754539E+04  0.10118531330E+04  0.00000000000E+00 0. -1.
          1    1    1    2  502    0 -0.41919522896E+02 -0.44373662191E+02 -0.89295901331E+02  0.10816665979E+03  0.00000000000E+00 0. -1.
         22    1    3    3    0    0  0.93783866994E+02  0.32983123212E+02 -0.73139735690E+03  0.73812288530E+03  0.00000000000E+00 0.  1.
         22    1    3    3    0    0 -0.22343544989E+02  0.33739737240E+02 -0.93230279002E+02  0.10163409268E+03  0.00000000000E+00 0.  1.
</event>
<event>
 7    1  0.6262315E-006  0.9566978E+02  0.7818608E-02  0.1373933E+00
          2   -1    0    0  502    0  0.00000000000E+00  0.00000000000E+00  0.20981211721E+03  0.20981211721E+03  0.00000000000E+00 0. -1.
          1   -1    0    0  501    0 -0.00000000000E+00 -0.00000000000E+00 -0.29192702619E+04  0.29192702619E+04  0.00000000000E+00 0. -1.
         25    2    1    2    0    0  0.11612948679E+03  0.22797354336E+02 -0.58561781154E+03  0.61039246805E+03  0.12499986716E+03 0.  0.
          2    1    1    2  501    0 -0.79846864772E+02 -0.50501165108E+02 -0.23176508873E+04  0.23195757209E+04  0.00000000000E+00 0. -1.
          1    1    1    2  502    0 -0.36282622022E+02  0.27703810772E+02  0.19381055420E+03  0.19911419013E+03  0.00000000000E+00 0. -1.
         22    1    3    3    0    0  0.51795462893E+02  0.73706358982E+02 -0.30318512266E+03  0.31628565559E+03  0.00000000000E+00 0. -1.
         22    1    3    3    0    0  0.64334023901E+02 -0.50909004646E+02 -0.28243268888E+03  0.29410681246E+03  0.00000000000E+00 0. -1.
</event>
<event>
 7    1  0.6262315E-006  0.7552204E+02  0.7818608E-02  0.1432796E+00
          2   -1    0    0  502    0  0.00000000000E+00  0.00000000000E+00  0.35765592691E+03  0.35765592691E+03  0.00000000000E+00 0. -1.
          1   -1    0    0  501    0 -0.00000000000E+00 -0.00000000000E+00 -0.56506982324E+03  0.56506982324E+03  0.00000000000E+00 0. -1.
         25    2    1    2    0    0 -0.76600653295E+02 -0.14627400973E+02 -0.55546315134E+02  0.15743371207E+03  0.12497343569E+03 0.  0.
          2    1    1    2  501    0  0.39395976599E+01  0.36146857410E+02 -0.45315958576E+03  0.45461602029E+03  0.00000000000E+00 0. -1.
          1    1    1    2  502    0  0.72661055635E+02 -0.21519456438E+02  0.30129200457E+03  0.31067601779E+03  0.00000000000E+00 0. -1.
         22    1    3    3    0    0  0.46719243411E+01 -0.24680244989E+01  0.34861141501E+02  0.35259285426E+02  0.00000000000E+00 0.  1.
         22    1    3    3    0    0 -0.81272577636E+02 -0.12159376474E+02 -0.90407456635E+02  0.12217442665E+03  0.00000000000E+00 0.  1.
</event>
<event>
 7    1  0.6262315E-006  0.8233546E+02  0.7818608E-02  0.1324317E+00
          2   -1    0    0  502    0  0.00000000000E+00  0.00000000000E+00  0.15780057455E+04  0.15780057455E+04  0.00000000000E+00 0. -1.
          1   -1    0    0  501    0 -0.00000000000E+00 -0.00000000000E+00 -0.60191222461E+03  0.60191222461E+03  0.00000000000E+00 0. -1.
         25    2    1    2    0    0  0.78294393047E+01 -0.44172964093E+00  0.18438239601E+03  0.22289611284E+03  0.12499725564E+03 0.  0.
          2    1    1    2  501    0 -0.25215816011E+02  0.79608533070E+02 -0.57845949624E+03  0.58445593906E+03  0.00000000000E+00 0. -1.
          1    1    1    2  502    0  0.17386376706E+02 -0.79166803429E+02  0.13701706212E+04  0.13725659183E+04  0.00000000000E+00 0. -1.
         22    1    3    3    0    0 -0.52040703985E+02  0.22744921191E+02  0.58200387051E+02  0.81319440260E+02  0.00000000000E+00 0. -1.
         22    1    3    3    0    0  0.59870143290E+02 -0.23186650832E+02  0.12618200896E+03  0.14157667258E+03  0.00000000000E+00 0. -1.
</event>
<event>
 7    1  0.6262315E-006  0.3728260E+02  0.7818608E-02  0.1556789E+00
          2   -1    0    0  502    0  0.00000000000E+00  0.00000000000E+00  0.29661620449E+03  0.29661620449E+03  0.00000000000E+00 0. -1.
          1   -1    0    0  501    0 -0.00000000000E+00 -0.00000000000E+00 -0.92790416317E+03  0.92790416317E+03  0.00000000000E+00 0. -1.
         25    2    1    2    0    0 -0.61411644999E+02 -0.30135086911E+02 -0.74179534600E+03  0.75535708037E+03  0.12499787966E+03 0.  0.
          2    1    1    2  501    0  0.27802663559E+02  0.14113000468E+02 -0.17676212420E+03  0.17949098427E+03  0.00000000000E+00 0. -1.
          1    1    1    2  502    0  0.33608981441E+02  0.16022086443E+02  0.28726951152E+03  0.28967230302E+03  0.00000000000E+00 0. -1.
         22    1    3    3    0    0  0.25854887481E+02 -0.66404861693E+01 -0.42100948841E+02  0.49850387727E+02  0.00000000000E+00 0. -1.
         22    1    3    3    0    0 -0.87266532480E+02 -0.23494600741E+02 -0.69969439715E+03  0.70550669264E+03  0.00000000000E+00 0. -1.
</event>
<event>
 7    1  0.6262315E-006  0.1426293E+03  0.7818608E-02  0.1418429E+00
          2   -1    0    0  502    0  0.00000000000E+00  0.00000000000E+00  0.17121153727E+02  0.17121153727E+02  0.00000000000E+00 0. -1.
          1   -1    0    0  501    0 -0.00000000000E+00 -0.00000000000E+00 -0.25821425606E+04  0.25821425606E+04  0.00000000000E+00 0. -1.
         25    2    1    2    0    0  0.59771200398E+02 -0.11817425633E+03 -0.88048623172E+03  0.89912115332E+03  0.12500037137E+03 0.  0.
          2    1    1    2  501    0  0.18078407204E+02 -0.11606167725E+02 -0.94683902953E+03  0.94708272066E+03  0.00000000000E+00 0. -1.
          1    1    1    2  502    0 -0.77849607602E+02  0.12978042405E+03 -0.73769614561E+03  0.75305984033E+03  0.00000000000E+00 0. -1.
         22    1    3    3    0    0  0.66670821930E+02 -0.12619011747E+03 -0.54218213354E+03  0.56065177264E+03  0.00000000000E+00 0.  1.
         22    1    3    3    0    0 -0.68996215323E+01  0.80158611405E+01 -0.33830409818E+03  0.33846938067E+03  0.00000000000E+00 0.  1.
</event>
<event>
 7    1  0.6262315E-006  0.5403663E+02  0.7818608E-02  0.1470591E+00
          2   -1    0    0  502    0  0.00000000000E+00  0.00000000000E+00  0.79382724693E+03  0.79382724693E+03  0.00000000000E+00 0. -1.
          1   -1    0    0  501    0 -0.00000000000E+00 -0.00000000000E+00 -0.13226381965E+03  0.13226381965E+03  0.00000000000E+00 0. -1.
         25    2    1    2    0    0 -0.44968795931E+02 -0.30805949792E+02  0.35324327239E+03  0.37865208112E+03  0.12500155960E+03 0.  0.
          2    1    1    2  501    0 -0.10341984771E+02  0.37076119752E+02 -0.11458954422E+03  0.12088159061E+03  0.00000000000E+00 0. -1.
          1    1    1    2  502    0  0.55310780703E+02 -0.62701699605E+01  0.42290969911E+03  0.42655739484E+03  0.00000000000E+00 0. -1.
         22    1    3    3    0    0  0.24353451120E+02 -0.46757910485E+02  0.23346544177E+03  0.23934390587E+03  0.00000000000E+00 0. -1.
         22    1    3    3    0    0 -0.69322247051E+02  0.15951960693E+02  0.11977783062E+03  0.13930817526E+03  0.00000000000E+00 0. -1.
</event>
<event>
 7    1  0.6262315E-006  0.5330944E+02  0.7818608E-02  0.1430865E+00
          2   -1    0    0  502    0  0.00000000000E+00  0.00000000000E+00  0.88761971863E+02  0.88761971863E+02  0.00000000000E+00 0. -1.
          1   -1    0    0  501    0 -0.00000000000E+00 -0.00000000000E+00 -0.13874606428E+04  0.13874606428E+04  0.00000000000E+00 0. -1.
         25    2    1    2    0    0  0.12827345872E+02 -0.33037064527E+02 -0.89421443254E+02  0.15772611151E+03  0.12500137321E+03 0.  0.
          2    1    1    2  501    0 -0.52827748340E+02 -0.71502097877E+01 -0.12484447904E+04  0.12495824467E+04  0.00000000000E+00 0. -1.
          1    1    1    2  502    0  0.40000402468E+02  0.40187274315E+02  0.39167562667E+02  0.68914056474E+02  0.00000000000E+00 0. -1.
         22    1    3    3    0    0 -0.43576637654E+02 -0.51345961169E+02 -0.64988988692E+02  0.93588993631E+02  0.00000000000E+00 0.  1.
         22    1    3    3    0    0  0.56403983526E+02  0.18308896642E+02 -0.24432454562E+02  0.64137117879E+02  0.00000000000E+00 0.  1.
</event>
<event>
 7    1  0.6262315E-006  0.5571007E+02  0.7818608E-02  0.1533832E+00
          2   -1    0    0  502    0  0.00000000000E+00  0.00000000000E+00  0.14815853739E+04  0.14815853739E+04  0.00000000000E+00 0. -1.
          1   -1    0    0  501    0 -0.00000000000E+00 -0.00000000000E+00 -0.17228054460E+04  0.17228054460E+04  0.00000000000E+00 0. -1.
         25    2    1    2    0    0  0.58221042793E+02 -0.35236133212E+02 -0.14751774545E+04  0.14820273651E+04  0.12500125466E+03 0.  0.
          2    1    1    2  501    0 -0.45627147547E+02  0.14566776945E+02 -0.24175435915E+03  0.24645323644E+03  0.00000000000E+00 0. -1.
          1    1    1    2  502    0 -0.12593895247E+02  0.20669356267E+02  0.14757117416E+04  0.14759102184E+04  0.00000000000E+00 0. -1.
         22    1    3    3    0    0 -0.54759190011E+01  0.22303618386E+02 -0.59939098030E+02  0.64188258698E+02  0.00000000000E+00 0. -1.
         22    1    3    3    0    0  0.63696961794E+02 -0.57539751598E+02 -0.14152383565E+04  0.14178391064E+04  0.00000000000E+00 0. -1.
</event>
<event>
 7    1  0.6262315E-006  0.1217034E+03  0.7818608E-02  0.1400492E+00
          2   -1    0    0  502    0  0.00000000000E+00  0.00000000000E+00  0.87340912143E+03  0.87340912143E+03  0.00000000000E+00 0. -1.
          1   -1    0    0  501    0 -0.00000000000E+00 -0.00000000000E+00 -0.49326270854E+03  0.49326270854E+03  0.00000000000E+00 0. -1.
         25    2    1    2    0    0 -0.99130234308E+02  0.40162958032E+02  0.61198795955E+02  0.17553110366E+03  0.12500403664E+03 0.  0.
          2    1    1    2  501    0  0.10175498867E+03 -0.69006588854E+02 -0.42714448970E+03  0.44448667258E+03  0.00000000000E+00 0. -1.
          1    1    1    2  502    0 -0.26247543650E+01  0.28843630821E+02  0.74609210663E+03  0.74665405373E+03  0.00000000000E+00 0. -1.
         22    1    3    3    0    0 -0.41378936886E+01  0.52053938884E+02 -0.13693310094E+02  0.53983714756E+02  0.00000000000E+00 0.  1.
         22    1    3    3    0    0 -0.94992340619E+02 -0.11890980852E+02  0.74892106049E+02  0.12154738891E+03  0.00000000000E+00 0.  1.
</event>
<event>
 7    1  0.6262315E-006  0.8066030E+02  0.7818608E-02  0.1362234E+00
          2   -1    0    0  502    0  0.00000000000E+00  0.00000000000E+00  0.17238384078E+03  0.17238384078E+03  0.00000000000E+00 0. -1.
          1   -1    0    0  501    0 -0.00000000000E+00 -0.00000000000E+00 -0.35701318082E+03  0.35701318082E+03  0.00000000000E+00 0. -1.
         25    2    1    2    0    0 -0.22744517272E+02  0.21139820645E+02  0.26744020384E+02  0.13154354489E+03  0.12499702594E+03 0.  0.
          2    1    1    2  501    0  0.82400475989E+02 -0.19965630329E+02 -0.28829449757E+03  0.30050321491E+03  0.00000000000E+00 0. -1.
          1    1    1    2  502    0 -0.59655958717E+02 -0.11741903152E+01  0.76921137146E+02  0.97350261803E+02  0.00000000000E+00 0. -1.
         22    1    3    3    0    0 -0.49168040934E+02  0.42339509567E+01 -0.36208454353E+02  0.61208453310E+02  0.00000000000E+00 0.  1.
         22    1    3    3    0    0  0.26423523662E+02  0.16905869688E+02  0.62952474737E+02  0.70335091584E+02  0.00000000000E+00 0.  1.
</event>
<event>
 7    1  0.6262315E-006  0.1175986E+03  0.7818608E-02  0.1260902E+00
          2   -1    0    0  502    0  0.00000000000E+00  0.00000000000E+00  0.85189583216E+03  0.85189583216E+03  0.00000000000E+00 0. -1.
          1   -1    0    0  501    0 -0.00000000000E+00 -0.00000000000E+00 -0.42002379081E+03  0.42002379081E+03  0.00000000000E+00 0. -1.
         25    2    1    2    0    0 -0.47696399436E+01 -0.59869998017E+02 -0.75761483810E+02  0.15802186014E+03  0.12499575883E+03 0.  0.
          2    1    1    2  501    0 -0.72463484877E+02  0.12734610437E+03 -0.28191468184E+03  0.31771665801E+03  0.00000000000E+00 0. -1.
          1    1    1    2  502    0  0.77233124821E+02 -0.67476106354E+02  0.78954820700E+03  0.79618110482E+03  0.00000000000E+00 0. -1.
         22    1    3    3    0    0 -0.25211155483E+02 -0.43548139244E+02 -0.10642215936E+03  0.11771881241E+03  0.00000000000E+00 0. -1.
         22    1    3    3    0    0  0.20441515540E+02 -0.16321858773E+02  0.30660675547E+02  0.40303047730E+02  0.00000000000E+00 0. -1.
</event>
<event>
 7    1  0.6262315E-006  0.4993393E+02  0.7818608E-02  0.1521187E+00
          2   -1    0    0  502    0  0.00000000000E+00  0.00000000000E+00  0.31331453736E+03  0.31331453736E+03  0.00000000000E+00 0. -1.
          1   -1    0    0  501    0 -0.00000000000E+00 -0.00000000000E+00 -0.10895805137E+04  0.10895805137E+04  0.00000000000E+00 0. -1.
         25    2    1    2    0    0 -0.35166933835E+01  0.54303737122E+02 -0.10193008796E+03  0.17022479275E+03  0.12500189694E+03 0.  0.
          2    1    1    2  501    0 -0.23940600292E+02 -0.43903390498E+02 -0.95207306945E+03  0.95338543601E+03  0.00000000000E+00 0. -1.
          1    1    1    2  502    0  0.27457293675E+02 -0.10400346624E+02  0.27773718109E+03  0.27928482226E+03  0.00000000000E+00 0. -1.
         22    1    3    3    0    0 -0.18906104498E+02  0.22276152300E+02 -0.12466359429E+03  0.12804170996E+03  0.00000000000E+00 0.  1.
         22    1    3    3    0    0  0.15389411115E+02  0.32027584822E+02  0.22733506330E+02  0.42183082794E+02  0.00000000000E+00 0.  1.
</event>
<event>
 7    1  0.6262315E-006  0.1492370E+03  0.7818608E-02  0.1216820E+00
          2   -1    0    0  502    0  0.00000000000E+00  0.00000000000E+00  0.13705568897E+04  0.13705568897E+04  0.00000000000E+00 0. -1.
          1   -1    0    0  501    0 -0.00000000000E+00 -0.00000000000E+00 -0.11801799370E+04  0.11801799370E+04  0.00000000000E+00 0. -1.
         25    2    1    2    0    0  0.12305705465E+03  0.13903441547E+02  0.61637701587E+03  0.64100133131E+03  0.12500294662E+03 0.  0.
          2    1    1    2  501    0  0.38897883964E+02 -0.12044420505E+03 -0.11516771529E+04  0.11586112879E+04  0.00000000000E+00 0. -1.
          1    1    1    2  502    0 -0.16195493862E+03  0.10654076350E+03  0.72567708980E+03  0.75112420750E+03  0.00000000000E+00 0. -1.
         22    1    3    3    0    0  0.70668566131E+01 -0.45134087729E+02  0.14971788100E+03  0.15653264909E+03  0.00000000000E+00 0.  1.
         22    1    3    3    0    0  0.11599019804E+03  0.59037529276E+02  0.46665913487E+03  0.48446868223E+03  0.00000000000E+00 0.  1.
</event>
<event>
 7    1  0.6262315E-006  0.1102061E+03  0.7818608E-02  0.1423825E+00
          2   -1    0    0  502    0  0.00000000000E+00  0.00000000000E+00  0.66942622847E+03  0.66942622847E+03  0.00000000000E+00 0. -1.
          1   -1    0    0  501    0 -0.00000000000E+00 -0.00000000000E+00 -0.34811175689E+03  0.34811175689E+03  0.00000000000E+00 0. -1.
         25    2    1    2    0    0 -0.10510912800E+03 -0.65656687848E+02  0.39866500444E+03  0.43579587160E+03  0.12500210593E+03 0.  0.
          2    1    1    2  501    0  0.10893375946E+02  0.24349761681E+02 -0.31847474326E+03  0.31958995389E+03  0.00000000000E+00 0. -1.
          1    1    1    2  502    0  0.94215752057E+02  0.41306926167E+02  0.24112421040E+03  0.26215215987E+03  0.00000000000E+00 0. -1.
         22    1    3    3    0    0 -0.30713325248E+02 -0.63202311217E-01  0.66455248894E+01  0.31424120407E+02  0.00000000000E+00 0.  1.
         22    1    3    3    0    0 -0.74395802755E+02 -0.65593485537E+02  0.39201947955E+03  0.40437175119E+03  0.00000000000E+00 0.  1.
</event>
<event>
 7    1  0.6262315E-006  0.2498893E+03  0.7818608E-02  0.1211450E+00
          2   -1    0    0  502    0  0.00000000000E+00  0.00000000000E+00  0.77490262592E+03  0.77490262592E+03  0.00000000000E+00 0. -1.
          1   -1    0    0  501    0 -0.00000000000E+00 -0.00000000000E+00 -0.64381887817E+03  0.64381887817E+03  0.00000000000E+00 0. -1.
         25    2    1    2    0    0 -0.16216103110E+03 -0.99504689803E+02  0.14831715537E+03  0.27169540737E+03  0.12499212980E+03 0.  0.
          2    1    1    2  501    0  0.24177520043E+03  0.91476318825E+02 -0.55029794163E+03  0.60798930008E+03  0.00000000000E+00 0. -1.
          1    1    1    2  502    0 -0.79614169335E+02  0.80283709780E+01  0.53306453401E+03  0.53903679663E+03  0.00000000000E+00 0. -1.
         22    1    3    3    0    0  0.14244016165E+02 -0.26697382613E+02  0.46268183777E+02  0.55284600613E+02  0.00000000000E+00 0.  1.
         22    1    3    3    0    0 -0.17640504726E+03 -0.72807307190E+02  0.10204897160E+03  0.21641080676E+03  0.00000000000E+00 0.  1.
</event>
<event>
 7    1  0.6262315E-006  0.7717696E+02  0.7818608E-02  0.1423856E+00
          2   -1    0    0  502    0  0.00000000000E+00  0.00000000000E+00  0.15893761809E+04  0.15893761809E+04  0.00000000000E+00 0. -1.
          1   -1    0    0  501    0 -0.00000000000E+00 -0.00000000000E+00 -0.19061671344E+03  0.19061671344E+03  0.00000000000E+00 0. -1.
         25    2    1    2    0    0 -0.20774283569E+02  0.50632746254E+02  0.50966567187E+03  0.52761500722E+03  0.12499301145E+03 0.  0.
          2    1    1    2  501    0 -0.63422098060E+01 -0.77371675574E+02 -0.17299055762E+03  0.18961100398E+03  0.00000000000E+00 0. -1.
          1    1    1    2  502    0  0.27116493375E+02  0.26738929321E+02  0.10620843532E+04  0.10627668831E+04  0.00000000000E+00 0. -1.
         22    1    3    3    0    0 -0.22535985895E+00  0.66658613460E+02  0.12157396778E+03  0.13864938217E+03  0.00000000000E+00 0. -1.
         22    1    3    3    0    0 -0.20548923711E+02 -0.16025867206E+02  0.38809170409E+03  0.38896562505E+03  0.00000000000E+00 0. -1.
</event>
<event>
 7    1  0.6262315E-006  0.1092553E+03  0.7818608E-02  0.1310312E+00
          2   -1    0    0  502    0  0.00000000000E+00  0.00000000000E+00  0.16505331384E+03  0.16505331384E+03  0.00000000000E+00 0. -1.
          1   -1    0    0  501    0 -0.00000000000E+00 -0.00000000000E+00 -0.19489320158E+04  0.19489320158E+04  0.00000000000E+00 0. -1.
         25    2    1    2    0    0 -0.42751326987E+02 -0.59899662455E+02 -0.59276701111E+02  0.15670185012E+03  0.12500438798E+03 0.  0.
          2    1    1    2  501    0  0.30859331557E+02 -0.62005434509E+02 -0.18078570461E+04  0.18091832608E+04  0.00000000000E+00 0. -1.
          1    1    1    2  502    0  0.11891995429E+02  0.12190509696E+03  0.83255045222E+02  0.14810021869E+03  0.00000000000E+00 0. -1.
         22    1    3    3    0    0  0.23824964793E+01  0.37560288490E+02 -0.14288614349E+02  0.40256875946E+02  0.00000000000E+00 0. -1.
         22    1    3    3    0    0 -0.45133823466E+02 -0.97459950945E+02 -0.44988086762E+02  0.11644497417E+03  0.00000000000E+00 0. -1.
</event>
<event>
 7    1  0.6262315E-006  0.5621764E+02  0.7818608E-02  0.1485428E+00
          2   -1    0    0  502    0  0.00000000000E+00  0.00000000000E+00  0.19190742899E+04  0.19190742899E+04  0.00000000000E+00 0. -1.
          1   -1    0    0  501    0 -0.00000000000E+00 -0.00000000000E+00 -0.11810830832E+03  0.11810830832E+03  0.00000000000E+00 0. -1.
         25    2    1    2    0    0  0.32363785757E+02 -0.30763098716E+01  0.36569699836E+03  0.38783242734E+03  0.12499127479E+03 0.  0.
          2    1    1    2  501    0  0.14902700873E+02 -0.29787244861E+02 -0.10389838686E+03  0.10910657745E+03  0.00000000000E+00 0. -1.
          1    1    1    2  502    0 -0.47266486630E+02  0.32863554733E+02  0.15391673701E+04  0.15402435935E+04  0.00000000000E+00 0. -1.
         22    1    3    3    0    0  0.74498293643E+02 -0.28699718897E+02  0.22549368590E+03  0.23920926404E+03  0.00000000000E+00 0.  1.
         22    1    3    3    0    0 -0.42134507886E+02  0.25623409026E+02  0.14020331245E+03  0.14862316330E+03  0.00000000000E+00 0.  1.
</event>
<event>
 7    1  0.6262315E-006  0.5148751E+02  0.7818608E-02  0.1565574E+00
          2   -1    0    0  502    0  0.00000000000E+00  0.00000000000E+00  0.45270013464E+04  0.45270013464E+04  0.00000000000E+00 0. -1.
          1   -1    0    0  501    0 -0.00000000000E+00 -0.00000000000E+00 -0.89743208872E+03  0.89743208872E+03  0.00000000000E+00 0. -1.
         25    2    1    2    0    0 -0.58093852213E+02 -0.26141958142E+02  0.12458352998E+04  0.12537120861E+04  0.12502041048E+03 0.  0.
          2    1    1    2  501    0  0.19922442117E+02 -0.76938652027E+01 -0.89316755786E+03  0.89342284820E+03  0.00000000000E+00 0. -1.
          1    1    1    2  502    0  0.38171410096E+02  0.33835823345E+02  0.32769015158E+04  0.32772985008E+04  0.00000000000E+00 0. -1.
         22    1    3    3    0    0 -0.61279200117E+02 -0.29502560098E+02  0.29010448998E+03  0.29797005978E+03  0.00000000000E+00 0.  1.
         22    1    3    3    0    0  0.31853479038E+01  0.33606019560E+01  0.95573080983E+03  0.95574202636E+03  0.00000000000E+00 0.  1.
</event>
<event>
 7    1  0.6262315E-006  0.9748593E+02  0.7818608E-02  0.1325064E+00
          2   -1    0    0  502    0  0.00000000000E+00  0.00000000000E+00  0.91145438466E+03  0.91145438466E+03  0.00000000000E+00 0. -1.
          1   -1    0    0  501    0 -0.00000000000E+00 -0.00000000000E+00 -0.15257866934E+03  0.15257866934E+03  0.00000000000E+00 0. -1.
         25    2    1    2    0    0  0.11988432310E+03  0.67363069801E+02  0.38680658269E+03  0.42912833615E+03  0.12498704882E+03 0.  0.
          2    1    1    2  501    0 -0.96287214670E+02 -0.35831079320E+01 -0.11104907167E+03  0.14702368072E+03  0.00000000000E+00 0. -1.
          1    1    1    2  502    0 -0.23597108430E+02 -0.63779961869E+02  0.48311820431E+03  0.48788103714E+03  0.00000000000E+00 0. -1.
         22    1    3    3    0    0  0.14024362251E+03  0.77514201228E+02  0.30918190518E+03  0.34823867611E+03  0.00000000000E+00 0. -1.
         22    1    3    3    0    0 -0.20359299415E+02 -0.10151131427E+02  0.77624677517E+02  0.80889660041E+02  0.00000000000E+00 0. -1.
</event>
<event>
 7    1  0.6262315E-006  0.7847578E+02  0.7818608E-02  0.1337799E+00
          2   -1    0    0  502    0  0.00000000000E+00  0.00000000000E+00  0.98472814091E+03  0.98472814091E+03  0.00000000000E+00 0. -1.
          1   -1    0    0  501    0 -0.00000000000E+00 -0.00000000000E+00 -0.40641601566E+03  0.40641601566E+03  0.00000000000E+00 0. -1.
         25    2    1    2    0    0 -0.91475337486E+02  0.24636536577E+02  0.25252958897E+02  0.15885508925E+03  0.12499012419E+03 0.  0.
          2    1    1    2  501    0  0.27213748189E+02 -0.70472458313E+02 -0.33363891586E+03  0.34208461183E+03  0.00000000000E+00 0. -1.
          1    1    1    2  502    0  0.64261589296E+02  0.45835921736E+02  0.88669808221E+03  0.89020445549E+03  0.00000000000E+00 0. -1.
         22    1    3    3    0    0 -0.66643709075E+02  0.35104543899E+02 -0.42114346030E+02  0.86297920619E+02  0.00000000000E+00 0. -1.
         22    1    3    3    0    0 -0.24831628411E+02 -0.10468007322E+02  0.67367304926E+02  0.72557168632E+02  0.00000000000E+00 0. -1.
</event>
<event>
 7    1  0.6262315E-006  0.9552568E+02  0.7818608E-02  0.1351307E+00
          2   -1    0    0  502    0  0.00000000000E+00  0.00000000000E+00  0.68316678226E+03  0.68316678226E+03  0.00000000000E+00 0. -1.
          1   -1    0    0  501    0 -0.00000000000E+00 -0.00000000000E+00 -0.94046635480E+03  0.94046635480E+03  0.00000000000E+00 0. -1.
         25    2    1    2    0    0  0.30757111008E+02 -0.50894177846E+02  0.35563697155E+03  0.38162649234E+03  0.12499962762E+03 0.  0.
          2    1    1    2  501    0  0.14081435651E+01  0.95818669057E+02 -0.92254396990E+03  0.92750772321E+03  0.00000000000E+00 0. -1.
          1    1    1    2  502    0 -0.32165254573E+02 -0.44924491210E+02  0.30960742582E+03  0.31449892151E+03  0.00000000000E+00 0. -1.
         22    1    3    3    0    0  0.37463703155E+01 -0.11043451424E+02 -0.84305012059E+01  0.14389804046E+02  0.00000000000E+00 0.  1.
         22    1    3    3    0    0  0.27010740693E+02 -0.39850726422E+02  0.36406747275E+03  0.36723668829E+03  0.00000000000E+00 0.  1.
</event>
<event>
 7    1  0.6262315E-006  0.6575343E+02  0.7818608E-02  0.1434813E+00
          2   -1    0    0  502    0  0.00000000000E+00  0.00000000000E+00  0.83248562151E+03  0.83248562151E+03  0.00000000000E+00 0. -1.
          1   -1    0    0  501    0 -0.00000000000E+00 -0.00000000000E+00 -0.13423742886E+03  0.13423742886E+03  0.00000000000E+00 0. -1.
         25    2    1    2    0    0  0.83237256190E+02 -0.57185115084E+02  0.33936216529E+03  0.37548640918E+03  0.12499914416E+03 0.  0.
          2    1    1    2  501    0 -0.43000849361E+02  0.48645219878E+02 -0.10612476335E+03  0.12441019194E+03  0.00000000000E+00 0. -1.
          1    1    1    2  502    0 -0.40236406829E+02  0.85398952062E+01  0.46501079071E+03  0.46682644925E+03  0.00000000000E+00 0. -1.
         22    1    3    3    0    0 -0.28947990829E+01  0.31242454034E+02  0.34787732862E+02  0.46847168041E+02  0.00000000000E+00 0.  1.
         22    1    3    3    0    0  0.86132055272E+02 -0.88427569118E+02  0.30457443243E+03  0.32863924114E+03  0.00000000000E+00 0.  1.
</event>
<event>
 7    1  0.6262315E-006  0.8229827E+02  0.7818608E-02  0.1386165E+00
          2   -1    0    0  502    0  0.00000000000E+00  0.00000000000E+00  0.28074123746E+02  0.28074123746E+02  0.00000000000E+00 0. -1.
          1   -1    0    0  501    0 -0.00000000000E+00 -0.00000000000E+00 -0.11806958693E+04  0.11806958693E+04  0.00000000000E+00 0. -1.
         25    2    1    2    0    0  0.60674207105E+02 -0.29524692478E+02 -0.22634061817E+03  0.26722121106E+03  0.12499613329E+03 0.  0.
          2    1    1    2  501    0  0.47441686799E+02 -0.74893769205E+01 -0.40808823797E+03  0.41090487267E+03  0.00000000000E+00 0. -1.
          1    1    1    2  502    0 -0.10811589390E+03  0.37014069399E+02 -0.51819288938E+03  0.53064390928E+03  0.00000000000E+00 0. -1.
         22    1    3    3    0    0  0.12680116761E+02  0.29067298698E+02 -0.35527943475E+01  0.31911057054E+02  0.00000000000E+00 0. -1.
         22    1    3    3    0    0  0.47994090344E+02 -0.58591991176E+02 -0.22278782382E+03  0.23531015401E+03  0.00000000000E+00 0. -1.
</event>
<event>
 7    1  0.6262315E-006  0.3115480E+02  0.7818608E-02  0.1588169E+00
          2   -1    0    0  502    0  0.00000000000E+00  0.00000000000E+00  0.10077821963E+03  0.10077821963E+03  0.00000000000E+00 0. -1.
          1   -1    0    0  501    0 -0.00000000000E+00 -0.00000000000E+00 -0.12762583299E+04  0.12762583299E+04  0.00000000000E+00 0. -1.
         25    2    1    2    0    0 -0.21493028272E+02  0.10304869795E+01 -0.20126553838E+03  0.23789837847E+03  0.12499923748E+03 0.  0.
          2    1    1    2  501    0  0.82141388294E+01 -0.29560875385E+02 -0.10534425387E+04  0.10538892256E+04  0.00000000000E+00 0. -1.
          1    1    1    2  502    0  0.13278889443E+02  0.28530388405E+02  0.79227966856E+02  0.85248945445E+02  0.00000000000E+00 0. -1.
         22    1    3    3    0    0  0.18298676722E+02  0.36926940819E+02 -0.14646979372E+02  0.43737564321E+02  0.00000000000E+00 0.  1.
         22    1    3    3    0    0 -0.39791704994E+02 -0.35896453839E+02 -0.18661855901E+03  0.19416081415E+03  0.00000000000E+00 0.  1.
</event>
<event>
 7    1  0.6262315E-006  0.9785255E+02  0.7818608E-02  0.1468577E+00
          2   -1    0    0  502    0  0.00000000000E+00  0.00000000000E+00  0.33675034643E+03  0.33675034643E+03  0.00000000000E+00 0. -1.
          1   -1    0    0  501    0 -0.00000000000E+00 -0.00000000000E+00 -0.14140356661E+04  0.14140356661E+04  0.00000000000E+00 0. -1.
         25    2    1    2    0    0 -0.64051074911E+02 -0.85950812693E+02 -0.13044543699E+04  0.13148064454E+04  0.12499881309E+03 0.  0.
          2    1    1    2  501    0  0.21462336793E+02 -0.21019619190E+01 -0.95969210968E+02  0.98362287480E+02  0.00000000000E+00 0. -1.
          1    1    1    2  502    0  0.42588738118E+02  0.88052774612E+02  0.32313826115E+03  0.33761727970E+03  0.00000000000E+00 0. -1.
         22    1    3    3    0    0 -0.45261065979E+02 -0.27607564319E+01 -0.13843773104E+03  0.14567495064E+03  0.00000000000E+00 0. -1.
         22    1    3    3    0    0 -0.18790008932E+02 -0.83190056261E+02 -0.11660166388E+04  0.11691314947E+04  0.00000000000E+00 0. -1.
</event>
<event>
 7    1  0.6262315E-006  0.1366587E+03  0.7818608E-02  0.1422732E+00
          2   -1    0    0  502    0  0.00000000000E+00  0.00000000000E+00  0.37634840238E+04  0.37634840238E+04  0.00000000000E+00 0. -1.
          1   -1    0    0  501    0 -0.00000000000E+00 -0.00000000000E+00 -0.61251889102E+03  0.61251889102E+03  0.00000000000E+00 0. -1.
         25    2    1    2    0    0  0.73324549935E+02 -0.92903199325E+02 -0.15188769391E+03  0.22956136064E+03  0.12498420968E+03 0.  0.
          2    1    1    2  501    0  0.14284029299E+01 -0.21645486237E+02 -0.42025874471E+03  0.42081822669E+03  0.00000000000E+00 0. -1.
          1    1    1    2  502    0 -0.74752952865E+02  0.11454868556E+03  0.37231115714E+04  0.37256233275E+04  0.00000000000E+00 0. -1.
         22    1    3    3    0    0 -0.53483959616E+00  0.20039819063E+02  0.68759246381E+01  0.21193365497E+02  0.00000000000E+00 0.  1.
         22    1    3    3    0    0  0.73859389532E+02 -0.11294301839E+03 -0.15876361855E+03  0.20836799514E+03  0.00000000000E+00 0.  1.
</event>
<event>
 7    1  0.6262315E-006  0.8153893E+03  0.7818608E-02  0.1110686E+00
          2   -1    0    0  502    0  0.00000000000E+00  0.00000000000E+00  0.57097378004E+03  0.57097378004E+03  0.00000000000E+00 0. -1.
          1   -1    0    0  501    0 -0.00000000000E+00 -0.00000000000E+00 -0.23114243622E+04  0.23114243622E+04  0.00000000000E+00 0. -1.
         25    2    1    2    0    0 -0.82225808839E+03 -0.18406611863E+03 -0.48928788956E+03  0.98235194972E+03  0.12499605711E+03 0.  0.
          2    1    1    2  501    0  0.79748038579E+03  0.10879895373E+03 -0.14652545093E+04  0.16717604359E+04  0.00000000000E+00 0. -1.
          1    1    1    2  502    0  0.24777702603E+02  0.75267164897E+02  0.21409181674E+03  0.22828575657E+03  0.00000000000E+00 0. -1.
         22    1    3    3    0    0 -0.11780506442E+03  0.92642441500E+01 -0.98819358155E+02  0.15404260764E+03  0.00000000000E+00 0.  1.
         22    1    3    3    0    0 -0.70445302398E+03 -0.19333036278E+03 -0.39046853140E+03  0.82830934208E+03  0.00000000000E+00 0.  1.
</event>
<event>
 7    1  0.6262315E-006  0.6599735E+02  0.7818608E-02  0.1384717E+00
          2   -1    0    0  502    0  0.00000000000E+00  0.00000000000E+00  0.73935320829E+03  0.73935320829E+03  0.00000000000E+00 0. -1.
          1   -1    0    0  501    0 -0.00000000000E+00 -0.00000000000E+00 -0.13470250564E+04  0.13470250564E+04  0.00000000000E+00 0. -1.
         25    2    1    2    0    0 -0.10454978010E+03 -0.43384626707E+02 -0.38754700823E+02  0.17302964385E+03  0.12499779384E+03 0.  0.
          2    1    1    2  501    0  0.44160455168E+02  0.48406561171E+02 -0.12388996996E+04  0.12406312130E+04  0.00000000000E+00 0. -1.
          1    1    1    2  502    0  0.60389324927E+02 -0.50219344646E+01  0.66998255233E+03  0.67271740784E+03  0.00000000000E+00 0. -1.
         22    1    3    3    0    0 -0.64954820806E+02 -0.75747786686E+01  0.40905429763E+02  0.77134688707E+02  0.00000000000E+00 0.  1.
         22    1    3    3    0    0 -0.39594959289E+02 -0.35809848038E+02 -0.79660130587E+02  0.95894955147E+02  0.00000000000E+00 0.  1.
</event>
<event>
 7    1  0.6262315E-006  0.3632300E+02  0.7818608E-02  0.1540494E+00
          2   -1    0    0  502    0  0.00000000000E+00  0.00000000000E+00  0.29683502962E+03  0.29683502962E+03  0.00000000000E+00 0. -1.
          1   -1    0    0  501    0 -0.00000000000E+00 -0.00000000000E+00 -0.23554722516E+04  0.23554722516E+04  0.00000000000E+00 0. -1.
         25    2    1    2    0    0  0.44183279113E+02  0.45911924206E+02  0.71763505646E+02  0.15759230638E+03  0.12500106940E+03 0.  0.
          2    1    1    2  501    0 -0.10435272324E+02 -0.34765310870E+02 -0.23106803217E+04  0.23109653980E+04  0.00000000000E+00 0. -1.
          1    1    1    2  502    0 -0.33748006789E+02 -0.11146613336E+02  0.18027959406E+03  0.18374957683E+03  0.00000000000E+00 0. -1.
         22    1    3    3    0    0 -0.41820887539E+02 -0.86003503376E+00  0.15067899128E+02  0.44460857830E+02  0.00000000000E+00 0. -1.
         22    1    3    3    0    0  0.86004166652E+02  0.46771959239E+02  0.56695606518E+02  0.11313144855E+03  0.00000000000E+00 0. -1.
</event>
<event>
 7    1  0.6262315E-006  0.6968593E+02  0.7818608E-02  0.1406503E+00
          2   -1    0    0  502    0  0.00000000000E+00  0.00000000000E+00  0.18529180147E+03  0.18529180147E+03  0.00000000000E+00 0. -1.
          1   -1    0    0  501    0 -0.00000000000E+00 -0.00000000000E+00 -0.10842899537E+03  0.10842899537E+03  0.00000000000E+00 0. -1.
         25    2    1    2    0    0 -0.27989224480E+02  0.46200943884E+02  0.49297405578E+02  0.14482117347E+03  0.12500005675E+03 0.  0.
          2    1    1    2  501    0 -0.92940733308E+01 -0.76817224547E+02 -0.21275980636E+02  0.80249194003E+02  0.00000000000E+00 0. -1.
          1    1    1    2  502    0  0.37283297810E+02  0.30616280662E+02  0.48841381163E+02  0.68650429358E+02  0.00000000000E+00 0. -1.
         22    1    3    3    0    0  0.10671880028E+02 -0.40106501559E+02  0.12500923212E+02  0.43343898899E+02  0.00000000000E+00 0.  1.
         22    1    3    3    0    0 -0.38661104508E+02  0.86307445443E+02  0.36796482366E+02  0.10147727458E+03  0.00000000000E+00 0.  1.
</event>
<event>
 7    1  0.6262315E-006  0.1133063E+03  0.7818608E-02  0.1316688E+00
          2   -1    0    0  502    0  0.00000000000E+00  0.00000000000E+00  0.92712961517E+03  0.92712961517E+03  0.00000000000E+00 0. -1.
          1   -1    0    0  501    0 -0.00000000000E+00 -0.00000000000E+00 -0.74654281407E+03  0.74654281407E+03  0.00000000000E+00 0. -1.
         25    2    1    2    0    0 -0.16658995924E+03  0.42345473358E+02  0.10622073646E+03  0.23759710631E+03  0.12499674571E+03 0.  0.
          2    1    1    2  501    0  0.58404426986E+02 -0.23752282418E+02 -0.67538974724E+03  0.67832629220E+03  0.00000000000E+00 0. -1.
          1    1    1    2  502    0  0.10818553225E+03 -0.18593190940E+02  0.74975581188E+03  0.75774903074E+03  0.00000000000E+00 0. -1.
         22    1    3    3    0    0 -0.53902102333E+01  0.42038845861E+02 -0.36116188942E+01  0.42536604457E+02  0.00000000000E+00 0. -1.
         22    1    3    3    0    0 -0.16119974900E+03  0.30662749675E+00  0.10983235536E+03  0.19506050185E+03  0.00000000000E+00 0. -1.
</event>
<event>
 7    1  0.6262315E-006  0.4626648E+02  0.7818608E-02  0.1484231E+00
          2   -1    0    0  502    0  0.00000000000E+00  0.00000000000E+00  0.73910127013E+03  0.73910127013E+03  0.00000000000E+00 0. -1.
          1   -1    0    0  501    0 -0.00000000000E+00 -0.00000000000E+00 -0.14251542466E+04  0.14251542466E+04  0.00000000000E+00 0. -1.
         25    2    1    2    0    0 -0.82338940776E+02 -0.78902539823E+01  0.12271977395E+03  0.19371985992E+03  0.12500113573E+03 0.  0.
          2    1    1    2  501    0  0.39936698832E+02 -0.84079945171E+01 -0.13884657785E+04  0.13890654600E+04  0.00000000000E+00 0. -1.
          1    1    1    2  502    0  0.42402241944E+02  0.16298248499E+02  0.57969302802E+03  0.58147019680E+03  0.00000000000E+00 0. -1.
         22    1    3    3    0    0 -0.65858353859E+02 -0.27515436921E+02  0.14379819952E+03  0.16053767230E+03  0.00000000000E+00 0.  1.
         22    1    3    3    0    0 -0.16480586917E+02  0.19625182939E+02 -0.21078425572E+02  0.33182187618E+02  0.00000000000E+00 0.  1.
</event>
<event>
 7    1  0.6262315E-006  0.6855837E+02  0.7818608E-02  0.1406071E+00
          2   -1    0    0  502    0  0.00000000000E+00  0.00000000000E+00  0.23969603647E+03  0.23969603647E+03  0.00000000000E+00 0. -1.
          1   -1    0    0  501    0 -0.00000000000E+00 -0.00000000000E+00 -0.31473966904E+03  0.31473966904E+03  0.00000000000E+00 0. -1.
         25    2    1    2    0    0  0.14900152324E+02  0.10378930434E+03 -0.12166593233E+03  0.20352334842E+03  0.12499968011E+03 0.  0.
          2    1    1    2  501    0 -0.30983891046E+02 -0.38221929715E+02 -0.14215346277E+03  0.15042780459E+03  0.00000000000E+00 0. -1.
          1    1    1    2  502    0  0.16083738723E+02 -0.65567374622E+02  0.18877576254E+03  0.20048455249E+03  0.00000000000E+00 0. -1.
         22    1    3    3    0    0 -0.31096597954E+02 -0.56047026532E+00  0.67040203597E+01  0.31815977436E+02  0.00000000000E+00 0.  1.
         22    1    3    3    0    0  0.45996750277E+02  0.10434977460E+03 -0.12836995269E+03  0.17170737098E+03  0.00000000000E+00 0.  1.
</event>
<event>
 7    1  0.6262315E-006  0.7378830E+02  0.7818608E-02  0.1414426E+00
          2   -1    0    0  502    0  0.00000000000E+00  0.00000000000E+00  0.25880851731E+04  0.25880851731E+04  0.00000000000E+00 0. -1.
          1   -1    0    0  501    0 -0.00000000000E+00 -0.00000000000E+00 -0.11640972214E+02  0.11640972214E+02  0.00000000000E+00 0. -1.
         25    2    1    2    0    0 -0.31258986059E+01  0.18667221498E+02  0.17363724278E+04  0.17409687382E+04  0.12499881161E+03 0.  0.
          2    1    1    2  501    0 -0.73534317997E+02 -0.61169706128E+01  0.18620247796E+03  0.20028997991E+03  0.00000000000E+00 0. -1.
          1    1    1    2  502    0  0.76660216603E+02 -0.12550250885E+02  0.65386929512E+03  0.65846742722E+03  0.00000000000E+00 0. -1.
         22    1    3    3    0    0  0.90038375569E+01 -0.46473481241E+02  0.11291471323E+04  0.11301389738E+04  0.00000000000E+00 0.  1.
         22    1    3    3    0    0 -0.12129736163E+02  0.65140702739E+02  0.60722529545E+03  0.61082976440E+03  0.00000000000E+00 0.  1.
</event>
<event>
 7    1  0.6262315E-006  0.1026055E+03  0.7818608E-02  0.1401670E+00
          2   -1    0    0  502    0  0.00000000000E+00  0.00000000000E+00  0.28375434026E+03  0.28375434026E+03  0.00000000000E+00 0. -1.
          1   -1    0    0  501    0 -0.00000000000E+00 -0.00000000000E+00 -0.47704506501E+03  0.47704506501E+03  0.00000000000E+00 0. -1.
         25    2    1    2    0    0  0.87779352336E+02 -0.15500405579E+02  0.54304123760E+01  0.15362079857E+03  0.12499753240E+03 0.  0.
          2    1    1    2  501    0  0.59552576767E+01 -0.33510297550E+02 -0.38845999951E+03  0.38994817137E+03  0.00000000000E+00 0. -1.
          1    1    1    2  502    0 -0.93734610013E+02  0.49010703129E+02  0.18973886238E+03  0.21723043533E+03  0.00000000000E+00 0. -1.
         22    1    3    3    0    0  0.44972833524E+01  0.43827518158E+02  0.23266454167E+02  0.49823737264E+02  0.00000000000E+00 0.  1.
         22    1    3    3    0    0  0.83282068984E+02 -0.59327923737E+02 -0.17836041791E+02  0.10379706131E+03  0.00000000000E+00 0.  1.
</event>
<event>
 7    1  0.6262315E-006  0.3367060E+03  0.7818608E-02  0.1262982E+00
          2   -1    0    0  502    0  0.00000000000E+00  0.00000000000E+00  0.57904205859E+03  0.57904205859E+03  0.00000000000E+00 0. -1.
          1   -1    0    0  501    0 -0.00000000000E+00 -0.00000000000E+00 -0.21981986619E+04  0.21981986619E+04  0.00000000000E+00 0. -1.
         25    2    1    2    0    0 -0.28778418622E+03 -0.18735183154E+03  0.40763597381E+03  0.54746040089E+03  0.12500142708E+03 0.  0.
          2    1    1    2  501    0  0.26204440893E+03  0.21121112240E+03 -0.21114655442E+04  0.21381216417E+04  0.00000000000E+00 0. -1.
          1    1    1    2  502    0  0.25739777294E+02 -0.23859290856E+02  0.84672967025E+02  0.91658677931E+02  0.00000000000E+00 0. -1.
         22    1    3    3    0    0 -0.19173327333E+03 -0.14282468759E+03  0.18980479765E+03  0.30526447664E+03  0.00000000000E+00 0. -1.
         22    1    3    3    0    0 -0.96050912896E+02 -0.44527143953E+02  0.21783117615E+03  0.24219592424E+03  0.00000000000E+00 0. -1.
</event>
<event>
 7    1  0.6262315E-006  0.1035079E+03  0.7818608E-02  0.1336229E+00
          2   -1    0    0  502    0  0.00000000000E+00  0.00000000000E+00  0.29901659605E+03  0.29901659605E+03  0.00000000000E+00 0. -1.
          1   -1    0    0  501    0 -0.00000000000E+00 -0.00000000000E+00 -0.15494672258E+04  0.15494672258E+04  0.00000000000E+00 0. -1.
         25    2    1    2    0    0 -0.40484587916E+02  0.41842944696E+02 -0.93707868955E+02  0.16672284584E+03  0.12500203495E+03 0.  0.
          2    1    1    2  501    0 -0.58038099044E+02  0.16797168246E+01 -0.14075799775E+04  0.14087769999E+04  0.00000000000E+00 0. -1.
          1    1    1    2  502    0  0.98522686960E+02 -0.43522661521E+02  0.25083721672E+03  0.27298397609E+03  0.00000000000E+00 0. -1.
         22    1    3    3    0    0 -0.40955131717E+02  0.85126452617E+02 -0.67762276819E+02  0.11625644889E+03  0.00000000000E+00 0. -1.
         22    1    3    3    0    0  0.47054380056E+00 -0.43283507921E+02 -0.25945592136E+02  0.50466396946E+02  0.00000000000E+00 0. -1.
</event>
<event>
 7    1  0.6262315E-006  0.8837004E+02  0.7818608E-02  0.1339137E+00
          2   -1    0    0  502    0  0.00000000000E+00  0.00000000000E+00  0.59097422658E+03  0.59097422658E+03  0.00000000000E+00 0. -1.
          1   -1    0    0  501    0 -0.00000000000E+00 -0.00000000000E+00 -0.11666095795E+04  0.11666095795E+04  0.00000000000E+00 0. -1.
         25    2    1    2    0    0  0.10903222117E+03  0.83071957498E+02 -0.34275425003E+02  0.18864776755E+03  0.12499680022E+03 0.  0.
          2    1    1    2  501    0 -0.24630412233E+02 -0.61566806485E+02 -0.10504036868E+04  0.10524946718E+04  0.00000000000E+00 0. -1.
          1    1    1    2  502    0 -0.84401808941E+02 -0.21505151014E+02  0.50904375887E+03  0.51644136677E+03  0.00000000000E+00 0. -1.
         22    1    3    3    0    0  0.56359876901E+02  0.10804684852E+03 -0.17101050607E+01  0.12187486065E+03  0.00000000000E+00 0.  1.
         22    1    3    3    0    0  0.52672344274E+02 -0.24974891020E+02 -0.32565319942E+02  0.66772906899E+02  0.00000000000E+00 0.  1.
</event>
<event>
 7    1  0.6262315E-006  0.7562655E+02  0.7818608E-02  0.1432581E+00
          2   -1    0    0  502    0  0.00000000000E+00  0.00000000000E+00  0.17239486887E+04  0.17239486887E+04  0.00000000000E+00 0. -1.
          1   -1    0    0  501    0 -0.00000000000E+00 -0.00000000000E+00 -0.46437837324E+02  0.46437837324E+02  0.00000000000E+00 0. -1.
         25    2    1    2    0    0 -0.65282605874E+02  0.49488326346E+02  0.28424033368E+03  0.32113501786E+03  0.12499687728E+03 0.  0.
          2    1    1    2  501    0  0.33858087699E+02 -0.67798337788E+02  0.23991374549E+02  0.79489438054E+02  0.00000000000E+00 0. -1.
          1    1    1    2  502    0  0.31424518175E+02  0.18310011443E+02  0.13692791432E+04  0.13697620702E+04  0.00000000000E+00 0. -1.
         22    1    3    3    0    0  0.37781101587E+02  0.15038417877E+02  0.71856365907E+02  0.82564538215E+02  0.00000000000E+00 0. -1.
         22    1    3    3    0    0 -0.10306370746E+03  0.34449908468E+02  0.21238396777E+03  0.23857047964E+03  0.00000000000E+00 0. -1.
</event>
<event>
 7    1  0.6262315E-006  0.6681861E+02  0.7818608E-02  0.1472904E+00
          2   -1    0    0  502    0  0.00000000000E+00  0.00000000000E+00  0.48610766996E+02  0.48610766996E+02  0.00000000000E+00 0. -1.
          1   -1    0    0  501    0 -0.00000000000E+00 -0.00000000000E+00 -0.15273051735E+04  0.15273051735E+04  0.00000000000E+00 0. -1.
         25    2    1    2    0    0 -0.44371687411E+02 -0.47926118859E+02 -0.23956450483E+03  0.27799610877E+03  0.12499970002E+03 0.  0.
          2    1    1    2  501    0 -0.19190159745E+02  0.23857795056E+02 -0.12287903530E+04  0.12291717489E+04  0.00000000000E+00 0. -1.
          1    1    1    2  502    0  0.63561847156E+02  0.24068323803E+02 -0.10339548648E+02  0.68748082816E+02  0.00000000000E+00 0. -1.
         22    1    3    3    0    0  0.18664854492E+02 -0.37258664999E+02 -0.14651500505E+02  0.44172971123E+02  0.00000000000E+00 0.  1.
         22    1    3    3    0    0 -0.63036541903E+02 -0.10667453860E+02 -0.22491300432E+03  0.23382313765E+03  0.00000000000E+00 0.  1.
</event>
<event>
 7    1  0.6262315E-006  0.5611030E+02  0.7818608E-02  0.1498433E+00
          2   -1    0    0  502    0  0.00000000000E+00  0.00000000000E+00  0.11479722934E+04  0.11479722934E+04  0.00000000000E+00 0. -1.
          1   -1    0    0  501    0 -0.00000000000E+00 -0.00000000000E+00 -0.12945419698E+04  0.12945419698E+04  0.00000000000E+00 0. -1.
         25    2    1    2    0    0 -0.51692251752E+01 -0.45216759766E+02  0.19452405977E+03  0.23566230831E+03  0.12500334986E+03 0.  0.
          2    1    1    2  501    0 -0.24883606006E+02  0.50348181728E+02 -0.12731045073E+04  0.12743426618E+04  0.00000000000E+00 0. -1.
          1    1    1    2  502    0  0.30052831182E+02 -0.51314219621E+01  0.93201077113E+03  0.93250929306E+03  0.00000000000E+00 0. -1.
         22    1    3    3    0    0 -0.64086836138E+02 -0.23512549986E+02  0.12143453871E+03  0.13930653167E+03  0.00000000000E+00 0.  1.
         22    1    3    3    0    0  0.58917610963E+02 -0.21704209780E+02  0.73089521063E+02  0.96355776645E+02  0.00000000000E+00 0.  1.
</event>
<event>
 7    1  0.6262315E-006  0.1863577E+03  0.7818608E-02  0.1381899E+00
          2   -1    0    0  502    0  0.00000000000E+00  0.00000000000E+00  0.71890832358E+03  0.71890832358E+03  0.00000000000E+00 0. -1.
          1   -1    0    0  501    0 -0.00000000000E+00 -0.00000000000E+00 -0.29391576679E+03  0.29391576679E+03  0.00000000000E+00 0. -1.
         25    2    1    2    0    0 -0.10545343638E+03  0.17661131043E+03  0.68180456046E+01  0.24079618092E+03  0.12499733110E+03 0.  0.
          2    1    1    2  501    0  0.83754158862E+01 -0.20296572711E+02 -0.16194430842E+03  0.16342600003E+03  0.00000000000E+00 0. -1.
          1    1    1    2  502    0  0.97078020490E+02 -0.15631473772E+03  0.58011881961E+03  0.60860190943E+03  0.00000000000E+00 0. -1.
         22    1    3    3    0    0 -0.12075631325E+03  0.13980218086E+03  0.39899501216E+02  0.18899393419E+03  0.00000000000E+00 0. -1.
         22    1    3    3    0    0  0.15302876876E+02  0.36809129573E+02 -0.33081455611E+02  0.51802246727E+02  0.00000000000E+00 0. -1.
</event>
<event>
 7    1  0.6262315E-006  0.8193013E+02  0.7818608E-02  0.1406055E+00
          2   -1    0    0  502    0  0.00000000000E+00  0.00000000000E+00  0.83769091336E+03  0.83769091336E+03  0.00000000000E+00 0. -1.
          1   -1    0    0  501    0 -0.00000000000E+00 -0.00000000000E+00 -0.76554123737E+03  0.76554123737E+03  0.00000000000E+00 0. -1.
         25    2    1    2    0    0  0.69317859420E+02  0.52728371330E+02  0.31404834219E+03  0.34905163566E+03  0.12500174537E+03 0.  0.
          2    1    1    2  501    0 -0.34666469676E+02  0.22222213328E+02 -0.74409876303E+03  0.74523725084E+03  0.00000000000E+00 0. -1.
          1    1    1    2  502    0 -0.34651389743E+02 -0.74950584658E+02  0.50220009683E+03  0.50894326423E+03  0.00000000000E+00 0. -1.
         22    1    3    3    0    0  0.38301509676E+02 -0.28616717879E+02  0.19964895190E+03  0.20529399938E+03  0.00000000000E+00 0. -1.
         22    1    3    3    0    0  0.31016349744E+02  0.81345089209E+02  0.11439939029E+03  0.14375763628E+03  0.00000000000E+00 0. -1.
</event>
<event>
 7    1  0.6262315E-006  0.4977358E+02  0.7818608E-02  0.1560872E+00
          2   -1    0    0  502    0  0.00000000000E+00  0.00000000000E+00  0.29425451948E+04  0.29425451948E+04  0.00000000000E+00 0. -1.
          1   -1    0    0  501    0 -0.00000000000E+00 -0.00000000000E+00 -0.69172209158E+01  0.69172209158E+01  0.00000000000E+00 0. -1.
         25    2    1    2    0    0 -0.13828652597E+02 -0.55080891759E+02  0.11429632517E+04  0.11511796640E+04  0.12499795080E+03 0.  0.
          2    1    1    2  501    0 -0.16369727228E+02  0.15809164918E+02  0.50240035099E+02  0.55153955359E+02  0.00000000000E+00 0. -1.
          1    1    1    2  502    0  0.30198379825E+02  0.39271726840E+02  0.17424246871E+04  0.17431287964E+04  0.00000000000E+00 0. -1.
         22    1    3    3    0    0 -0.82838845344E+01 -0.73141462683E+02  0.33483179052E+03  0.34282739717E+03  0.00000000000E+00 0. -1.
         22    1    3    3    0    0 -0.55447680628E+01  0.18060570925E+02  0.80813146119E+03  0.80835226680E+03  0.00000000000E+00 0. -1.
</event>
<event>
 7    1  0.6262315E-006  0.1518435E+03  0.7818608E-02  0.1247472E+00
          2   -1    0    0  502    0  0.00000000000E+00  0.00000000000E+00  0.34924287445E+04  0.34924287445E+04  0.00000000000E+00 0. -1.
          1   -1    0    0  501    0 -0.00000000000E+00 -0.00000000000E+00 -0.83237161525E+02  0.83237161525E+02  0.00000000000E+00 0. -1.
         25    2    1    2    0    0  0.20640651827E+02  0.13662791007E+03  0.17910932985E+04  0.18007590804E+04  0.12499935855E+03 0.  0.
          2    1    1    2  501    0 -0.86908742134E+02  0.26119081412E+02 -0.45872093854E+02  0.10168374928E+03  0.00000000000E+00 0. -1.
          1    1    1    2  502    0  0.66268090308E+02 -0.16274699148E+03  0.16639703784E+04  0.16732230763E+04  0.00000000000E+00 0. -1.
         22    1    3    3    0    0  0.26572640096E+02  0.13768109642E+03  0.17888390107E+04  0.17943263905E+04  0.00000000000E+00 0.  1.
         22    1    3    3    0    0 -0.59319882691E+01 -0.10531863553E+01  0.22542877810E+01  0.64326899291E+01  0.00000000000E+00 0.  1.
</event>
<event>
 7    1  0.6262315E-006  0.6981873E+02  0.7818608E-02  0.1454912E+00
          2   -1    0    0  502    0  0.00000000000E+00  0.00000000000E+00  0.35816272170E+03  0.35816272170E+03  0.00000000000E+00 0. -1.
          1   -1    0    0  501    0 -0.00000000000E+00 -0.00000000000E+00 -0.16750338331E+04  0.16750338331E+04  0.00000000000E+00 0. -1.
         25    2    1    2    0    0 -0.81333788196E+02  0.23847747475E+02 -0.54319192402E+02  0.16050419919E+03  0.12500849224E+03 0.  0.
          2    1    1    2  501    0  0.27050701371E+02  0.19539609064E+02 -0.15634844122E+04  0.15638404790E+04  0.00000000000E+00 0. -1.
          1    1    1    2  502    0  0.54283086825E+02 -0.43387356539E+02  0.30093249317E+03  0.30885187658E+03  0.00000000000E+00 0. -1.
         22    1    3    3    0    0 -0.99475714531E+02  0.31000963678E+02 -0.77760127453E+02  0.13001198003E+03  0.00000000000E+00 0. -1.
         22    1    3    3    0    0  0.18141926335E+02 -0.71532162029E+01  0.23440935051E+02  0.30492219159E+02  0.00000000000E+00 0. -1.
</event>
<event>
 7    1  0.6262315E-006  0.1440179E+03  0.7818608E-02  0.1344176E+00
          2   -1    0    0  502    0  0.00000000000E+00  0.00000000000E+00  0.27466045573E+04  0.27466045573E+04  0.00000000000E+00 0. -1.
          1   -1    0    0  501    0 -0.00000000000E+00 -0.00000000000E+00 -0.22296759999E+03  0.22296759999E+03  0.00000000000E+00 0. -1.
         25    2    1    2    0    0  0.83846100495E+02  0.11115726131E+03  0.25807687107E+02  0.18888360892E+03  0.12499950278E+03 0.  0.
          2    1    1    2  501    0 -0.54370350138E+02 -0.13662641725E+03 -0.10302229028E+03  0.17954527329E+03  0.00000000000E+00 0. -1.
          1    1    1    2  502    0 -0.29475750357E+02  0.25469155944E+02  0.26008515605E+04  0.26011432751E+04  0.00000000000E+00 0. -1.
         22    1    3    3    0    0 -0.20130025389E+02 -0.32707213852E+01 -0.19038231216E+02  0.27899279353E+02  0.00000000000E+00 0.  1.
         22    1    3    3    0    0  0.10397612588E+03  0.11442798269E+03  0.44845918324E+02  0.16098432957E+03  0.00000000000E+00 0.  1.
</event>
<event>
 7    1  0.6262315E-006  0.1161027E+03  0.7818608E-02  0.1284477E+00
          2   -1    0    0  502    0  0.00000000000E+00  0.00000000000E+00  0.19724644701E+03  0.19724644701E+03  0.00000000000E+00 0. -1.
          1   -1    0    0  501    0 -0.00000000000E+00 -0.00000000000E+00 -0.18468190514E+04  0.18468190514E+04  0.00000000000E+00 0. -1.
         25    2    1    2    0    0 -0.48785894939E+02 -0.13933907119E+03 -0.40697541621E+03  0.45060990094E+03  0.12499941250E+03 0.  0.
          2    1    1    2  501    0 -0.29127550173E+02  0.11136339012E+03 -0.14057749439E+04  0.14104798516E+04  0.00000000000E+00 0. -1.
          1    1    1    2  502    0  0.77913445112E+02  0.27975681071E+02  0.16317775566E+03  0.18297574594E+03  0.00000000000E+00 0. -1.
         22    1    3    3    0    0 -0.35448241799E+02 -0.16061010336E+03 -0.31610532770E+03  0.35633518118E+03  0.00000000000E+00 0.  1.
         22    1    3    3    0    0 -0.13337653141E+02  0.21271032166E+02 -0.90870088503E+02  0.94274719757E+02  0.00000000000E+00 0.  1.
</event>
<event>
 7    1  0.6262315E-006  0.1114265E+03  0.7818608E-02  0.1269422E+00
          2   -1    0    0  502    0  0.00000000000E+00  0.00000000000E+00  0.42019904484E+03  0.42019904484E+03  0.00000000000E+00 0. -1.
          1   -1    0    0  501    0 -0.00000000000E+00 -0.00000000000E+00 -0.38561611933E+03  0.38561611933E+03  0.00000000000E+00 0. -1.
         25    2    1    2    0    0  0.27767560327E+02  0.38439203072E+02 -0.18148336794E+03  0.22541156292E+03  0.12500220046E+03 0.  0.
          2    1    1    2  501    0  0.86883832955E+02 -0.48726403250E+02 -0.15924547726E+03  0.18783552601E+03  0.00000000000E+00 0. -1.
          1    1    1    2  502    0 -0.11465139328E+03  0.10287200178E+02  0.37531177071E+03  0.39256807525E+03  0.00000000000E+00 0. -1.
         22    1    3    3    0    0  0.24176827427E+00 -0.31990873567E+02 -0.13012946043E+03  0.13400429439E+03  0.00000000000E+00 0.  1.
         22    1    3    3    0    0  0.27525792053E+02  0.70430076639E+02 -0.51353907509E+02  0.91407268529E+02  0.00000000000E+00 0.  1.
</event>
<event>
 7    1  0.6262315E-006  0.8763273E+02  0.7818608E-02  0.1392850E+00
          2   -1    0    0  502    0  0.00000000000E+00  0.00000000000E+00  0.17514106148E+04  0.17514106148E+04  0.00000000000E+00 0. -1.
          1   -1    0    0  501    0 -0.00000000000E+00 -0.00000000000E+00 -0.27146158677E+04  0.27146158677E+04  0.00000000000E+00 0. -1.
         25    2    1    2    0    0 -0.63567414265E+02  0.53282893828E+02  0.30135106010E+03  0.33662625213E+03  0.12499955706E+03 0.  0.
          2    1    1    2  501    0  0.31117600939E+02  0.29305839267E+02 -0.26954344272E+04  0.26957733378E+04  0.00000000000E+00 0. -1.
          1    1    1    2  502    0  0.32449813327E+02 -0.82588733094E+02  0.14308781143E+04  0.14336268926E+04  0.00000000000E+00 0. -1.
         22    1    3    3    0    0  0.16351827790E+02  0.50487918314E+02  0.20323427329E+03  0.21004899906E+03  0.00000000000E+00 0.  1.
         22    1    3    3    0    0 -0.79919242056E+02  0.27949755134E+01  0.98116786815E+02  0.12657725307E+03  0.00000000000E+00 0.  1.
</event>
<event>
 7    1  0.6262315E-006  0.6006246E+02  0.7818608E-02  0.1433672E+00
          2   -1    0    0  502    0  0.00000000000E+00  0.00000000000E+00  0.20101557014E+02  0.20101557014E+02  0.00000000000E+00 0. -1.
          1   -1    0    0  501    0 -0.00000000000E+00 -0.00000000000E+00 -0.11007362260E+04  0.11007362260E+04  0.00000000000E+00 0. -1.
         25    2    1    2    0    0  0.27092857301E+02 -0.84214933297E+02 -0.54378321543E+03  0.56493452593E+03  0.12499862117E+03 0.  0.
          2    1    1    2  501    0  0.12248162889E+02  0.43736068352E+02 -0.45021709755E+03  0.45250226088E+03  0.00000000000E+00 0. -1.
          1    1    1    2  502    0 -0.39341020190E+02  0.40478864945E+02 -0.86634355999E+02  0.10340099621E+03  0.00000000000E+00 0. -1.
         22    1    3    3    0    0  0.47854479155E+02 -0.94589194214E+02 -0.26840506707E+03  0.28858005279E+03  0.00000000000E+00 0. -1.
         22    1    3    3    0    0 -0.20761621854E+02  0.10374260917E+02 -0.27537814836E+03  0.27635447314E+03  0.00000000000E+00 0. -1.
</event>
<event>
 7    1  0.6262315E-006  0.2020256E+03  0.7818608E-02  0.1207119E+00
          2   -1    0    0  502    0  0.00000000000E+00  0.00000000000E+00  0.22220558599E+04  0.22220558599E+04  0.00000000000E+00 0. -1.
          1   -1    0    0  501    0 -0.00000000000E+00 -0.00000000000E+00 -0.64329958332E+03  0.64329958332E+03  0.00000000000E+00 0. -1.
         25    2    1    2    0    0  0.27128920173E+03  0.70210828510E+02  0.17689443352E+03  0.35418074837E+03  0.12499988197E+03 0.  0.
          2    1    1    2  501    0 -0.17141165316E+03 -0.97975812317E+02 -0.53565681017E+03  0.57088478077E+03  0.00000000000E+00 0. -1.
          1    1    1    2  502    0 -0.99877548571E+02  0.27764983807E+02  0.19375186532E+04  0.19402899141E+04  0.00000000000E+00 0. -1.
         22    1    3    3    0    0 -0.62913937741E+01 -0.11751584652E+02 -0.26431563209E+01  0.13589247691E+02  0.00000000000E+00 0.  1.
         22    1    3    3    0    0  0.27758059550E+03  0.81962413162E+02  0.17953758984E+03  0.34059150068E+03  0.00000000000E+00 0.  1.
</event>
<event>
 7    1  0.6262315E-006  0.8088010E+02  0.7818608E-02  0.1357440E+00
          2   -1    0    0  502    0  0.00000000000E+00  0.00000000000E+00  0.14260633299E+04  0.14260633299E+04  0.00000000000E+00 0. -1.
          1   -1    0    0  501    0 -0.00000000000E+00 -0.00000000000E+00 -0.15838410573E+03  0.15838410573E+03  0.00000000000E+00 0. -1.
         25    2    1    2    0    0 -0.11214944303E+02 -0.70200705640E+01 -0.27721019809E+02  0.12871563178E+03  0.12499681019E+03 0.  0.
          2    1    1    2  501    0  0.82158494859E+02 -0.31820674957E+02 -0.54376232763E+02  0.10353428573E+03  0.00000000000E+00 0. -1.
          1    1    1    2  502    0 -0.70943550556E+02  0.38840745521E+02  0.13497764767E+04  0.13521975181E+04  0.00000000000E+00 0. -1.
         22    1    3    3    0    0 -0.52489612907E+02  0.37773010344E+02 -0.11498298490E+02  0.65682346500E+02  0.00000000000E+00 0.  1.
         22    1    3    3    0    0  0.41274668604E+02 -0.44793080908E+02 -0.16222721319E+02  0.63033285275E+02  0.00000000000E+00 0.  1.
</event>
<event>
 7    1  0.6262315E-006  0.2466034E+03  0.7818608E-02  0.1291561E+00
          2   -1    0    0  502    0  0.00000000000E+00  0.00000000000E+00  0.14389767690E+04  0.14389767690E+04  0.00000000000E+00 0. -1.
          1   -1    0    0  501    0 -0.00000000000E+00 -0.00000000000E+00 -0.13546658371E+03  0.13546658371E+03  0.00000000000E+00 0. -1.
         25    2    1    2    0    0 -0.21684598352E+03  0.90198246706E+02  0.94529877761E+03  0.98202480147E+03  0.12500010983E+03 0.  0.
          2    1    1    2  501    0  0.24052550716E+03 -0.62466517263E+02  0.16807249689E+02  0.24907241722E+03  0.00000000000E+00 0. -1.
          1    1    1    2  502    0 -0.23679523640E+02 -0.27731729443E+02  0.34140415794E+03  0.34334613398E+03  0.00000000000E+00 0. -1.
         22    1    3    3    0    0 -0.16654773759E+03  0.11537530074E+03  0.63090944129E+03  0.66264344260E+03  0.00000000000E+00 0. -1.
         22    1    3    3    0    0 -0.50298245937E+02 -0.25177054039E+02  0.31438933632E+03  0.31938135886E+03  0.00000000000E+00 0. -1.
</event>
<event>
 7    1  0.6262315E-006  0.9824323E+02  0.7818608E-02  0.1322807E+00
          2   -1    0    0  502    0  0.00000000000E+00  0.00000000000E+00  0.33381203698E+03  0.33381203698E+03  0.00000000000E+00 0. -1.
          1   -1    0    0  501    0 -0.00000000000E+00 -0.00000000000E+00 -0.31984690703E+03  0.31984690703E+03  0.00000000000E+00 0. -1.
         25    2    1    2    0    0  0.52270938415E+01 -0.10677199912E+03  0.11927860977E+03  0.20317360569E+03  0.12499817996E+03 0.  0.
          2    1    1    2  501    0  0.58234530028E+02  0.80079949126E+02 -0.26159735115E+03  0.27970919339E+03  0.00000000000E+00 0. -1.
          1    1    1    2  502    0 -0.63461623870E+02  0.26692049992E+02  0.15628387133E+03  0.17077614492E+03  0.00000000000E+00 0. -1.
         22    1    3    3    0    0  0.19315707191E+02  0.22487060557E+02  0.43617554618E+02  0.52737609992E+02  0.00000000000E+00 0. -1.
         22    1    3    3    0    0 -0.14088613349E+02 -0.12925905967E+03  0.75661055154E+02  0.15043599570E+03  0.00000000000E+00 0. -1.
</event>
<event>
 7    1  0.6262315E-006  0.2756847E+02  0.7818608E-02  0.1632546E+00
          2   -1    0    0  502    0  0.00000000000E+00  0.00000000000E+00  0.19598208202E+03  0.19598208202E+03  0.00000000000E+00 0. -1.
          1   -1    0    0  501    0 -0.00000000000E+00 -0.00000000000E+00 -0.24119037394E+03  0.24119037394E+03  0.00000000000E+00 0. -1.
         25    2    1    2    0    0 -0.19430806757E+02  0.49963499744E+02  0.77427488254E+01  0.13623428074E+03  0.12500368607E+03 0.  0.
          2    1    1    2  501    0  0.97735416047E+01 -0.24782659528E+02 -0.17445490071E+03  0.17647723567E+03  0.00000000000E+00 0. -1.
          1    1    1    2  502    0  0.96572651520E+01 -0.25180840217E+02  0.12150385997E+03  0.12446093954E+03  0.00000000000E+00 0. -1.
         22    1    3    3    0    0 -0.47541120194E+02 -0.25863048352E+02  0.11295445097E+02  0.55286910380E+02  0.00000000000E+00 0. -1.
         22    1    3    3    0    0  0.28110313438E+02  0.75826548096E+02 -0.35526962720E+01  0.80947370362E+02  0.00000000000E+00 0. -1.
</event>
<event>
 7    1  0.6262315E-006  0.1077843E+03  0.7818608E-02  0.1314316E+00
          2   -1    0    0  502    0  0.00000000000E+00  0.00000000000E+00  0.31045761630E+03  0.31045761630E+03  0.00000000000E+00 0. -1.
          1   -1    0    0  501    0 -0.00000000000E+00 -0.00000000000E+00 -0.28256781374E+04  0.28256781374E+04  0.00000000000E+00 0. -1.
         25    2    1    2    0    0  0.21495816346E+02 -0.11325558258E+03 -0.43374522849E+03  0.46588552876E+03  0.12500202223E+03 0.  0.
          2    1    1    2  501    0  0.56052014023E+02  0.37983072501E+02 -0.23654434013E+04  0.23664122690E+04  0.00000000000E+00 0. -1.
          1    1    1    2  502    0 -0.77547830369E+02  0.75272510076E+02  0.28396810865E+03  0.30383795599E+03  0.00000000000E+00 0. -1.
         22    1    3    3    0    0  0.12605818554E+02 -0.77734723799E+02 -0.87539060922E+02  0.11774838059E+03  0.00000000000E+00 0.  1.
         22    1    3    3    0    0  0.88899977925E+01 -0.35520858778E+02 -0.34620616757E+03  0.34813714816E+03  0.00000000000E+00 0.  1.
</event>
<event>
 7    1  0.6262315E-006  0.1291145E+03  0.7818608E-02  0.1378096E+00
          2   -1    0    0  502    0  0.00000000000E+00  0.00000000000E+00  0.20348115789E+04  0.20348115789E+04  0.00000000000E+00 0. -1.
          1   -1    0    0  501    0 -0.00000000000E+00 -0.00000000000E+00 -0.14652257730E+03  0.14652257730E+03  0.00000000000E+00 0. -1.
         25    2    1    2    0    0 -0.10776012208E+03 -0.10568916770E+03  0.42728978526E+02  0.20058217120E+03  0.12499999088E+03 0.  0.
          2    1    1    2  501    0  0.79240882827E+02  0.89712493596E+02 -0.14350248471E+02  0.12055446342E+03  0.00000000000E+00 0. -1.
          1    1    1    2  502    0  0.28519239255E+02  0.15976674100E+02  0.18599102716E+04  0.18601975216E+04  0.00000000000E+00 0. -1.
         22    1    3    3    0    0  0.17383685681E+02 -0.32842098074E+01 -0.20391926615E+02  0.26996467046E+02  0.00000000000E+00 0.  1.
         22    1    3    3    0    0 -0.12514380776E+03 -0.10240495789E+03  0.63120905142E+02  0.17358570416E+03  0.00000000000E+00 0.  1.
</event>
<event>
 7    1  0.6262315E-006  0.2870766E+03  0.7818608E-02  0.1183742E+00
          2   -1    0    0  502    0  0.00000000000E+00  0.00000000000E+00  0.68311094877E+03  0.68311094877E+03  0.00000000000E+00 0. -1.
          1   -1    0    0  501    0 -0.00000000000E+00 -0.00000000000E+00 -0.77610046217E+03  0.77610046217E+03  0.00000000000E+00 0. -1.
         25    2    1    2    0    0  0.22273351467E+03  0.59384547401E+01 -0.12009294296E+03  0.28229929263E+03  0.12500036747E+03 0.  0.
          2    1    1    2  501    0  0.72131000462E+02 -0.60626464304E+02 -0.53316692313E+03  0.54142905105E+03  0.00000000000E+00 0. -1.
          1    1    1    2  502    0 -0.29486451513E+03  0.54688009564E+02  0.56027035269E+03  0.63548306727E+03  0.00000000000E+00 0. -1.
         22    1    3    3    0    0  0.23843855720E+03  0.50465787613E+01 -0.11899687903E+03  0.26653080635E+03  0.00000000000E+00 0. -1.
         22    1    3    3    0    0 -0.15705042523E+02  0.89187597880E+00 -0.10960639314E+01  0.15768486280E+02  0.00000000000E+00 0. -1.
</event>
<event>
 7    1  0.6262315E-006  0.5465331E+02  0.7818608E-02  0.1532678E+00
          2   -1    0    0  502    0  0.00000000000E+00  0.00000000000E+00  0.22282223814E+03  0.22282223814E+03  0.00000000000E+00 0. -1.
          1   -1    0    0  501    0 -0.00000000000E+00 -0.00000000000E+00 -0.42942869890E+03  0.42942869890E+03  0.00000000000E+00 0. -1.
         25    2    1    2    0    0  0.62071751192E+01  0.33743605978E+02  0.11342571603E+03  0.17224600760E+03  0.12500453636E+03 0.  0.
          2    1    1    2  501    0  0.75962797664E+01 -0.54418784067E+02 -0.39614384225E+03  0.39993630903E+03  0.00000000000E+00 0. -1.
          1    1    1    2  502    0 -0.13803454886E+02  0.20675178089E+02  0.76111665461E+02  0.80068620414E+02  0.00000000000E+00 0. -1.
         22    1    3    3    0    0  0.63862558719E+01  0.52687944423E+02 -0.40731216362E+01  0.53229635274E+02  0.00000000000E+00 0. -1.
         22    1    3    3    0    0 -0.17908075276E+00 -0.18944338445E+02  0.11749883766E+03  0.11901637232E+03  0.00000000000E+00 0. -1.
</event>
<event>
 7    1  0.6262315E-006  0.6458370E+02  0.7818608E-02  0.1523076E+00
          2   -1    0    0  502    0  0.00000000000E+00  0.00000000000E+00  0.34240429742E+03  0.34240429742E+03  0.00000000000E+00 0. -1.
          1   -1    0    0  501    0 -0.00000000000E+00 -0.00000000000E+00 -0.10205871500E+04  0.10205871500E+04  0.00000000000E+00 0. -1.
         25    2    1    2    0    0  0.89802281177E+01 -0.75426847383E+02 -0.87490767226E+03  0.88705088358E+03  0.12500392504E+03 0.  0.
          2    1    1    2  501    0 -0.44370085416E+00  0.54699044697E+02 -0.13385548464E+03  0.14460108274E+03  0.00000000000E+00 0. -1.
          1    1    1    2  502    0 -0.85365272635E+01  0.20727802685E+02  0.33058030434E+03  0.33133948108E+03  0.00000000000E+00 0. -1.
         22    1    3    3    0    0  0.21315542118E+02  0.14683296989E+02 -0.43021001798E+02  0.50207152299E+02  0.00000000000E+00 0.  1.
         22    1    3    3    0    0 -0.12335314000E+02 -0.90110144372E+02 -0.83188667047E+03  0.83684373128E+03  0.00000000000E+00 0.  1.
</event>
<event>
 7    1  0.6262315E-006  0.6266846E+02  0.7818608E-02  0.1407812E+00
          2   -1    0    0  502    0  0.00000000000E+00  0.00000000000E+00  0.64746217714E+03  0.64746217714E+03  0.00000000000E+00 0. -1.
          1   -1    0    0  501    0 -0.00000000000E+00 -0.00000000000E+00 -0.54456290031E+02  0.54456290031E+02  0.00000000000E+00 0. -1.
         25    2    1    2    0    0 -0.12889588430E+02 -0.27095995331E+02  0.12841874751E+03  0.18170872671E+03  0.12500540867E+03 0.  0.
          2    1    1    2  501    0 -0.51825214865E+02  0.11554975142E+02  0.22907531819E+01  0.53147134415E+02  0.00000000000E+00 0. -1.
          1    1    1    2  502    0  0.64714803295E+02  0.15541020189E+02  0.46229638641E+03  0.46706260604E+03  0.00000000000E+00 0. -1.
         22    1    3    3    0    0 -0.23031286365E+02  0.47472865687E+02  0.44862034723E+02  0.69258322876E+02  0.00000000000E+00 0.  1.
         22    1    3    3    0    0  0.10141697935E+02 -0.74568861018E+02  0.83556712791E+02  0.11245040384E+03  0.00000000000E+00 0.  1.
</event>
<event>
 7    1  0.6262315E-006  0.2187827E+03  0.7818608E-02  0.1303186E+00
          2   -1    0    0  502    0  0.00000000000E+00  0.00000000000E+00  0.29265571016E+03  0.29265571016E+03  0.00000000000E+00 0. -1.
          1   -1    0    0  501    0 -0.00000000000E+00 -0.00000000000E+00 -0.12731975663E+04  0.12731975663E+04  0.00000000000E+00 0. -1.
         25    2    1    2    0    0 -0.15568551873E+03 -0.13368612227E+03 -0.41192590536E+03  0.47688473451E+03  0.12500455379E+03 0.  0.
          2    1    1    2  501    0  0.13143351689E+02 -0.34490076840E+02 -0.78157787861E+03  0.78244890787E+03  0.00000000000E+00 0. -1.
          1    1    1    2  502    0  0.14254216704E+03  0.16817619911E+03  0.21296192787E+03  0.30651963404E+03  0.00000000000E+00 0. -1.
         22    1    3    3    0    0 -0.58724020444E+02 -0.10271440197E+03 -0.31436147254E+03  0.33588970566E+03  0.00000000000E+00 0. -1.
         22    1    3    3    0    0 -0.96961498288E+02 -0.30971720301E+02 -0.97564432819E+02  0.14099502885E+03  0.00000000000E+00 0. -1.
</event>
<event>
 7    1  0.6262315E-006  0.6822601E+02  0.7818608E-02  0.1414666E+00
          2   -1    0    0  502    0  0.00000000000E+00  0.00000000000E+00  0.17729175784E+04  0.17729175784E+04  0.00000000000E+00 0. -1.
          1   -1    0    0  501    0 -0.00000000000E+00 -0.00000000000E+00 -0.11607037871E+04  0.11607037871E+04  0.00000000000E+00 0. -1.
         25    2    1    2    0    0 -0.38054731596E+02  0.81513492104E+01  0.96228754496E+03  0.97115219571E+03  0.12499864382E+03 0.  0.
          2    1    1    2  501    0 -0.35811469325E+02  0.29247096701E+02 -0.11536814824E+04  0.11546076463E+04  0.00000000000E+00 0. -1.
          1    1    1    2  502    0  0.73866200921E+02 -0.37398445911E+02  0.80360772877E+03  0.80786152349E+03  0.00000000000E+00 0. -1.
         22    1    3    3    0    0 -0.22905537980E+02 -0.56302415157E+02  0.57968139419E+03  0.58285945510E+03  0.00000000000E+00 0.  1.
         22    1    3    3    0    0 -0.15149193616E+02  0.64453764367E+02  0.38260615077E+03  0.38829274061E+03  0.00000000000E+00 0.  1.
</event>
<event>
 7    1  0.6262315E-006  0.8250534E+02  0.7818608E-02  0.1328941E+00
          2   -1    0    0  502    0  0.00000000000E+00  0.00000000000E+00  0.40699227648E+03  0.40699227648E+03  0.00000000000E+00 0. -1.
          1   -1    0    0  501    0 -0.00000000000E+00 -0.00000000000E+00 -0.68793388367E+03  0.68793388367E+03  0.00000000000E+00 0. -1.
         25    2    1    2    0    0  0.10070615830E+02 -0.15518898545E+03 -0.27564171673E+02  0.20142018125E+03  0.12500106939E+03 0.  0.
          2    1    1    2  501    0  0.83599973584E+01  0.79761659219E+02 -0.56586308339E+03  0.57151801458E+03  0.00000000000E+00 0. -1.
          1    1    1    2  502    0 -0.18430613188E+02  0.75427326229E+02  0.31248564788E+03  0.32198796433E+03  0.00000000000E+00 0. -1.
         22    1    3    3    0    0  0.46667618380E+01 -0.47193914748E+01 -0.48900926552E+02  0.49349285097E+02  0.00000000000E+00 0.  1.
         22    1    3    3    0    0  0.54038539916E+01 -0.15046959397E+03  0.21336754879E+02  0.15207089615E+03  0.00000000000E+00 0.  1.
</event>
<event>
 7    1  0.6262315E-006  0.4131589E+02  0.7818608E-02  0.1526048E+00
          2   -1    0    0  502    0  0.00000000000E+00  0.00000000000E+00  0.76529528233E+03  0.76529528233E+03  0.00000000000E+00 0. -1.
          1   -1    0    0  501    0 -0.00000000000E+00 -0.00000000000E+00 -0.13312413661E+03  0.13312413661E+03  0.00000000000E+00 0. -1.
         25    2    1    2    0    0 -0.30796385348E+02 -0.58231397776E+02  0.57151460062E+03  0.58872249949E+03  0.12500371854E+03 0.  0.
          2    1    1    2  501    0  0.33513208472E+02  0.23982893111E+02 -0.11944158931E+03  0.12635112806E+03  0.00000000000E+00 0. -1.
          1    1    1    2  502    0 -0.27168231238E+01  0.34248504665E+02  0.18009813441E+03  0.18334579138E+03  0.00000000000E+00 0. -1.
         22    1    3    3    0    0  0.29405445116E+02  0.13399579213E+02  0.54914047250E+02  0.63716414769E+02  0.00000000000E+00 0. -1.
         22    1    3    3    0    0 -0.60201830464E+02 -0.71630976990E+02  0.51660055337E+03  0.52500608472E+03  0.00000000000E+00 0. -1.
</event>
<event>
 7    1  0.6262315E-006  0.2073339E+03  0.7818608E-02  0.1321991E+00
          2   -1    0    0  502    0  0.00000000000E+00  0.00000000000E+00  0.26276017285E+04  0.26276017285E+04  0.00000000000E+00 0. -1.
          1   -1    0    0  501    0 -0.00000000000E+00 -0.00000000000E+00 -0.17552993077E+03  0.17552993077E+03  0.00000000000E+00 0. -1.
         25    2    1    2    0    0 -0.29009670965E+02 -0.18392097731E+03  0.11759708257E+04  0.11971635936E+04  0.12499919965E+03 0.  0.
          2    1    1    2  501    0  0.71559040012E+01  0.20846085522E+03 -0.98712169544E+02  0.23076227494E+03  0.00000000000E+00 0. -1.
          1    1    1    2  502    0  0.21853766963E+02 -0.24539877915E+02  0.13748131416E+04  0.13752057908E+04  0.00000000000E+00 0. -1.
         22    1    3    3    0    0 -0.10115280709E+02 -0.13880517643E+03  0.48803857045E+03  0.50749467205E+03  0.00000000000E+00 0.  1.
         22    1    3    3    0    0 -0.18894390255E+02 -0.45115800879E+02  0.68793225527E+03  0.68966892152E+03  0.00000000000E+00 0.  1.
</event>
<event>
 7    1  0.6262315E-006  0.9362851E+02  0.7818608E-02  0.1334571E+00
          2   -1    0    0  502    0  0.00000000000E+00  0.00000000000E+00  0.11925933203E+04  0.11925933203E+04  0.00000000000E+00 0. -1.
          1   -1    0    0  501    0 -0.00000000000E+00 -0.00000000000E+00 -0.56284258395E+02  0.56284258395E+02  0.00000000000E+00 0. -1.
         25    2    1    2    0    0 -0.93147894484E+02  0.11618942544E+03  0.33603209527E+03  0.38822812376E+03  0.12500797652E+03 0.  0.
          2    1    1    2  501    0  0.57181029804E+02 -0.61897760407E+02  0.32818202025E+02  0.90432501331E+02  0.00000000000E+00 0. -1.
          1    1    1    2  502    0  0.35966864680E+02 -0.54291665037E+02  0.76745876462E+03  0.77021695362E+03  0.00000000000E+00 0. -1.
         22    1    3    3    0    0 -0.11718627862E+02 -0.27150822961E+02  0.50170504943E+02  0.58237213126E+02  0.00000000000E+00 0. -1.
         22    1    3    3    0    0 -0.81429266622E+02  0.14334024840E+03  0.28586159033E+03  0.32999091063E+03  0.00000000000E+00 0. -1.
</event>
<event>
 7    1  0.6262315E-006  0.6528390E+02  0.7818608E-02  0.1454261E+00
          2   -1    0    0  502    0  0.00000000000E+00  0.00000000000E+00  0.16954102498E+03  0.16954102498E+03  0.00000000000E+00 0. -1.
          1   -1    0    0  501    0 -0.00000000000E+00 -0.00000000000E+00 -0.47030608146E+03  0.47030608146E+03  0.00000000000E+00 0. -1.
         25    2    1    2    0    0 -0.47391644197E+02 -0.22545987199E+02 -0.18451123822E+03  0.22896179026E+03  0.12499925957E+03 0.  0.
          2    1    1    2  501    0  0.68962015118E+02 -0.60989437562E+01 -0.25673201746E+03  0.26590277440E+03  0.00000000000E+00 0. -1.
          1    1    1    2  502    0 -0.21570370922E+02  0.28644930955E+02  0.14047819919E+03  0.14498254178E+03  0.00000000000E+00 0. -1.
         22    1    3    3    0    0 -0.57024893193E+02 -0.61218869754E+02 -0.74763257217E+02  0.11220130609E+03  0.00000000000E+00 0. -1.
         22    1    3    3    0    0  0.96332489960E+01  0.38672882555E+02 -0.10974798100E+03  0.11676048418E+03  0.00000000000E+00 0. -1.
</event>
<event>
 7    1  0.6262315E-006  0.5116983E+02  0.7818608E-02  0.1556295E+00
          2   -1    0    0  502    0  0.00000000000E+00  0.00000000000E+00  0.61714921167E+02  0.61714921167E+02  0.00000000000E+00 0. -1.
          1   -1    0    0  501    0 -0.00000000000E+00 -0.00000000000E+00 -0.95408685957E+03  0.95408685957E+03  0.00000000000E+00 0. -1.
         25    2    1    2    0    0  0.27067495927E+02  0.35202063124E+02 -0.75008580874E+03  0.76172667573E+03  0.12500789358E+03 0.  0.
          2    1    1    2  501    0  0.19017633685E+02 -0.12556908331E+02 -0.18554157536E+03  0.18693587811E+03  0.00000000000E+00 0. -1.
          1    1    1    2  502    0 -0.46085129613E+02 -0.22645154794E+02  0.43255445693E+02  0.67139226903E+02  0.00000000000E+00 0. -1.
         22    1    3    3    0    0 -0.22358446577E+02  0.21465311009E+02 -0.63463910696E+03  0.63539551131E+03  0.00000000000E+00 0.  1.
         22    1    3    3    0    0  0.49425942504E+02  0.13736752115E+02 -0.11544670178E+03  0.12633116441E+03  0.00000000000E+00 0.  1.
</event>
<event>
 7    1  0.6262315E-006  0.5123231E+02  0.7818608E-02  0.1511206E+00
          2   -1    0    0  502    0  0.00000000000E+00  0.00000000000E+00  0.19558022127E+04  0.19558022127E+04  0.00000000000E+00 0. -1.
          1   -1    0    0  501    0 -0.00000000000E+00 -0.00000000000E+00 -0.34060275131E+02  0.34060275131E+02  0.00000000000E+00 0. -1.
         25    2    1    2    0    0  0.68706615542E+02 -0.27042908781E+02  0.38990135555E+03  0.41604949218E+03  0.12498877929E+03 0.  0.
          2    1    1    2  501    0 -0.18129976709E+02  0.24654055415E+02 -0.91885473306E+01  0.31952275442E+02  0.00000000000E+00 0. -1.
          1    1    1    2  502    0 -0.50576638833E+02  0.23888533657E+01  0.15410291293E+04  0.15418607202E+04  0.00000000000E+00 0. -1.
         22    1    3    3    0    0  0.10237772313E+03 -0.87056919813E+01  0.23511532368E+03  0.25658566346E+03  0.00000000000E+00 0. -1.
         22    1    3    3    0    0 -0.33671107591E+02 -0.18337216800E+02  0.15478603188E+03  0.15946382872E+03  0.00000000000E+00 0. -1.
</event>
<event>
 7    1  0.6262315E-006  0.5886290E+02  0.7818608E-02  0.1547192E+00
          2   -1    0    0  502    0  0.00000000000E+00  0.00000000000E+00  0.61165279906E+03  0.61165279906E+03  0.00000000000E+00 0. -1.
          1   -1    0    0  501    0 -0.00000000000E+00 -0.00000000000E+00 -0.18660914655E+03  0.18660914655E+03  0.00000000000E+00 0. -1.
         25    2    1    2    0    0  0.38621167456E+02  0.13221066066E+02  0.87748042775E+02  0.15808744189E+03  0.12500211642E+03 0.  0.
          2    1    1    2  501    0  0.13589940758E+02  0.16010784085E+02 -0.14886817396E+03  0.15034215948E+03  0.00000000000E+00 0. -1.
          1    1    1    2  502    0 -0.52211108213E+02 -0.29231850152E+02  0.48616378370E+03  0.48983234424E+03  0.00000000000E+00 0. -1.
         22    1    3    3    0    0 -0.34355309485E+02 -0.29504437759E+01  0.74612829651E+02  0.82195296439E+02  0.00000000000E+00 0.  1.
         22    1    3    3    0    0  0.72976476941E+02  0.16171509842E+02  0.13135213125E+02  0.75892145450E+02  0.00000000000E+00 0.  1.
</event>
<event>
 7    1  0.6262315E-006  0.8387537E+02  0.7818608E-02  0.1355372E+00
          2   -1    0    0  502    0  0.00000000000E+00  0.00000000000E+00  0.32419294330E+04  0.32419294330E+04  0.00000000000E+00 0. -1.
          1   -1    0    0  501    0 -0.00000000000E+00 -0.00000000000E+00 -0.36387744286E+02  0.36387744286E+02  0.00000000000E+00 0. -1.
         25    2    1    2    0    0  0.73507705489E+02 -0.67452485483E+02  0.67626073282E+03  0.69491524374E+03  0.12500158665E+03 0.  0.
          2    1    1    2  501    0 -0.14695393572E+02  0.82842063464E+02  0.39617338716E+02  0.92996212816E+02  0.00000000000E+00 0. -1.
          1    1    1    2  502    0 -0.58812311917E+02 -0.15389577982E+02  0.24896636172E+04  0.24904057207E+04  0.00000000000E+00 0. -1.
         22    1    3    3    0    0  0.44389681261E+02 -0.15377422306E+02  0.62120210051E+02  0.77883434799E+02  0.00000000000E+00 0.  1.
         22    1    3    3    0    0  0.29118024228E+02 -0.52075063177E+02  0.61414052277E+03  0.61703180894E+03  0.00000000000E+00 0.  1.
</event>
<event>
 7    1  0.6262315E-006  0.1320556E+03  0.7818608E-02  0.1276980E+00
          2   -1    0    0  502    0  0.00000000000E+00  0.00000000000E+00  0.93434817705E+03  0.93434817705E+03  0.00000000000E+00 0. -1.
          1   -1    0    0  501    0 -0.00000000000E+00 -0.00000000000E+00 -0.38236872924E+03  0.38236872924E+03  0.00000000000E+00 0. -1.
         25    2    1    2    0    0 -0.13007180047E+03 -0.11256255683E+03  0.65607285352E+02  0.22252882034E+03  0.12500303002E+03 0.  0.
          2    1    1    2  501    0  0.52152434923E+02  0.11867360154E+03 -0.28802811953E+03  0.31585360186E+03  0.00000000000E+00 0. -1.
          1    1    1    2  502    0  0.77919365546E+02 -0.61110447083E+01  0.77440028198E+03  0.77833448409E+03  0.00000000000E+00 0. -1.
         22    1    3    3    0    0 -0.10456150545E+03 -0.25067364288E+02 -0.43875440520E+01  0.10761380821E+03  0.00000000000E+00 0. -1.
         22    1    3    3    0    0 -0.25510295019E+02 -0.87495192542E+02  0.69994829404E+02  0.11491501213E+03  0.00000000000E+00 0. -1.
</event>
<event>
 7    1  0.6262315E-006  0.6599448E+02  0.7818608E-02  0.1503207E+00
          2   -1    0    0  502    0  0.00000000000E+00  0.00000000000E+00  0.18119128237E+02  0.18119128237E+02  0.00000000000E+00 0. -1.
          1   -1    0    0  501    0 -0.00000000000E+00 -0.00000000000E+00 -0.15009538609E+04  0.15009538609E+04  0.00000000000E+00 0. -1.
         25    2    1    2    0    0  0.20395750379E+02  0.65593736337E+02 -0.89291064611E+03  0.90423039290E+03  0.12499862655E+03 0.  0.
          2    1    1    2  501    0 -0.25082839111E+02  0.39275620933E+00 -0.51204752969E+03  0.51266165815E+03  0.00000000000E+00 0. -1.
          1    1    1    2  502    0  0.46870887323E+01 -0.65986492546E+02 -0.77876556886E+02  0.10218093810E+03  0.00000000000E+00 0. -1.
         22    1    3    3    0    0 -0.45710623795E+02 -0.23201888688E+01 -0.36763054431E+03  0.37046870517E+03  0.00000000000E+00 0.  1.
         22    1    3    3    0    0  0.66106374173E+02  0.67913925206E+02 -0.52528010180E+03  0.53376168773E+03  0.00000000000E+00 0.  1.
</event>
<event>
 7    1  0.6450806E-006  0.1003133E+03  0.7818608E-02  0.1280078E+00
          2   -1    0    0  502    0  0.00000000000E+00  0.00000000000E+00  0.13088221761E+04  0.13088221761E+04  0.00000000000E+00 0. -1.
          1   -1    0    0  501    0 -0.00000000000E+00 -0.00000000000E+00 -0.18803555940E+04  0.18803555940E+04  0.00000000000E+00 0. -1.
         25    2    1    2    0    0  0.10359239031E+03 -0.16979468010E+03 -0.12893867441E+04  0.13106125579E+04  0.12500193793E+03 0.  0.
          2    1    1    2  501    0 -0.42535129509E+02  0.90386691374E+02 -0.57410423999E+03  0.58273035753E+03  0.00000000000E+00 0. -1.
          1    1    1    2  502    0 -0.61057260801E+02  0.79407988724E+02  0.12919575662E+04  0.12958348547E+04  0.00000000000E+00 0. -1.
         22    1    3    3    0    0 -0.26666823489E+02 -0.45274896999E+02 -0.22295150525E+03  0.22905961989E+03  0.00000000000E+00 0.  1.
         22    1    3    3    0    0  0.13025921380E+03 -0.12451978310E+03 -0.10664352389E+04  0.10815529381E+04  0.00000000000E+00 0.  1.
</event>
<event>
 7    1  0.6262315E-006  0.1834467E+03  0.7818608E-02  0.1237845E+00
          2   -1    0    0  502    0  0.00000000000E+00  0.00000000000E+00  0.61863115435E+03  0.61863115435E+03  0.00000000000E+00 0. -1.
          1   -1    0    0  501    0 -0.00000000000E+00 -0.00000000000E+00 -0.64927047522E+03  0.64927047522E+03  0.00000000000E+00 0. -1.
         25    2    1    2    0    0  0.43127067039E+02  0.13008751027E+03  0.86300193427E+02  0.20458607663E+03  0.12500014050E+03 0.  0.
          2    1    1    2  501    0  0.75528136588E+02  0.33915530474E+02 -0.56532451122E+03  0.57135502589E+03  0.00000000000E+00 0. -1.
          1    1    1    2  502    0 -0.11865520363E+03 -0.16400304074E+03  0.44838499692E+03  0.49196052705E+03  0.00000000000E+00 0. -1.
         22    1    3    3    0    0 -0.97924897107E+01  0.91019748035E+02  0.10190131534E+03  0.13698308455E+03  0.00000000000E+00 0.  1.
         22    1    3    3    0    0  0.52919556750E+02  0.39067762231E+02 -0.15601121909E+02  0.67602992073E+02  0.00000000000E+00 0.  1.
</event>
<event>
 7    1  0.6262315E-006  0.1076673E+03  0.7818608E-02  0.1465032E+00
          2   -1    0    0  502    0  0.00000000000E+00  0.00000000000E+00  0.11350306003E+04  0.11350306003E+04  0.00000000000E+00 0. -1.
          1   -1    0    0  501    0 -0.00000000000E+00 -0.00000000000E+00 -0.87832412555E+03  0.87832412555E+03  0.00000000000E+00 0. -1.
         25    2    1    2    0    0 -0.83225179550E+02  0.92010678631E+02 -0.33653732532E+03  0.37983450974E+03  0.12499795181E+03 0.  0.
          2    1    1    2  501    0  0.35232211067E+01 -0.19794308039E+02 -0.51734508571E+03  0.51773561344E+03  0.00000000000E+00 0. -1.
          1    1    1    2  502    0  0.79701958444E+02 -0.72216370591E+02  0.11105888858E+04  0.11157846027E+04  0.00000000000E+00 0. -1.
         22    1    3    3    0    0 -0.37773169782E+02 -0.28126541003E+02 -0.77210516376E+02  0.90439916537E+02  0.00000000000E+00 0. -1.
         22    1    3    3    0    0 -0.45452009768E+02  0.12013721963E+03 -0.25932680895E+03  0.28939459320E+03  0.00000000000E+00 0. -1.
</event>
<event>
 7    1  0.6262315E-006  0.1037293E+03  0.7818608E-02  0.1347601E+00
          2   -1    0    0  502    0  0.00000000000E+00  0.00000000000E+00  0.83771750576E+03  0.83771750576E+03  0.00000000000E+00 0. -1.
          1   -1    0    0  501    0 -0.00000000000E+00 -0.00000000000E+00 -0.44491752819E+03  0.44491752819E+03  0.00000000000E+00 0. -1.
         25    2    1    2    0    0  0.73113692787E+02 -0.60622050111E+02  0.37729618839E+03  0.40865420765E+03  0.12500081050E+03 0.  0.
          2    1    1    2  501    0 -0.10264469475E+03  0.17193034644E+02 -0.42133392474E+03  0.43399747688E+03  0.00000000000E+00 0. -1.
          1    1    1    2  502    0  0.29531001966E+02  0.43429015467E+02  0.43683771392E+03  0.43998334941E+03  0.00000000000E+00 0. -1.
         22    1    3    3    0    0 -0.13998482604E+02  0.48683550702E+01  0.19994323665E+03  0.20049178606E+03  0.00000000000E+00 0.  1.
         22    1    3    3    0    0  0.87112175391E+02 -0.65490405181E+02  0.17735295174E+03  0.20816242160E+03  0.00000000000E+00 0.  1.
</event>
<event>
 7    1  0.6262315E-006  0.4635357E+02  0.7818608E-02  0.1532569E+00
          2   -1    0    0  502    0  0.00000000000E+00  0.00000000000E+00  0.10997792413E+04  0.10997792413E+04  0.00000000000E+00 0. -1.
          1   -1    0    0  501    0 -0.00000000000E+00 -0.00000000000E+00 -0.16746650760E+03  0.16746650760E+03  0.00000000000E+00 0. -1.
         25    2    1    2    0    0  0.20668776359E+02 -0.80786908714E+01  0.30355597696E+03  0.32903413559E+03  0.12499907069E+03 0.  0.
          2    1    1    2  501    0  0.27085956534E+02  0.11256038761E+02 -0.15259850667E+03  0.15539192928E+03  0.00000000000E+00 0. -1.
          1    1    1    2  502    0 -0.47754732893E+02 -0.31773478896E+01  0.78135526342E+03  0.78281968404E+03  0.00000000000E+00 0. -1.
         22    1    3    3    0    0  0.30520439945E+02  0.70029511527E+01  0.30871242322E+03  0.31029646926E+03  0.00000000000E+00 0. -1.
         22    1    3    3    0    0 -0.98516635858E+01 -0.15081642024E+02 -0.51564462643E+01  0.18737666334E+02  0.00000000000E+00 0. -1.
</event>
<event>
 7    1  0.6262315E-006  0.8730877E+02  0.7818608E-02  0.1321084E+00
          2   -1    0    0  502    0  0.00000000000E+00  0.00000000000E+00  0.10518666026E+04  0.10518666026E+04  0.00000000000E+00 0. -1.
          1   -1    0    0  501    0 -0.00000000000E+00 -0.00000000000E+00 -0.45602357971E+03  0.45602357971E+03  0.00000000000E+00 0. -1.
         25    2    1    2    0    0 -0.48141215111E+02 -0.99382359672E+02 -0.15792373551E+03  0.22971081450E+03  0.12503088440E+03 0.  0.
          2    1    1    2  501    0  0.83082326705E+02  0.28900557105E+02 -0.25325116783E+03  0.26809339645E+03  0.00000000000E+00 0. -1.
          1    1    1    2  502    0 -0.34941111594E+02  0.70481802566E+02  0.10070179262E+04  0.10100859714E+04  0.00000000000E+00 0. -1.
         22    1    3    3    0    0 -0.30207518831E+02 -0.88276046253E+00  0.11975336971E+02  0.32506647867E+02  0.00000000000E+00 0.  1.
         22    1    3    3    0    0 -0.17933696280E+02 -0.98499599209E+02 -0.16989907249E+03  0.19720416663E+03  0.00000000000E+00 0.  1.
</event>
<event>
 7    1  0.6262315E-006  0.6866818E+02  0.7818608E-02  0.1494867E+00
          2   -1    0    0  502    0  0.00000000000E+00  0.00000000000E+00  0.34856411954E+03  0.34856411954E+03  0.00000000000E+00 0. -1.
          1   -1    0    0  501    0 -0.00000000000E+00 -0.00000000000E+00 -0.26655870926E+04  0.26655870926E+04  0.00000000000E+00 0. -1.
         25    2    1    2    0    0 -0.21007175218E+01 -0.47507666734E+02 -0.38153196426E+03  0.40429293883E+03  0.12499899689E+03 0.  0.
          2    1    1    2  501    0  0.18256072816E+02  0.67279929357E+02 -0.22716557909E+04  0.22727252156E+04  0.00000000000E+00 0. -1.
          1    1    1    2  502    0 -0.16155355295E+02 -0.19772262622E+02  0.33616478212E+03  0.33713305773E+03  0.00000000000E+00 0. -1.
         22    1    3    3    0    0 -0.46776440219E+02  0.12098743338E+00 -0.59391614646E+02  0.75600356400E+02  0.00000000000E+00 0. -1.
         22    1    3    3    0    0  0.44675722698E+02 -0.47628654168E+02 -0.32214034961E+03  0.32869258243E+03  0.00000000000E+00 0. -1.
</event>
<event>
 7    1  0.6262315E-006  0.1483279E+03  0.7818608E-02  0.1210034E+00
          2   -1    0    0  502    0  0.00000000000E+00  0.00000000000E+00  0.15517175225E+04  0.15517175225E+04  0.00000000000E+00 0. -1.
          1   -1    0    0  501    0 -0.00000000000E+00 -0.00000000000E+00 -0.34285859472E+03  0.34285859472E+03  0.00000000000E+00 0. -1.
         25    2    1    2    0    0  0.61345631638E+02  0.32077482922E+02 -0.22117883115E+03  0.26331842501E+03  0.12499706463E+03 0.  0.
          2    1    1    2  501    0  0.57183090885E+02 -0.12433835171E+03 -0.48434472618E+02  0.14517516912E+03  0.00000000000E+00 0. -1.
          1    1    1    2  502    0 -0.11852872252E+03  0.92260868792E+02  0.14784722316E+04  0.14860825231E+04  0.00000000000E+00 0. -1.
         22    1    3    3    0    0  0.41174732028E+02 -0.16437336169E+02 -0.96638945389E+01  0.45375493777E+02  0.00000000000E+00 0.  1.
         22    1    3    3    0    0  0.20170899611E+02  0.48514819091E+02 -0.21151493661E+03  0.21794293123E+03  0.00000000000E+00 0.  1.
</event>
<event>
 7    1  0.6262315E-006  0.1838827E+03  0.7818608E-02  0.1271018E+00
          2   -1    0    0  502    0  0.00000000000E+00  0.00000000000E+00  0.11991824375E+03  0.11991824375E+03  0.00000000000E+00 0. -1.
          1   -1    0    0  501    0 -0.00000000000E+00 -0.00000000000E+00 -0.13724914826E+04  0.13724914826E+04  0.00000000000E+00 0. -1.
         25    2    1    2    0    0 -0.12830939805E+03  0.17483819343E+03 -0.18029394831E+03  0.30848452508E+03  0.12500039564E+03 0.  0.
          2    1    1    2  501    0  0.69408946403E+02 -0.16685860329E+03 -0.11025220927E+04  0.11172351410E+04  0.00000000000E+00 0. -1.
          1    1    1    2  502    0  0.58900451643E+02 -0.79795901405E+01  0.30242802138E+02  0.66690060307E+02  0.00000000000E+00 0. -1.
         22    1    3    3    0    0 -0.48088403965E+02  0.30885589680E+02  0.86134099553E+01  0.57797967757E+02  0.00000000000E+00 0.  1.
         22    1    3    3    0    0 -0.80220994081E+02  0.14395260375E+03 -0.18890735827E+03  0.25068655733E+03  0.00000000000E+00 0.  1.
</event>
<event>
 7    1  0.6262315E-006  0.7222762E+02  0.7818608E-02  0.1359877E+00
          2   -1    0    0  502    0  0.00000000000E+00  0.00000000000E+00  0.20415835030E+04  0.20415835030E+04  0.00000000000E+00 0. -1.
          1   -1    0    0  501    0 -0.00000000000E+00 -0.00000000000E+00 -0.95089722836E+03  0.95089722836E+03  0.00000000000E+00 0. -1.
         25    2    1    2    0    0  0.12077769370E+02 -0.23583458812E+02  0.23204123528E+03  0.26489643434E+03  0.12499973605E+03 0.  0.
          2    1    1    2  501    0  0.63030034264E+02  0.25424287438E+02 -0.93244528905E+03  0.93491892519E+03  0.00000000000E+00 0. -1.
          1    1    1    2  502    0 -0.75107803634E+02 -0.18408286261E+01  0.17910903284E+04  0.17926653718E+04  0.00000000000E+00 0. -1.
         22    1    3    3    0    0 -0.40495732990E+02  0.31075995319E+02  0.78336436709E+02  0.93499835250E+02  0.00000000000E+00 0.  1.
         22    1    3    3    0    0  0.52573502360E+02 -0.54659454131E+02  0.15370479857E+03  0.17139659909E+03  0.00000000000E+00 0.  1.
</event>
<event>
 7    1  0.6262315E-006  0.3564361E+02  0.7818608E-02  0.1582449E+00
          2   -1    0    0  502    0  0.00000000000E+00  0.00000000000E+00  0.31979560949E+03  0.31979560949E+03  0.00000000000E+00 0. -1.
          1   -1    0    0  501    0 -0.00000000000E+00 -0.00000000000E+00 -0.25606491733E+03  0.25606491733E+03  0.00000000000E+00 0. -1.
         25    2    1    2    0    0  0.23705197386E+01  0.13053767380E+02  0.10003354676E+02  0.12609825892E+03  0.12499873436E+03 0.  0.
          2    1    1    2  501    0 -0.21290892920E+02  0.17835571085E+02 -0.19572894038E+03  0.19768972613E+03  0.00000000000E+00 0. -1.
          1    1    1    2  502    0  0.18920373182E+02 -0.30889338465E+02  0.24945627786E+03  0.25207254177E+03  0.00000000000E+00 0. -1.
         22    1    3    3    0    0 -0.37936956101E+02 -0.42102573542E+02 -0.21356555111E+01  0.56713317321E+02  0.00000000000E+00 0. -1.
         22    1    3    3    0    0  0.40307475839E+02  0.55156340923E+02  0.12139010187E+02  0.69384941600E+02  0.00000000000E+00 0. -1.
</event>
<event>
 7    1  0.6262315E-006  0.5331021E+02  0.7818608E-02  0.1450438E+00
          2   -1    0    0  502    0  0.00000000000E+00  0.00000000000E+00  0.17009431597E+03  0.17009431597E+03  0.00000000000E+00 0. -1.
          1   -1    0    0  501    0 -0.00000000000E+00 -0.00000000000E+00 -0.10325239306E+04  0.10325239306E+04  0.00000000000E+00 0. -1.
         25    2    1    2    0    0  0.43924734684E+02 -0.77797990065E+02 -0.16420199027E+03  0.22487629171E+03  0.12500057356E+03 0.  0.
          2    1    1    2  501    0 -0.28052327786E+01  0.45074944974E+02 -0.83241092697E+03  0.83363515481E+03  0.00000000000E+00 0. -1.
          1    1    1    2  502    0 -0.41119501905E+02  0.32723045091E+02  0.13418330262E+03  0.14410680004E+03  0.00000000000E+00 0. -1.
         22    1    3    3    0    0 -0.35687765211E+02 -0.51004971694E+02 -0.36922258070E+02  0.72376632032E+02  0.00000000000E+00 0. -1.
         22    1    3    3    0    0  0.79612499895E+02 -0.26793018371E+02 -0.12727973220E+03  0.15249965968E+03  0.00000000000E+00 0. -1.
</event>
<event>
 7    1  0.6262315E-006  0.1147639E+03  0.7818608E-02  0.1320969E+00
          2   -1    0    0  502    0  0.00000000000E+00  0.00000000000E+00  0.18178617688E+03  0.18178617688E+03  0.00000000000E+00 0. -1.
          1   -1    0    0  501    0 -0.00000000000E+00 -0.00000000000E+00 -0.27864040007E+03  0.27864040007E+03  0.00000000000E+00 0. -1.
         25    2    1    2    0    0 -0.11548504775E+03  0.49227151693E+02  0.64528736272E+02  0.18854517449E+03  0.12500086520E+03 0.  0.
          2    1    1    2  501    0  0.46404044877E+02  0.37891239400E+02 -0.14828399967E+03  0.15992881529E+03  0.00000000000E+00 0. -1.
          1    1    1    2  502    0  0.69081002871E+02 -0.87118391094E+02 -0.13098959802E+02  0.11195258716E+03  0.00000000000E+00 0. -1.
         22    1    3    3    0    0 -0.12502102565E+03  0.16236784573E+02  0.13161560805E+02  0.12675613086E+03  0.00000000000E+00 0. -1.
         22    1    3    3    0    0  0.95359779023E+01  0.32990367120E+02  0.51367175467E+02  0.61789043630E+02  0.00000000000E+00 0. -1.
</event>
<event>
 7    1  0.6262315E-006  0.3920492E+02  0.7818608E-02  0.1599365E+00
          2   -1    0    0  502    0  0.00000000000E+00  0.00000000000E+00  0.91626486492E+03  0.91626486492E+03  0.00000000000E+00 0. -1.
          1   -1    0    0  501    0 -0.00000000000E+00 -0.00000000000E+00 -0.11375085465E+02  0.11375085465E+02  0.00000000000E+00 0. -1.
         25    2    1    2    0    0  0.19730681292E+02 -0.12563190856E+02  0.61161419703E+03  0.62469527078E+03  0.12500048711E+03 0.  0.
          2    1    1    2  501    0  0.22766900333E+02  0.78612183011E+00  0.41547076243E+02  0.47382584170E+02  0.00000000000E+00 0. -1.
          1    1    1    2  502    0 -0.42497581625E+02  0.11777069026E+02  0.25172850617E+03  0.25556209543E+03  0.00000000000E+00 0. -1.
         22    1    3    3    0    0 -0.42794496495E+02 -0.29725100575E+02  0.15554438489E+03  0.16403964828E+03  0.00000000000E+00 0. -1.
         22    1    3    3    0    0  0.62525177787E+02  0.17161909719E+02  0.45606981214E+03  0.46065562251E+03  0.00000000000E+00 0. -1.
</event>
<event>
 7    1  0.6262315E-006  0.4600012E+02  0.7818608E-02  0.1568419E+00
          2   -1    0    0  502    0  0.00000000000E+00  0.00000000000E+00  0.13991937099E+04  0.13991937099E+04  0.00000000000E+00 0. -1.
          1   -1    0    0  501    0 -0.00000000000E+00 -0.00000000000E+00 -0.75274750363E+02  0.75274750363E+02  0.00000000000E+00 0. -1.
         25    2    1    2    0    0  0.51580002157E+02 -0.25501686832E+01  0.95222142778E+03  0.96177845888E+03  0.12500062586E+03 0.  0.
          2    1    1    2  501    0 -0.11948102832E+02 -0.20213603526E+02 -0.67321224708E+02  0.71298627090E+02  0.00000000000E+00 0. -1.
          1    1    1    2  502    0 -0.39631899325E+02  0.22763772209E+02  0.43901875644E+03  0.44139137426E+03  0.00000000000E+00 0. -1.
         22    1    3    3    0    0 -0.23253143153E+02 -0.43399367823E+02  0.30108530180E+03  0.30508453378E+03  0.00000000000E+00 0. -1.
         22    1    3    3    0    0  0.74833145310E+02  0.40849199139E+02  0.65113612598E+03  0.65669392510E+03  0.00000000000E+00 0. -1.
</event>
<event>
 7    1  0.6262315E-006  0.1322800E+03  0.7818608E-02  0.1295602E+00
          2   -1    0    0  502    0  0.00000000000E+00  0.00000000000E+00  0.11584797712E+04  0.11584797712E+04  0.00000000000E+00 0. -1.
          1   -1    0    0  501    0 -0.00000000000E+00 -0.00000000000E+00 -0.22777185807E+03  0.22777185807E+03  0.00000000000E+00 0. -1.
         25    2    1    2    0    0  0.49823921533E+02 -0.10775777635E+03  0.81695293536E+03  0.83494391737E+03  0.12500034016E+03 0.  0.
          2    1    1    2  501    0 -0.10796407387E+03  0.77655319846E+02 -0.19480853487E+03  0.23587487192E+03  0.00000000000E+00 0. -1.
          1    1    1    2  502    0  0.58140152340E+02  0.30102456505E+02  0.30856351260E+03  0.31543283994E+03  0.00000000000E+00 0. -1.
         22    1    3    3    0    0  0.23981894825E+02  0.18816293894E+02  0.32092858152E+03  0.32237298062E+03  0.00000000000E+00 0. -1.
         22    1    3    3    0    0  0.25842026709E+02 -0.12657407024E+03  0.49602435383E+03  0.51257093675E+03  0.00000000000E+00 0. -1.
</event>
<event>
 7    1  0.6262315E-006  0.5322361E+02  0.7818608E-02  0.1494732E+00
          2   -1    0    0  502    0  0.00000000000E+00  0.00000000000E+00  0.10664266632E+04  0.10664266632E+04  0.00000000000E+00 0. -1.
          1   -1    0    0  501    0 -0.00000000000E+00 -0.00000000000E+00 -0.12283770102E+04  0.12283770102E+04  0.00000000000E+00 0. -1.
         25    2    1    2    0    0 -0.41815551801E+01 -0.75051061564E+02  0.28683111454E+03  0.32178592965E+03  0.12499579595E+03 0.  0.
          2    1    1    2  501    0 -0.17518387116E+02  0.50224824459E+02 -0.12099583514E+04  0.12111270119E+04  0.00000000000E+00 0. -1.
          1    1    1    2  502    0  0.21699942296E+02  0.24826237105E+02  0.76117688988E+03  0.76189073182E+03  0.00000000000E+00 0. -1.
         22    1    3    3    0    0 -0.31953294010E+02  0.22399095073E+02  0.44876255698E+02  0.59469410487E+02  0.00000000000E+00 0.  1.
         22    1    3    3    0    0  0.27771738830E+02 -0.97450156638E+02  0.24195485885E+03  0.26231651916E+03  0.00000000000E+00 0.  1.
</event>
<event>
 7    1  0.6262315E-006  0.1011943E+03  0.7818608E-02  0.1331468E+00
          2   -1    0    0  502    0  0.00000000000E+00  0.00000000000E+00  0.90952933320E+03  0.90952933320E+03  0.00000000000E+00 0. -1.
          1   -1    0    0  501    0 -0.00000000000E+00 -0.00000000000E+00 -0.58891136409E+03  0.58891136409E+03  0.00000000000E+00 0. -1.
         25    2    1    2    0    0 -0.15482934143E+03  0.11340187004E+02 -0.19208443656E+03  0.27680603908E+03  0.12499771077E+03 0.  0.
          2    1    1    2  501    0  0.93107845749E+02 -0.64499666981E+01 -0.34719018264E+03  0.35951591888E+03  0.00000000000E+00 0. -1.
          1    1    1    2  502    0  0.61721495678E+02 -0.48902203056E+01  0.85989258830E+03  0.86211873932E+03  0.00000000000E+00 0. -1.
         22    1    3    3    0    0 -0.36793993287E+02  0.51265329230E+02 -0.11239668862E+03  0.12889898190E+03  0.00000000000E+00 0.  1.
         22    1    3    3    0    0 -0.11803534814E+03 -0.39925142226E+02 -0.79687747938E+02  0.14790705718E+03  0.00000000000E+00 0.  1.
</event>
<event>
 7    1  0.6262315E-006  0.7517203E+02  0.7818608E-02  0.1398946E+00
          2   -1    0    0  502    0  0.00000000000E+00  0.00000000000E+00  0.11330319629E+04  0.11330319629E+04  0.00000000000E+00 0. -1.
          1   -1    0    0  501    0 -0.00000000000E+00 -0.00000000000E+00 -0.94023998483E+03  0.94023998483E+03  0.00000000000E+00 0. -1.
         25    2    1    2    0    0  0.11142414410E+03  0.99199266620E+01  0.21379155929E+03  0.27174543975E+03  0.12500003347E+03 0.  0.
          2    1    1    2  501    0 -0.72847225769E+02  0.17740415509E+02 -0.90908590645E+03  0.91217247599E+03  0.00000000000E+00 0. -1.
          1    1    1    2  502    0 -0.38576918331E+02 -0.27660342171E+02  0.88808632522E+03  0.88935403198E+03  0.00000000000E+00 0. -1.
         22    1    3    3    0    0  0.10064831532E+02  0.12291053438E+02  0.15238814410E+03  0.15321395919E+03  0.00000000000E+00 0.  1.
         22    1    3    3    0    0  0.10135931257E+03 -0.23711267763E+01  0.61403415188E+02  0.11853148056E+03  0.00000000000E+00 0.  1.
</event>
<event>
 7    1  0.6262315E-006  0.1397698E+03  0.7818608E-02  0.1242180E+00
          2   -1    0    0  502    0  0.00000000000E+00  0.00000000000E+00  0.10115891609E+04  0.10115891609E+04  0.00000000000E+00 0. -1.
          1   -1    0    0  501    0 -0.00000000000E+00 -0.00000000000E+00 -0.10979640247E+04  0.10979640247E+04  0.00000000000E+00 0. -1.
         25    2    1    2    0    0 -0.35299682417E+02  0.21827054246E+03 -0.25161748768E+03  0.35752575656E+03  0.12500083686E+03 0.  0.
          2    1    1    2  501    0  0.60793865144E+02 -0.11745743051E+03 -0.78502448521E+03  0.79608767382E+03  0.00000000000E+00 0. -1.
          1    1    1    2  502    0 -0.25494182727E+02 -0.10081311195E+03  0.95026710908E+03  0.95593975516E+03  0.00000000000E+00 0. -1.
         22    1    3    3    0    0 -0.78534070652E+02  0.17710497329E+03 -0.20213760192E+03  0.27998818177E+03  0.00000000000E+00 0. -1.
         22    1    3    3    0    0  0.43234388236E+02  0.41165569164E+02 -0.49479885754E+02  0.77537574794E+02  0.00000000000E+00 0. -1.
</event>
<event>
 7    1  0.6262315E-006  0.2148233E+03  0.7818608E-02  0.1150933E+00
          2   -1    0    0  502    0  0.00000000000E+00  0.00000000000E+00  0.28379975881E+04  0.28379975881E+04  0.00000000000E+00 0. -1.
          1   -1    0    0  501    0 -0.00000000000E+00 -0.00000000000E+00 -0.58631726249E+03  0.58631726249E+03  0.00000000000E+00 0. -1.
         25    2    1    2    0    0 -0.12331501461E+03  0.31124888123E+02  0.30712819393E+02  0.18095185701E+03  0.12499978316E+03 0.  0.
          2    1    1    2  501    0  0.21443749524E+03  0.12825007551E+03 -0.47735928769E+03  0.53879811690E+03  0.00000000000E+00 0. -1.
          1    1    1    2  502    0 -0.91122480621E+02 -0.15937496363E+03  0.26983267939E+04  0.27045648767E+04  0.00000000000E+00 0. -1.
         22    1    3    3    0    0 -0.87297193956E+02  0.58340050763E+02 -0.26289960394E+02  0.10823827240E+03  0.00000000000E+00 0. -1.
         22    1    3    3    0    0 -0.36017820659E+02 -0.27215162640E+02  0.57002779787E+02  0.72713584604E+02  0.00000000000E+00 0. -1.
</event>
<event>
 7    1  0.6262315E-006  0.2196838E+03  0.7818608E-02  0.1327295E+00
          2   -1    0    0  502    0  0.00000000000E+00  0.00000000000E+00  0.85489232135E+02  0.85489232135E+02  0.00000000000E+00 0. -1.
          1   -1    0    0  501    0 -0.00000000000E+00 -0.00000000000E+00 -0.18045726016E+04  0.18045726016E+04  0.00000000000E+00 0. -1.
         25    2    1    2    0    0  0.91570750159E+02  0.21963074147E+03 -0.78636580457E+03  0.83103460228E+03  0.12499786682E+03 0.  0.
          2    1    1    2  501    0  0.81984017001E+01 -0.28429051615E+02 -0.81069357203E+03  0.81123331569E+03  0.00000000000E+00 0. -1.
          1    1    1    2  502    0 -0.99769151859E+02 -0.19120168985E+03 -0.12202399292E+03  0.24779391581E+03  0.00000000000E+00 0. -1.
         22    1    3    3    0    0  0.84267484588E+02  0.70157934320E+02 -0.44493879470E+03  0.45825066911E+03  0.00000000000E+00 0.  1.
         22    1    3    3    0    0  0.73032655714E+01  0.14947280715E+03 -0.34142700986E+03  0.37278393317E+03  0.00000000000E+00 0.  1.
</event>
<event>
 7    1  0.6262315E-006  0.4204323E+02  0.7818608E-02  0.1528057E+00
          2   -1    0    0  502    0  0.00000000000E+00  0.00000000000E+00  0.30657405655E+03  0.30657405655E+03  0.00000000000E+00 0. -1.
          1   -1    0    0  501    0 -0.00000000000E+00 -0.00000000000E+00 -0.12529517739E+04  0.12529517739E+04  0.00000000000E+00 0. -1.
         25    2    1    2    0    0 -0.65661921577E+02  0.36508636873E+02  0.22690691202E+02  0.14758198002E+03  0.12498481847E+03 0.  0.
          2    1    1    2  501    0  0.35715682816E+02 -0.21909105197E+02 -0.11888818900E+04  0.11896200096E+04  0.00000000000E+00 0. -1.
          1    1    1    2  502    0  0.29946238761E+02 -0.14599531675E+02  0.21981348148E+03  0.22232384079E+03  0.00000000000E+00 0. -1.
         22    1    3    3    0    0 -0.82893340786E+02  0.11388064965E+02  0.57348976718E+02  0.10143913989E+03  0.00000000000E+00 0. -1.
         22    1    3    3    0    0  0.17231419209E+02  0.25120571907E+02 -0.34658285516E+02  0.46142840136E+02  0.00000000000E+00 0. -1.
</event>
<event>
 7    1  0.6262315E-006  0.1387983E+03  0.7818608E-02  0.1341006E+00
          2   -1    0    0  502    0  0.00000000000E+00  0.00000000000E+00  0.92834635774E+02  0.92834635774E+02  0.00000000000E+00 0. -1.
          1   -1    0    0  501    0 -0.00000000000E+00 -0.00000000000E+00 -0.89085688300E+03  0.89085688300E+03  0.00000000000E+00 0. -1.
         25    2    1    2    0    0  0.15782461337E+03 -0.30941327011E+02 -0.14799954693E+03  0.25178331869E+03  0.12499999750E+03 0.  0.
          2    1    1    2  501    0 -0.12446736715E+03  0.55698874566E+02 -0.67145698297E+03  0.68516346231E+03  0.00000000000E+00 0. -1.
          1    1    1    2  502    0 -0.33357246223E+02 -0.24757547555E+02  0.21434282666E+02  0.46744737778E+02  0.00000000000E+00 0. -1.
         22    1    3    3    0    0  0.81826085577E+00  0.31187270234E+02 -0.74135881956E+01  0.32066753272E+02  0.00000000000E+00 0. -1.
         22    1    3    3    0    0  0.15700635251E+03 -0.62128597245E+02 -0.14058595873E+03  0.21971656541E+03  0.00000000000E+00 0. -1.
</event>
<event>
 7    1  0.6262315E-006  0.1386120E+03  0.7818608E-02  0.1409870E+00
          2   -1    0    0  502    0  0.00000000000E+00  0.00000000000E+00  0.18044650353E+04  0.18044650353E+04  0.00000000000E+00 0. -1.
          1   -1    0    0  501    0 -0.00000000000E+00 -0.00000000000E+00 -0.40044615164E+03  0.40044615164E+03  0.00000000000E+00 0. -1.
         25    2    1    2    0    0  0.51981657811E+02 -0.11378458625E+03  0.46383455085E+02  0.18282479697E+03  0.12499782665E+03 0.  0.
          2    1    1    2  501    0 -0.40621022906E+02  0.13449669613E+03 -0.31728452454E+03  0.34699985344E+03  0.00000000000E+00 0. -1.
          1    1    1    2  502    0 -0.11360634905E+02 -0.20712109886E+02  0.16749199532E+04  0.16750865366E+04  0.00000000000E+00 0. -1.
         22    1    3    3    0    0  0.25134666667E+02 -0.52808817274E+02  0.86974060203E+02  0.10480939747E+03  0.00000000000E+00 0. -1.
         22    1    3    3    0    0  0.26846991143E+02 -0.60975768975E+02 -0.40590605118E+02  0.78015399502E+02  0.00000000000E+00 0. -1.
</event>
<event>
 7    1  0.6262315E-006  0.1539850E+03  0.7818608E-02  0.1255353E+00
          2   -1    0    0  502    0  0.00000000000E+00  0.00000000000E+00  0.98300646061E+03  0.98300646061E+03  0.00000000000E+00 0. -1.
          1   -1    0    0  501    0 -0.00000000000E+00 -0.00000000000E+00 -0.10959145082E+04  0.10959145082E+04  0.00000000000E+00 0. -1.
         25    2    1    2    0    0  0.13683426382E+03 -0.10952438373E+02  0.61510288377E+02  0.19557978495E+03  0.12499746016E+03 0.  0.
          2    1    1    2  501    0  0.37894968001E+01  0.82640056082E+02 -0.10199012119E+04  0.10232508105E+04  0.00000000000E+00 0. -1.
          1    1    1    2  502    0 -0.14062376062E+03 -0.71687617709E+02  0.84548287601E+03  0.86009037328E+03  0.00000000000E+00 0. -1.
         22    1    3    3    0    0  0.61937075692E+02  0.54823919553E+02  0.98258918777E+01  0.83297128712E+02  0.00000000000E+00 0.  1.
         22    1    3    3    0    0  0.74897188125E+02 -0.65776357926E+02  0.51684396499E+02  0.11228265624E+03  0.00000000000E+00 0.  1.
</event>
<event>
 7    1  0.6262315E-006  0.5718776E+02  0.7818608E-02  0.1477046E+00
          2   -1    0    0  502    0  0.00000000000E+00  0.00000000000E+00  0.17908489070E+03  0.17908489070E+03  0.00000000000E+00 0. -1.
          1   -1    0    0  501    0 -0.00000000000E+00 -0.00000000000E+00 -0.77143150470E+03  0.77143150470E+03  0.00000000000E+00 0. -1.
         25    2    1    2    0    0 -0.90849664063E+02  0.33340349556E-01 -0.20668157238E+02  0.15589895230E+03  0.12499459201E+03 0.  0.
          2    1    1    2  501    0  0.56421311390E+02  0.45777101566E+01 -0.67923565806E+03  0.68159034544E+03  0.00000000000E+00 0. -1.
          1    1    1    2  502    0  0.34428352673E+02 -0.46110505062E+01  0.10755720130E+03  0.11302709766E+03  0.00000000000E+00 0. -1.
         22    1    3    3    0    0 -0.55376386057E+02 -0.16579762302E+02  0.49128469862E+02  0.75861974675E+02  0.00000000000E+00 0.  1.
         22    1    3    3    0    0 -0.35473278006E+02  0.16613102652E+02 -0.69796627099E+02  0.80036977620E+02  0.00000000000E+00 0.  1.
</event>
<event>
 7    1  0.6262315E-006  0.1127976E+03  0.7818608E-02  0.1405360E+00
          2   -1    0    0  502    0  0.00000000000E+00  0.00000000000E+00  0.19106756227E+04  0.19106756227E+04  0.00000000000E+00 0. -1.
          1   -1    0    0  501    0 -0.00000000000E+00 -0.00000000000E+00 -0.18171826120E+02  0.18171826120E+02  0.00000000000E+00 0. -1.
         25    2    1    2    0    0  0.95570484651E+02  0.68921505402E+02  0.14852897967E+04  0.14951887410E+04  0.12497879655E+03 0.  0.
          2    1    1    2  501    0 -0.71445070415E+02 -0.86875692875E+02  0.25813565796E+03  0.28157734641E+03  0.00000000000E+00 0. -1.
          1    1    1    2  502    0 -0.24125414236E+02  0.17954187473E+02  0.14907834190E+03  0.15208136140E+03  0.00000000000E+00 0. -1.
         22    1    3    3    0    0  0.47340662614E+02  0.48604833807E+01  0.11283352892E+04  0.11293384292E+04  0.00000000000E+00 0. -1.
         22    1    3    3    0    0  0.48229822037E+02  0.64061022021E+02  0.35695450743E+03  0.36585031181E+03  0.00000000000E+00 0. -1.
</event>
<event>
 7    1  0.6262315E-006  0.3644623E+02  0.7818608E-02  0.1614246E+00
          2   -1    0    0  502    0  0.00000000000E+00  0.00000000000E+00  0.68082329458E+02  0.68082329458E+02  0.00000000000E+00 0. -1.
          1   -1    0    0  501    0 -0.00000000000E+00 -0.00000000000E+00 -0.43600037005E+03  0.43600037005E+03  0.00000000000E+00 0. -1.
         25    2    1    2    0    0 -0.20968840883E+02  0.24177506886E+02 -0.14449297238E+03  0.19371894668E+03  0.12499826842E+03 0.  0.
          2    1    1    2  501    0 -0.15174611348E+02 -0.16509023609E+02 -0.25846906407E+03  0.25943992324E+03  0.00000000000E+00 0. -1.
          1    1    1    2  502    0  0.36143452231E+02 -0.76684832774E+01  0.35043995852E+02  0.50923829591E+02  0.00000000000E+00 0. -1.
         22    1    3    3    0    0 -0.73463801759E+02  0.94132418504E+01 -0.75298817868E+02  0.10561936974E+03  0.00000000000E+00 0. -1.
         22    1    3    3    0    0  0.52494960875E+02  0.14764265036E+02 -0.69194154510E+02  0.88099576944E+02  0.00000000000E+00 0. -1.
</event>
<event>
 7    1  0.6262315E-006  0.4122942E+02  0.7818608E-02  0.1561598E+00
          2   -1    0    0  502    0  0.00000000000E+00  0.00000000000E+00  0.11701171177E+04  0.11701171177E+04  0.00000000000E+00 0. -1.
          1   -1    0    0  501    0 -0.00000000000E+00 -0.00000000000E+00 -0.11395579464E+03  0.11395579464E+03  0.00000000000E+00 0. -1.
         25    2    1    2    0    0  0.22698218571E+02 -0.30890550963E+02  0.13740773337E+03  0.18967103025E+03  0.12499911704E+03 0.  0.
          2    1    1    2  501    0  0.25065430769E+01  0.41502078180E+02 -0.82706072884E+02  0.92568891877E+02  0.00000000000E+00 0. -1.
          1    1    1    2  502    0 -0.25204761647E+02 -0.10611527217E+02  0.10014596625E+04  0.10018329902E+04  0.00000000000E+00 0. -1.
         22    1    3    3    0    0  0.27308523551E+02 -0.57075258201E+02  0.15832826004E+02  0.65222840605E+02  0.00000000000E+00 0. -1.
         22    1    3    3    0    0 -0.46103049809E+01  0.26184707238E+02  0.12157490736E+03  0.12444818964E+03  0.00000000000E+00 0. -1.
</event>
<event>
 7    1  0.6262315E-006  0.2410014E+03  0.7818608E-02  0.1189109E+00
          2   -1    0    0  502    0  0.00000000000E+00  0.00000000000E+00  0.12791519542E+04  0.12791519542E+04  0.00000000000E+00 0. -1.
          1   -1    0    0  501    0 -0.00000000000E+00 -0.00000000000E+00 -0.49477100758E+03  0.49477100758E+03  0.00000000000E+00 0. -1.
         25    2    1    2    0    0 -0.16218475998E+03 -0.21876374835E+03 -0.17413425983E+02  0.30014809116E+03  0.12499670102E+03 0.  0.
          2    1    1    2  501    0  0.56980983019E+02  0.22940316071E+03 -0.29154845417E+03  0.37533071244E+03  0.00000000000E+00 0. -1.
          1    1    1    2  502    0  0.10520377696E+03 -0.10639412366E+02  0.10933428268E+04  0.10984441582E+04  0.00000000000E+00 0. -1.
         22    1    3    3    0    0  0.49664067058E+01  0.35600474683E+01 -0.21106913051E+02  0.21973641302E+02  0.00000000000E+00 0. -1.
         22    1    3    3    0    0 -0.16715116668E+03 -0.22232379582E+03  0.36934870679E+01  0.27817444986E+03  0.00000000000E+00 0. -1.
</event>
<event>
 7    1  0.6262315E-006  0.6758780E+02  0.7818608E-02  0.1391903E+00
          2   -1    0    0  502    0  0.00000000000E+00  0.00000000000E+00  0.10156394571E+04  0.10156394571E+04  0.00000000000E+00 0. -1.
          1   -1    0    0  501    0 -0.00000000000E+00 -0.00000000000E+00 -0.11563328191E+04  0.11563328191E+04  0.00000000000E+00 0. -1.
         25    2    1    2    0    0 -0.71732216183E+01  0.11717047469E+03  0.15587528251E+03  0.23173642931E+03  0.12499717487E+03 0.  0.
          2    1    1    2  501    0 -0.14604833388E+02 -0.65748121001E+02 -0.11164375847E+04  0.11184672535E+04  0.00000000000E+00 0. -1.
          1    1    1    2  502    0  0.21778055006E+02 -0.51422353693E+02  0.81986894020E+03  0.82176859348E+03  0.00000000000E+00 0. -1.
         22    1    3    3    0    0 -0.49466619105E+02  0.73993069999E+02  0.14527693322E+03  0.17037402425E+03  0.00000000000E+00 0. -1.
         22    1    3    3    0    0  0.42293397486E+02  0.43177404694E+02  0.10598349287E+02  0.61362405059E+02  0.00000000000E+00 0. -1.
</event>
<event>
 7    1  0.6310864E-006  0.4579797E+02  0.7818608E-02  0.1529932E+00
          2   -1    0    0  502    0  0.00000000000E+00  0.00000000000E+00  0.26202968402E+04  0.26202968402E+04  0.00000000000E+00 0. -1.
          1   -1    0    0  501    0 -0.00000000000E+00 -0.00000000000E+00 -0.82188760817E+03  0.82188760817E+03  0.00000000000E+00 0. -1.
         25    2    1    2    0    0  0.57125983779E+02 -0.49116324855E+02 -0.19599105802E+03  0.24436123711E+03  0.12499651189E+03 0.  0.
          2    1    1    2  501    0 -0.25753176946E+02  0.15788295029E+02 -0.60113043352E+03  0.60188893867E+03  0.00000000000E+00 0. -1.
          1    1    1    2  502    0 -0.31372806833E+02  0.33328029826E+02  0.25955307235E+04  0.25959342725E+04  0.00000000000E+00 0. -1.
         22    1    3    3    0    0  0.69287725745E+02  0.22622982351E+02 -0.10583748326E+03  0.12850743610E+03  0.00000000000E+00 0. -1.
         22    1    3    3    0    0 -0.12161741966E+02 -0.71739307206E+02 -0.90153574760E+02  0.11585380101E+03  0.00000000000E+00 0. -1.
</event>
<event>
 7    1  0.6262315E-006  0.2081054E+03  0.7818608E-02  0.1172254E+00
          2   -1    0    0  502    0  0.00000000000E+00  0.00000000000E+00  0.48245425410E+03  0.48245425410E+03  0.00000000000E+00 0. -1.
          1   -1    0    0  501    0 -0.00000000000E+00 -0.00000000000E+00 -0.28582804849E+04  0.28582804849E+04  0.00000000000E+00 0. -1.
         25    2    1    2    0    0 -0.84725257242E+02 -0.82819241050E+01  0.39476741275E+02  0.15629287601E+03  0.12498836150E+03 0.  0.
          2    1    1    2  501    0  0.19237104953E+03 -0.93234841655E+02 -0.27813851037E+04  0.27895882225E+04  0.00000000000E+00 0. -1.
          1    1    1    2  502    0 -0.10764579229E+03  0.10151676576E+03  0.36608213158E+03  0.39485364046E+03  0.00000000000E+00 0. -1.
         22    1    3    3    0    0 -0.14351132976E+02  0.29823359955E+02 -0.34144054657E+02  0.47552121773E+02  0.00000000000E+00 0.  1.
         22    1    3    3    0    0 -0.70374124266E+02 -0.38105284060E+02  0.73620795932E+02  0.10874075424E+03  0.00000000000E+00 0.  1.
</event>
<event>
 7    1  0.6262315E-006  0.7962440E+02  0.7818608E-02  0.1366771E+00
          2   -1    0    0  502    0  0.00000000000E+00  0.00000000000E+00  0.61814147097E+03  0.61814147097E+03  0.00000000000E+00 0. -1.
          1   -1    0    0  501    0 -0.00000000000E+00 -0.00000000000E+00 -0.27588938513E+03  0.27588938513E+03  0.00000000000E+00 0. -1.
         25    2    1    2    0    0  0.62969315380E+02 -0.34155727556E+02  0.66700448248E+02  0.15876347112E+03  0.12500056624E+03 0.  0.
          2    1    1    2  501    0  0.15609854069E+02  0.56065044611E+02 -0.22280393393E+03  0.23027928640E+03  0.00000000000E+00 0. -1.
          1    1    1    2  502    0 -0.78579169450E+02 -0.21909317056E+02  0.49835557152E+03  0.50498809858E+03  0.00000000000E+00 0. -1.
         22    1    3    3    0    0 -0.26749836686E+02 -0.41999563350E+02  0.42606294815E+02  0.65534826178E+02  0.00000000000E+00 0.  1.
         22    1    3    3    0    0  0.89719152066E+02  0.78438357942E+01  0.24094153432E+02  0.93228644939E+02  0.00000000000E+00 0.  1.
</event>
