<LesHouchesEvents version="3.0">
<header>
<!--
#*********************************************************************
#                                                                    *
#                        MadGraph5_aMC@NLO                           *
#                                                                    *
#                           Going Beyond                             *
#                                                                    *
#                   http://madgraph.hep.uiuc.edu                     *
#                   http://madgraph.phys.ucl.ac.be                   *
#                   http://amcatnlo.cern.ch                          *
#                                                                    *
#                     The MadGraph5_aMC@NLO team                     *
#                                                                    *
#....................................................................*
#                                                                    *
# This file contains all the information necessary to reproduce      *
# the events generated:                                              *
#                                                                    *
# 1. software version                                                *
# 2. proc_card          : code generation info including model       *
# 3. param_card         : model primary parameters in the LH format  *
# 4. run_card           : running parameters (collider and cuts)     *
# 5. pythia_card        : present only if pythia has been run        *
# 6. pgs_card           : present only if pgs has been run           *
# 7. delphes_cards      : present only if delphes has been run       *
#                                                                    *
#                                                                    *
#*********************************************************************
-->
<MGVersion>
3.5.3
</MGVersion>
<MG5ProcCard>
<![CDATA[
#************************************************************
#*                     MadGraph5_aMC@NLO                    *
#*                                                          *
#*                *                       *                 *
#*                  *        * *        *                   *
#*                    * * * * 5 * * * *                     *
#*                  *        * *        *                   *
#*                *                       *                 *
#*                                                          *
#*                                                          *
#*         VERSION 3.5.3                 2023-12-23         *
#*                                                          *
#*    The MadGraph5_aMC@NLO Development Team - Find us at   *
#*    https://server06.fynu.ucl.ac.be/projects/madgraph     *
#*                                                          *
#************************************************************
#*                                                          *
#*               Command File for MadGraph5_aMC@NLO         *
#*                                                          *
#*     run as ./bin/mg5_aMC  filename                       *
#*                                                          *
#************************************************************
set group_subprocesses Auto
set ignore_six_quark_processes False
set low_mem_multicore_nlo_generation False
set complex_mass_scheme False
set include_lepton_initiated_processes False
set gauge unitary
set loop_optimized_output True
set loop_color_flows False
set max_npoint_for_channel 0
set default_unset_couplings 99
set max_t_for_channel 99
set zerowidth_tchannel True
set nlo_mixed_expansion True
import model EWdim6-full
define p = g u c d s u~ c~ d~ s~
define j = g u c d s u~ c~ d~ s~
define l+ = e+ mu+
define l- = e- mu-
define vl = ve vm vt
define vl~ = ve~ vm~ vt~
generate u d > u d h / a z QCD=0 QED=99 NP=2, h > a a QCD=0 QED=99 NP=\
0
output ./mg_processes/signal_3
]]>
</MG5ProcCard>
<MGProcCard>
#*********************************************************************
#                        MadGraph/MadEvent                           *
#                   http://madgraph.hep.uiuc.edu                     *
#                                                                    *
#                          proc_card.dat                             *
#*********************************************************************
#                                                                    *
#            This Files is generated by MADGRAPH 5                   *
#                                                                    *
# WARNING: This Files is generated for MADEVENT (compatibility issue)*
#          This files is NOT a valid MG4 proc_card.dat               *
#          Running this in MG4 will NEVER reproduce the result of MG5*
#                                                                    *
#*********************************************************************
#*********************************************************************
# Process(es) requested : mg2 input                                  *
#*********************************************************************
# Begin PROCESS # This is TAG. Do not modify this line
u d > u d h / a z , h > a a           #Process
# Be carefull the coupling are here in MG5 convention
QCD=0
QED=99
NP=2
QCD=0
QED=99
NP=0
          
end_coup           # End the couplings input

done               # this tells MG there are no more procs
# End PROCESS  # This is TAG. Do not modify this line
#*********************************************************************
# Model information                                                  *
#*********************************************************************
# Begin MODEL  # This is TAG. Do not modify this line
EWdim6-full
# End   MODEL  # This is TAG. Do not modify this line
#*********************************************************************
# Start multiparticle definitions                                    *
#*********************************************************************
# Begin MULTIPARTICLES # This is TAG. Do not modify this line

# End  MULTIPARTICLES # This is TAG. Do not modify this line
</MGProcCard>
<MGRunCard>
<![CDATA[
#*********************************************************************
#                       MadGraph5_aMC@NLO                            *
#                                                                    *
#                     run_card.dat MadEvent                          *
#                                                                    *
#  This file is used to set the parameters of the run.               *
#                                                                    *
#  Some notation/conventions:                                        *
#                                                                    *
#   Lines starting with a '# ' are info or comments                  *
#                                                                    *
#   mind the format:   value    = variable     ! comment             *
#                                                                    *
#   To display more options, you can type the command:               *
#      update full_run_card                                          *
#*********************************************************************


#*******************************
# Running parameters           *
#*******************************

#*********************************************************************
# Tag name for the run (one word)                                    *
#*********************************************************************
  tag_1    = run_tag         ! name of the run

#*********************************************************************
# Number of events and rnd seed                                      *
# Warning: Do not generate more than 1M events in a single run       *
# If you want to run Pythia, avoid more than 50k events in a run.    *
#*********************************************************************
  100  = nevents          ! Number of unweighted events requested
 21 = iseed            ! rnd seed (0=assigned automatically=default)

#*********************************************************************
# Collider type and energy                                           *
# lpp: 0=No PDF, 1=proton, -1=antiproton, 2=photon from proton,      *
#                                         3=photon from electron     *
#*********************************************************************
     1    = lpp1             ! beam 1 type
     1    = lpp2             ! beam 2 type
  6500.0  = ebeam1           ! beam 1 total energy in GeV
  6500.0  = ebeam2           ! beam 2 total energy in GeV

#*********************************************************************
# PDF CHOICE: this automatically fixes also alpha_s and its evol.    *
#*********************************************************************
  nn23lo1 = pdlabel          ! PDF set
  230000  = lhaid            ! if pdlabel=lhapdf, this is the lhapdf number

#*********************************************************************
# Renormalization and factorization scales                           *
#*********************************************************************
   False  = fixed_ren_scale  ! if .true. use fixed ren scale
   False  = fixed_fac_scale  ! if .true. use fixed fac scale
  91.188  = scale            ! fixed ren scale
  91.188  = dsqrt_q2fact1    ! fixed fact scale for pdf1
  91.188  = dsqrt_q2fact2    ! fixed fact scale for pdf2
  -1      = dynamical_scale_choice ! Choose one of the preselected dynamical choices
   1.0    = scalefact        ! scale factor for event-by-event scales

#*********************************************************************
# Type and output format                                             *
#*********************************************************************
  False   = gridpack         ! True = setting up the grid pack
  -1.0    = time_of_flight   ! threshold (in mm) below which the invariant lifetime is not written (-1 means not written)
   3.0    = lhe_version      ! Change the way clustering information pass to shower.
  True    = clusinfo         ! include clustering tag in output
   sum    = event_norm       ! average/sum. Normalization of the weight in the LHEF

#*********************************************************************
# Matching parameter (MLM only)                                      *
#*********************************************************************
  0       = ickkw            ! 0 no matching, 1 MLM
  1.0     = alpsfact         ! scale factor for QCD emission vx
  False   = chcluster        ! cluster only according to channel diag
  4       = asrwgtflavor     ! highest quark flavor for a_s reweight
  False   = auto_ptj_mjj     ! Automatic setting of ptj and mjj if xqcut >0 (turn off for VBF and single top processes)
  0.0     = xqcut            ! minimum kt jet measure between partons

#*********************************************************************
# handling of the helicities:                                        *
#  0: sum over all helicities                                        *
#  1: importance sampling over helicities                            *
#*********************************************************************
  0       = nhel             ! using helicities importance sampling or not.

#*********************************************************************
# Generation bias, check the wiki page below for more information:   *
#  'cp3.irmp.ucl.ac.be/projects/madgraph/wiki/LOEventGenerationBias' *
#*********************************************************************
  None    = bias_module      ! Bias type of bias, [None, ptj_bias, -custom_folder-]
  {}      = bias_parameters  ! Specifies the parameters of the module.


#*******************************
# Parton level cuts definition *
#*******************************

#*********************************************************************
# BW cutoff. Define on/off-shell for "$" and decay                   *
#*********************************************************************
  15.0    = bwcutoff         ! (M+/-bwcutoff*Gamma)

#*********************************************************************
# Apply pt/E/eta/dr/mij/kt_durham cuts on decay products or not
# (note that etmiss/ptll/ptheavy/ht/sorted cuts always apply)
#*********************************************************************
   False  = cut_decays       ! Cut decay products

#*********************************************************************
# Standard Cuts                                                      *
#*********************************************************************
# Minimum and maximum pt's (for max, -1 means no cut)                *
#*********************************************************************
  20.0    = ptj              ! minimum pt for the jets
   0.0    = ptb              ! minimum pt for the b
  10.0    = pta              ! minimum pt for the photons
  10.0    = ptl              ! minimum pt for the charged leptons
   0.0    = misset           ! minimum missing Et (sum of neutrino's momenta)
  -1.0    = ptjmax           ! maximum pt for the jets
  -1.0    = ptbmax           ! maximum pt for the b
  -1.0    = ptamax           ! maximum pt for the photons
  -1.0    = ptlmax           ! maximum pt for the charged leptons
  -1.0    = missetmax        ! maximum missing Et (sum of neutrino's momenta)
   {}     = pt_min_pdg       ! pt cut for other particles (use pdg code). Applied on particle and anti-particle
   {}	  = pt_max_pdg       ! pt cut for other particles (syntax e.g. {6: 100, 25: 50})

#*********************************************************************
# Minimum and maximum E's (in the center of mass frame)              *
#*********************************************************************
   0.0    = ej               ! minimum E for the jets
   0.0    = eb               ! minimum E for the b
   0.0    = ea               ! minimum E for the photons
   0.0    = el               ! minimum E for the charged leptons
  -1.0    = ejmax            ! maximum E for the jets
  -1.0    = ebmax            ! maximum E for the b
  -1.0    = eamax            ! maximum E for the photons
  -1.0    = elmax            ! maximum E for the charged leptons
    {}    = e_min_pdg        ! E cut for other particles (use pdg code). Applied on particle and anti-particle
    {}    = e_max_pdg        ! E cut for other particles (syntax e.g. {6: 100, 25: 50})

#*********************************************************************
# Maximum and minimum absolute rapidity (for max, -1 means no cut)   *
#*********************************************************************
   5.0    = etaj             ! max rap for the jets
  -1.0    = etab             ! max rap for the b
   2.5    = etaa             ! max rap for the photons
   2.5    = etal             ! max rap for the charged leptons
   0.0    = etajmin          ! min rap for the jets
   0.0    = etabmin          ! min rap for the b
   0.0    = etaamin          ! min rap for the photons
   0.0    = etalmin          ! main rap for the charged leptons
    {}    = eta_min_pdg      ! rap cut for other particles (use pdg code). Applied on particle and anti-particle
    {}    = eta_max_pdg      ! rap cut for other particles (syntax e.g. {6: 2.5, 23: 5})

#*********************************************************************
# Minimum and maximum DeltaR distance                                *
#*********************************************************************
   0.4    = drjj             ! min distance between jets
   0.0    = drbb             ! min distance between b's
   0.4    = drll             ! min distance between leptons
   0.4    = draa             ! min distance between gammas
   0.0    = drbj             ! min distance between b and jet
   0.4    = draj             ! min distance between gamma and jet
   0.4    = drjl             ! min distance between jet and lepton
   0.0    = drab             ! min distance between gamma and b
   0.0    = drbl             ! min distance between b and lepton
   0.4    = dral             ! min distance between gamma and lepton
  -1.0    = drjjmax          ! max distance between jets
  -1.0    = drbbmax          ! max distance between b's
  -1.0    = drllmax          ! max distance between leptons
  -1.0    = draamax          ! max distance between gammas
  -1.0    = drbjmax          ! max distance between b and jet
  -1.0    = drajmax          ! max distance between gamma and jet
  -1.0    = drjlmax          ! max distance between jet and lepton
  -1.0    = drabmax          ! max distance between gamma and b
  -1.0    = drblmax          ! max distance between b and lepton
  -1.0    = dralmax          ! max distance between gamma and lepton

#*********************************************************************
# Minimum and maximum invariant mass for pairs                       *
# WARNING: for four lepton final state mmll cut require to have      *
#          different lepton masses for each flavor!                  *
#*********************************************************************
    0.0   = mmjj             ! min invariant mass of a jet pair
    0.0   = mmbb             ! min invariant mass of a b pair
  120.0   = mmaa             ! min invariant mass of gamma gamma pair
    0.0   = mmll             ! min invariant mass of l+l- (same flavour) lepton pair
   -1.0   = mmjjmax          ! max invariant mass of a jet pair
   -1.0   = mmbbmax          ! max invariant mass of a b pair
  130.0   = mmaamax          ! max invariant mass of gamma gamma pair
   -1.0   = mmllmax          ! max invariant mass of l+l- (same flavour) lepton pair
     {}   = mxx_min_pdg      ! min invariant mass of a pair of particles X/X~ (e.g. {6:250})
  {'default': False} = mxx_only_part_antipart ! if True the invariant mass is applied only
                                              ! to pairs of particle/antiparticle and not to pairs of the same pdg codes.

#*********************************************************************
# Minimum and maximum invariant mass for all leptons                 *
#*********************************************************************
   0.0    = mmnl             ! min invariant mass for all leptons (l+- and vl)
  -1.0    = mmnlmax          ! max invariant mass for all leptons (l+- and vl)

#*********************************************************************
# Minimum and maximum pt for 4-momenta sum of leptons                *
#*********************************************************************
   0.0    = ptllmin          ! Minimum pt for 4-momenta sum of leptons(l and vl)
  -1.0    = ptllmax          ! Maximum pt for 4-momenta sum of leptons(l and vl)

#*********************************************************************
# Inclusive cuts                                                     *
#*********************************************************************
   0.0    = ptheavy          ! minimum pt for at least one heavy final state
   0.0    = xptj             ! minimum pt for at least one jet
   0.0    = xptb             ! minimum pt for at least one b
   0.0    = xpta             ! minimum pt for at least one photon
   0.0    = xptl             ! minimum pt for at least one charged lepton

#*********************************************************************
# Control the pt's of the jets sorted by pt                          *
#*********************************************************************
   0.0    = ptj1min          ! minimum pt for the leading jet in pt
   0.0    = ptj2min          ! minimum pt for the second jet in pt
   0.0    = ptj3min          ! minimum pt for the third jet in pt
   0.0    = ptj4min          ! minimum pt for the fourth jet in pt
  -1.0    = ptj1max          ! maximum pt for the leading jet in pt
  -1.0    = ptj2max          ! maximum pt for the second jet in pt
  -1.0    = ptj3max          ! maximum pt for the third jet in pt
  -1.0    = ptj4max          ! maximum pt for the fourth jet in pt
   0      = cutuse           ! reject event if fails any (0) / all (1) jet pt cuts

#*********************************************************************
# Control the pt's of leptons sorted by pt                           *
#*********************************************************************
   0.0    = ptl1min          ! minimum pt for the leading lepton in pt
   0.0    = ptl2min          ! minimum pt for the second lepton in pt
   0.0    = ptl3min          ! minimum pt for the third lepton in pt
   0.0    = ptl4min          ! minimum pt for the fourth lepton in pt
  -1.0    = ptl1max          ! maximum pt for the leading lepton in pt
  -1.0    = ptl2max          ! maximum pt for the second lepton in pt
  -1.0    = ptl3max          ! maximum pt for the third lepton in pt
  -1.0    = ptl4max          ! maximum pt for the fourth lepton in pt

#*********************************************************************
# Control the Ht(k)=Sum of k leading jets                            *
#*********************************************************************
   0.0    = htjmin           ! minimum jet HT=Sum(jet pt)
  -1.0    = htjmax           ! maximum jet HT=Sum(jet pt)
   0.0    = ihtmin           ! inclusive Ht for all partons (including b)
  -1.0    = ihtmax           ! inclusive Ht for all partons (including b)
   0.0    = ht2min           ! minimum Ht for the two leading jets
   0.0    = ht3min           ! minimum Ht for the three leading jets
   0.0    = ht4min           ! minimum Ht for the four leading jets
  -1.0    = ht2max           ! maximum Ht for the two leading jets
  -1.0    = ht3max           ! maximum Ht for the three leading jets
  -1.0    = ht4max           ! maximum Ht for the four leading jets

#*********************************************************************
# Photon-isolation cuts, according to hep-ph/9801442                 *
# When ptgmin=0, all the other parameters are ignored                *
# When ptgmin>0, pta and draj are not going to be used               *
#*********************************************************************
   0.0    = ptgmin           ! Min photon transverse momentum
   0.4    = R0gamma          ! Radius of isolation code
   1.0    = xn               ! n parameter of eq.(3.4) in hep-ph/9801442
   1.0    = epsgamma         ! epsilon_gamma parameter of eq.(3.4) in hep-ph/9801442
  True    = isoEM            ! isolate photons from EM energy (photons and leptons)

#*********************************************************************
# WBF cuts                                                           *
#*********************************************************************
   0.0    = xetamin          ! minimum rapidity for two jets in the WBF case
   0.0    = deltaeta         ! minimum rapidity for two jets in the WBF case

#*********************************************************************
# Turn on either the ktdurham or ptlund cut to activate              *
# CKKW(L) merging with Pythia8 [arXiv:1410.3012, arXiv:1109.4829]    *
#*********************************************************************
  -1.0    = ktdurham
   0.4    = dparameter
  -1.0    = ptlund
   1, 2, 3, 4, 5, 6, 21 = pdgs_for_merging_cut ! PDGs for two cuts above

#*********************************************************************
# maximal pdg code for quark to be considered as a light jet         *
# (otherwise b cuts are applied)                                     *
#*********************************************************************
  4       = maxjetflavor     ! Maximum jet pdg code

#*********************************************************************
# Store info for systematics studies                                 *
# WARNING: Do not use for interference type of computation           *
#*********************************************************************
#         False = use_syst              ! Enable systematics studies # Commented out by MadMiner
#   systematics = systematics_program   ! none, systematics [python], SysCalc [deprecated, C++] # Commented out by MadMiner
#   ['--mur=0.5,1,2', '--muf=0.5,1,2', '--pdf=errorset'] = systematics_arguments ! see: https://cp3.irmp.ucl.ac.be/projects/madgraph/wiki/Systematics#Systematicspythonmodule # Commented out by MadMiner


#*********************************************************************
# MadMiner systematics setup                                         *
#*********************************************************************
False = use_syst
]]>
</MGRunCard>
<slha>
######################################################################
## PARAM_CARD AUTOMATICALY GENERATED BY MG5                       ####
######################################################################
###################################
## INFORMATION FOR DIM6
###################################
BLOCK DIM6 # 
      1 0.000000e+00 # cwwwl2
      2 -1.307460e+00 # madminer
      3 0.000000e+00 # cbl2
      4 0.000000e+00 # cpwwwl2
      5 1.197328e+00 # madminer
      6 0.000000e+00 # cphidl2
      7 0.000000e+00 # cphiwl2
      8 0.000000e+00 # cphibl2
###################################
## INFORMATION FOR MASS
###################################
BLOCK MASS # 
      4 1.270000e+00 # mc
      5 4.700000e+00 # mb
      6 1.720000e+02 # mt
      13 1.056600e-01 # mm
      15 1.777000e+00 # mta
      23 9.118760e+01 # mz
      25 1.250000e+02 # mh
      9000006 1.250000e+02 # mp
      1 0.000000e+00 # d : 0.0
      2 0.000000e+00 # u : 0.0
      3 0.000000e+00 # s : 0.0
      11 0.000000e+00 # e- : 0.0
      12 0.000000e+00 # ve : 0.0
      14 0.000000e+00 # vm : 0.0
      16 0.000000e+00 # vt : 0.0
      21 0.000000e+00 # g : 0.0
      22 0.000000e+00 # a : 0.0
      24 7.982436e+01 # w+ : cmath.sqrt(mz__exp__2/2. + cmath.sqrt(mz__exp__4/4. - (aew*cmath.pi*mz__exp__2)/(gf*sqrt__2)))
###################################
## INFORMATION FOR SMINPUTS
###################################
BLOCK SMINPUTS # 
      1 1.279000e+02 # aewm1
      2 1.166370e-05 # gf
      3 1.300000e-01 # as
###################################
## INFORMATION FOR WOLFENSTEIN
###################################
BLOCK WOLFENSTEIN # 
      1 0.000000e+00 # lamws
      2 0.000000e+00 # aws
      3 0.000000e+00 # rhows
      4 0.000000e+00 # etaws
###################################
## INFORMATION FOR YUKAWA
###################################
BLOCK YUKAWA # 
      4 1.270000e+00 # ymc
      5 4.700000e+00 # ymb
      6 1.720000e+02 # ymt
      13 1.056600e-01 # ymm
      15 1.777000e+00 # ymtau
###################################
## INFORMATION FOR DECAY
###################################
DECAY 6 1.508336e+00 # wt
DECAY 15 2.270000e-12 # wtau
DECAY 23 2.495200e+00 # wz
DECAY 24 2.085000e+00 # ww
DECAY 25 4.070000e-03 # wh
DECAY 9000006 4.070000e-03 # wh1
DECAY 1 0.000000e+00 # d : 0.0
DECAY 2 0.000000e+00 # u : 0.0
DECAY 3 0.000000e+00 # s : 0.0
DECAY 4 0.000000e+00 # c : 0.0
DECAY 5 0.000000e+00 # b : 0.0
DECAY 11 0.000000e+00 # e- : 0.0
DECAY 12 0.000000e+00 # ve : 0.0
DECAY 13 0.000000e+00 # mu- : 0.0
DECAY 14 0.000000e+00 # vm : 0.0
DECAY 16 0.000000e+00 # vt : 0.0
DECAY 21 0.000000e+00 # g : 0.0
DECAY 22 0.000000e+00 # a : 0.0
###################################
## INFORMATION FOR QNUMBERS 9000006
###################################
BLOCK QNUMBERS 9000006 #  h1
      1 0 # 3 times electric charge
      2 1 # number of spin states (2s+1)
      3 1 # colour rep (1: singlet, 3: triplet, 8: octet)
      4 0 # particle/antiparticle distinction (0=own anti)
</slha>
<initrwgt>
<weightgroup name='mg_reweighting' weight_name_strategy='includeIdInWeightName'>
<weight id='SM'>set param_card dim6 2 0.0 # orig: -1.30746
set param_card dim6 5 0.0 # orig: 1.197328
</weight>
<weight id='morphing_basis_vector_1'>set param_card dim6 2 1.617186 # orig: -1.30746
set param_card dim6 5 -0.2203044 # orig: 1.197328
</weight>
<weight id='morphing_basis_vector_2'>set param_card dim6 2 -1.412419 # orig: -1.30746
set param_card dim6 5 -1.041613 # orig: 1.197328
</weight>
<weight id='morphing_basis_vector_4'>set param_card dim6 2 0.5652848 # orig: -1.30746
set param_card dim6 5 -1.575672 # orig: 1.197328
</weight>
<weight id='morphing_basis_vector_5'>set param_card dim6 2 0.8622004 # orig: -1.30746
set param_card dim6 5 1.494319 # orig: 1.197328
</weight>
</weightgroup>
</initrwgt>
<MGGenerationInfo>
#  Number of Events        :       100
#  Integrated weight (pb)  :       0.0010054
</MGGenerationInfo>
</header>
<init>
2212 2212 6.500000e+03 6.500000e+03 0 0 247000 247000 -3 1
1.005400e-03 3.269700e-05 1.005400e-05 1
<generator name='MadGraph5_aMC@NLO' version='3.5.3'>please cite 1405.0301 </generator>
</init>
<event>
 7      1 +1.0054000e-05 8.51487200e+01 7.81860800e-03 1.33935800e-01
        2 -1    0    0  502    0 +0.0000000000e+00 +0.0000000000e+00 +4.9927994058e+02 4.9927994058e+02 0.0000000000e+00 0.0000e+00 -1.0000e+00
        1 -1    0    0  501    0 -0.0000000000e+00 -0.0000000000e+00 -1.5123135955e+03 1.5123135955e+03 0.0000000000e+00 0.0000e+00 -1.0000e+00
       25  2    1    2    0    0 +1.2194487398e+01 -1.4519083247e+01 -3.8035305179e+02 4.0081415653e+02 1.2499613901e+02 0.0000e+00 0.0000e+00
        2  1    1    2  501    0 +1.3472991337e+01 -6.7353658343e+01 -1.1169033925e+03 1.1190135053e+03 0.0000000000e+00 0.0000e+00 -1.0000e+00
        1  1    1    2  502    0 -2.5667478735e+01 +8.1872741590e+01 +4.8422278942e+02 4.9176587424e+02 0.0000000000e+00 0.0000e+00 -1.0000e+00
       22  1    3    3    0    0 +6.5155630505e+00 +5.5317655246e+01 -1.8897634955e+02 1.9701410161e+02 0.0000000000e+00 0.0000e+00 -1.0000e+00
       22  1    3    3    0    0 +5.6789243477e+00 -6.9836738493e+01 -1.9137670224e+02 2.0380005492e+02 0.0000000000e+00 0.0000e+00 -1.0000e+00
<rwgt>
<wgt id='SM'> +1.0018879e-05 </wgt>
<wgt id='morphing_basis_vector_1'> +1.0013145e-05 </wgt>
<wgt id='morphing_basis_vector_2'> +9.9871908e-06 </wgt>
<wgt id='morphing_basis_vector_4'> +9.9723954e-06 </wgt>
<wgt id='morphing_basis_vector_5'> +1.0064001e-05 </wgt>
</rwgt>
</event>
<event>
 7      1 +1.0054000e-05 6.28751300e+01 7.81860800e-03 1.40456700e-01
        2 -1    0    0  502    0 +0.0000000000e+00 +0.0000000000e+00 +1.2436854979e+03 1.2436854979e+03 0.0000000000e+00 0.0000e+00 -1.0000e+00
        1 -1    0    0  501    0 -0.0000000000e+00 -0.0000000000e+00 -5.5164170073e+02 5.5164170073e+02 0.0000000000e+00 0.0000e+00 -1.0000e+00
       25  2    1    2    0    0 +3.0944376474e+01 -2.6168760859e+01 -3.3743772885e+01 1.3567428346e+02 1.2500604187e+02 0.0000e+00 0.0000e+00
        2  1    1    2  501    0 -6.1978782726e+01 -1.8373994948e+01 -4.6407333433e+02 4.6855419413e+02 0.0000000000e+00 0.0000e+00 -1.0000e+00
        1  1    1    2  502    0 +3.1034406251e+01 +4.4542755808e+01 +1.1898609044e+03 1.1910987210e+03 0.0000000000e+00 0.0000e+00 -1.0000e+00
       22  1    3    3    0    0 +7.6599707363e+01 -1.0188026180e+01 -1.0334893547e+00 7.7281169413e+01 0.0000000000e+00 0.0000e+00 -1.0000e+00
       22  1    3    3    0    0 -4.5655330889e+01 -1.5980734679e+01 -3.2710283530e+01 5.8393114047e+01 0.0000000000e+00 0.0000e+00 -1.0000e+00
<rwgt>
<wgt id='SM'> +9.9129185e-06 </wgt>
<wgt id='morphing_basis_vector_1'> +9.8613593e-06 </wgt>
<wgt id='morphing_basis_vector_2'> +9.8384928e-06 </wgt>
<wgt id='morphing_basis_vector_4'> +9.7502373e-06 </wgt>
<wgt id='morphing_basis_vector_5'> +1.0042104e-05 </wgt>
</rwgt>
</event>
<event>
 7      1 +1.0054000e-05 9.33810300e+01 7.81860800e-03 1.38901800e-01
        2 -1    0    0  502    0 +0.0000000000e+00 +0.0000000000e+00 +3.8602923076e+02 3.8602923076e+02 0.0000000000e+00 0.0000e+00 -1.0000e+00
        1 -1    0    0  501    0 -0.0000000000e+00 -0.0000000000e+00 -7.0172607374e+02 7.0172607374e+02 0.0000000000e+00 0.0000e+00 -1.0000e+00
       25  2    1    2    0    0 +5.7597573676e+01 +1.0221364639e+01 +8.8193768533e+01 1.6378301008e+02 1.2499910718e+02 0.0000e+00 0.0000e+00
        2  1    1    2  501    0 -8.4821422223e+01 -4.1366560955e+01 -6.5890291964e+02 6.6562671486e+02 0.0000000000e+00 0.0000e+00 -1.0000e+00
        1  1    1    2  502    0 +2.7223848547e+01 +3.1145196315e+01 +2.5501230812e+02 2.5834557955e+02 0.0000000000e+00 0.0000e+00 -1.0000e+00
       22  1    3    3    0    0 +1.8203462395e+01 +9.4930743037e+00 -3.1595829090e+01 3.7679980345e+01 0.0000000000e+00 0.0000e+00 -1.0000e+00
       22  1    3    3    0    0 +3.9394111281e+01 +7.2829033549e-01 +1.1978959762e+02 1.2610302974e+02 0.0000000000e+00 0.0000e+00 -1.0000e+00
<rwgt>
<wgt id='SM'> +9.9258596e-06 </wgt>
<wgt id='morphing_basis_vector_1'> +9.8658313e-06 </wgt>
<wgt id='morphing_basis_vector_2'> +9.8827752e-06 </wgt>
<wgt id='morphing_basis_vector_4'> +9.7892465e-06 </wgt>
<wgt id='morphing_basis_vector_5'> +1.0019053e-05 </wgt>
</rwgt>
</event>
<event>
 7      1 +1.0054000e-05 1.34721100e+02 7.81860800e-03 1.40593500e-01
        2 -1    0    0  502    0 +0.0000000000e+00 +0.0000000000e+00 +2.1271155548e+02 2.1271155548e+02 0.0000000000e+00 0.0000e+00 -1.0000e+00
        1 -1    0    0  501    0 -0.0000000000e+00 -0.0000000000e+00 -8.8803625598e+02 8.8803625598e+02 0.0000000000e+00 0.0000e+00 -1.0000e+00
       25  2    1    2    0    0 -9.0775535341e+01 +1.0488287357e+02 -3.0646049459e+02 3.5886286071e+02 1.2499561221e+02 0.0000e+00 0.0000e+00
        2  1    1    2  501    0 +2.2481022942e+01 +1.1085662615e+01 -5.3076164481e+02 5.3135318942e+02 0.0000000000e+00 0.0000e+00 -1.0000e+00
        1  1    1    2  502    0 +6.8294512399e+01 -1.1596853618e+02 +1.6189743889e+02 2.1053176133e+02 0.0000000000e+00 0.0000e+00 -1.0000e+00
       22  1    3    3    0    0 -3.8712806989e+01 +1.3617972602e+01 -2.1706017504e+02 2.2090552323e+02 0.0000000000e+00 0.0000e+00 1.0000e+00
       22  1    3    3    0    0 -5.2062728352e+01 +9.1264900966e+01 -8.9400319548e+01 1.3795733749e+02 0.0000000000e+00 0.0000e+00 1.0000e+00
<rwgt>
<wgt id='SM'> +9.5440835e-06 </wgt>
<wgt id='morphing_basis_vector_1'> +9.1613622e-06 </wgt>
<wgt id='morphing_basis_vector_2'> +9.6513768e-06 </wgt>
<wgt id='morphing_basis_vector_4'> +9.1331523e-06 </wgt>
<wgt id='morphing_basis_vector_5'> +9.6396214e-06 </wgt>
</rwgt>
</event>
<event>
 7      1 +1.0054000e-05 1.34491200e+02 7.81860800e-03 1.42962700e-01
        2 -1    0    0  502    0 +0.0000000000e+00 +0.0000000000e+00 +3.7732998118e+02 3.7732998118e+02 0.0000000000e+00 0.0000e+00 -1.0000e+00
        1 -1    0    0  501    0 -0.0000000000e+00 -0.0000000000e+00 -9.9230301807e+02 9.9230301807e+02 0.0000000000e+00 0.0000e+00 -1.0000e+00
       25  2    1    2    0    0 +1.0574509466e+02 -6.7673606620e+01 -3.6195451410e+02 4.0298638529e+02 1.2500085749e+02 0.0000e+00 0.0000e+00
        2  1    1    2  501    0 +1.7083916215e+01 +1.2063189716e+01 -5.9690553115e+02 5.9727179228e+02 0.0000000000e+00 0.0000e+00 -1.0000e+00
        1  1    1    2  502    0 -1.2282901087e+02 +5.5610416904e+01 +3.4388700835e+02 3.6937482168e+02 0.0000000000e+00 0.0000e+00 -1.0000e+00
       22  1    3    3    0    0 -1.1934931001e+01 -1.0553923480e+01 +2.1692257548e+00 1.6078974445e+01 0.0000000000e+00 0.0000e+00 -1.0000e+00
       22  1    3    3    0    0 +1.1768002566e+02 -5.7119683140e+01 -3.6412373985e+02 3.8690741084e+02 0.0000000000e+00 0.0000e+00 -1.0000e+00
<rwgt>
<wgt id='SM'> +1.0004919e-05 </wgt>
<wgt id='morphing_basis_vector_1'> +9.7767739e-06 </wgt>
<wgt id='morphing_basis_vector_2'> +1.0374015e-05 </wgt>
<wgt id='morphing_basis_vector_4'> +1.0125802e-05 </wgt>
<wgt id='morphing_basis_vector_5'> +9.6696217e-06 </wgt>
</rwgt>
</event>
<event>
 7      1 +1.0054000e-05 6.66382500e+01 7.81860800e-03 1.42790700e-01
        2 -1    0    0  502    0 +0.0000000000e+00 +0.0000000000e+00 +1.3728096476e+03 1.3728096476e+03 0.0000000000e+00 0.0000e+00 -1.0000e+00
        1 -1    0    0  501    0 -0.0000000000e+00 -0.0000000000e+00 -3.0738476460e+01 3.0738476460e+01 0.0000000000e+00 0.0000e+00 -1.0000e+00
       25  2    1    2    0    0 +5.9155347117e+01 -7.4511510179e+01 +6.1940020712e+02 6.3900969689e+02 1.2500182359e+02 0.0000e+00 0.0000e+00
        2  1    1    2  501    0 -5.6451909894e+01 +3.1833618580e+01 +3.1522858960e+01 7.2068634229e+01 0.0000000000e+00 0.0000e+00 -1.0000e+00
        1  1    1    2  502    0 -2.7034372234e+00 +4.2677891599e+01 +6.9114810504e+02 6.9246979292e+02 0.0000000000e+00 0.0000e+00 -1.0000e+00
       22  1    3    3    0    0 +3.6458454042e+01 -8.6688514147e+01 +5.9848939783e+02 6.0583304356e+02 0.0000000000e+00 0.0000e+00 -1.0000e+00
       22  1    3    3    0    0 +2.2696893075e+01 +1.2177003968e+01 +2.0910809283e+01 3.3176653324e+01 0.0000000000e+00 0.0000e+00 -1.0000e+00
<rwgt>
<wgt id='SM'> +9.6279074e-06 </wgt>
<wgt id='morphing_basis_vector_1'> +9.3440990e-06 </wgt>
<wgt id='morphing_basis_vector_2'> +9.6478661e-06 </wgt>
<wgt id='morphing_basis_vector_4'> +9.2520701e-06 </wgt>
<wgt id='morphing_basis_vector_5'> +9.7772043e-06 </wgt>
</rwgt>
</event>
<event>
 7      1 +1.0054000e-05 2.65487100e+01 7.81860800e-03 1.64269100e-01
        2 -1    0    0  502    0 +0.0000000000e+00 +0.0000000000e+00 +7.7093216863e+02 7.7093216863e+02 0.0000000000e+00 0.0000e+00 -1.0000e+00
        1 -1    0    0  501    0 -0.0000000000e+00 -0.0000000000e+00 -1.6101919379e+03 1.6101919379e+03 0.0000000000e+00 0.0000e+00 -1.0000e+00
       25  2    1    2    0    0 +9.2207915733e+00 +3.7344062972e+00 +3.7092267503e+02 3.9154516755e+02 1.2500007438e+02 0.0000e+00 0.0000e+00
        2  1    1    2  501    0 +3.9662559500e+00 -2.6257856956e+01 -1.5993333338e+03 1.5995537874e+03 0.0000000000e+00 0.0000e+00 -1.0000e+00
        1  1    1    2  502    0 -1.3187047523e+01 +2.2523450659e+01 +3.8915088950e+02 3.9002515156e+02 0.0000000000e+00 0.0000e+00 -1.0000e+00
       22  1    3    3    0    0 +3.7638667491e+01 -1.6641625213e+01 +3.5631324540e+01 5.4435321885e+01 0.0000000000e+00 0.0000e+00 1.0000e+00
       22  1    3    3    0    0 -2.8417875918e+01 +2.0376031510e+01 +3.3529135049e+02 3.3710984566e+02 0.0000000000e+00 0.0000e+00 1.0000e+00
<rwgt>
<wgt id='SM'> +1.0033785e-05 </wgt>
<wgt id='morphing_basis_vector_1'> +1.0028249e-05 </wgt>
<wgt id='morphing_basis_vector_2'> +1.0019598e-05 </wgt>
<wgt id='morphing_basis_vector_4'> +1.0008764e-05 </wgt>
<wgt id='morphing_basis_vector_5'> +1.0055708e-05 </wgt>
</rwgt>
</event>
<event>
 7      1 +1.0054000e-05 4.62992900e+01 7.81860800e-03 1.53224000e-01
        2 -1    0    0  502    0 +0.0000000000e+00 +0.0000000000e+00 +2.1911919648e+03 2.1911919648e+03 0.0000000000e+00 0.0000e+00 -1.0000e+00
        1 -1    0    0  501    0 -0.0000000000e+00 -0.0000000000e+00 -1.1319989008e+02 1.1319989008e+02 0.0000000000e+00 0.0000e+00 -1.0000e+00
       25  2    1    2    0    0 +4.5702099079e+01 +6.9522386227e+00 +1.1958537053e+02 1.7906371178e+02 1.2500454612e+02 0.0000e+00 0.0000e+00
        2  1    1    2  501    0 -3.2684464952e+01 -3.3346310206e+01 -7.6815231465e+01 8.9893439352e+01 0.0000000000e+00 0.0000e+00 -1.0000e+00
        1  1    1    2  502    0 -1.3017634127e+01 +2.6394071583e+01 +2.0352219356e+03 2.0354347037e+03 0.0000000000e+00 0.0000e+00 -1.0000e+00
       22  1    3    3    0    0 +2.6435388487e+00 +2.7314305569e+01 +1.2781490104e+02 1.3072761190e+02 0.0000000000e+00 0.0000e+00 1.0000e+00
       22  1    3    3    0    0 +4.3058560231e+01 -2.0362066946e+01 -8.2295305087e+00 4.8336099883e+01 0.0000000000e+00 0.0000e+00 1.0000e+00
<rwgt>
<wgt id='SM'> +9.9417532e-06 </wgt>
<wgt id='morphing_basis_vector_1'> +9.8833654e-06 </wgt>
<wgt id='morphing_basis_vector_2'> +9.9145684e-06 </wgt>
<wgt id='morphing_basis_vector_4'> +9.8265880e-06 </wgt>
<wgt id='morphing_basis_vector_5'> +1.0012941e-05 </wgt>
</rwgt>
</event>
<event>
 7      1 +1.0054000e-05 8.64755000e+01 7.81860800e-03 1.40080300e-01
        2 -1    0    0  502    0 +0.0000000000e+00 +0.0000000000e+00 +8.4272928022e+02 8.4272928022e+02 0.0000000000e+00 0.0000e+00 -1.0000e+00
        1 -1    0    0  501    0 -0.0000000000e+00 -0.0000000000e+00 -1.5861754503e+02 1.5861754503e+02 0.0000000000e+00 0.0000e+00 -1.0000e+00
       25  2    1    2    0    0 -5.6018921285e+01 -3.5210591687e+00 -4.6503559671e+01 1.4470155581e+02 1.2500176716e+02 0.0000e+00 0.0000e+00
        2  1    1    2  501    0 -2.7116921587e+01 +3.0298764501e+01 -5.3769352227e+01 6.7412801496e+01 0.0000000000e+00 0.0000e+00 -1.0000e+00
        1  1    1    2  502    0 +8.3135842872e+01 -2.6777705332e+01 +7.8438464709e+02 7.8923246794e+02 0.0000000000e+00 0.0000e+00 -1.0000e+00
       22  1    3    3    0    0 +1.3788625118e+00 -3.8847343167e+01 -6.4171396210e+01 7.5026564792e+01 0.0000000000e+00 0.0000e+00 -1.0000e+00
       22  1    3    3    0    0 -5.7397783797e+01 +3.5326283999e+01 +1.7667836538e+01 6.9674991022e+01 0.0000000000e+00 0.0000e+00 -1.0000e+00
<rwgt>
<wgt id='SM'> +9.8837715e-06 </wgt>
<wgt id='morphing_basis_vector_1'> +9.8411615e-06 </wgt>
<wgt id='morphing_basis_vector_2'> +9.7591611e-06 </wgt>
<wgt id='morphing_basis_vector_4'> +9.6734745e-06 </wgt>
<wgt id='morphing_basis_vector_5'> +1.0074546e-05 </wgt>
</rwgt>
</event>
<event>
 7      1 +1.0054000e-05 6.72144500e+01 7.81860800e-03 1.41009400e-01
        2 -1    0    0  502    0 +0.0000000000e+00 +0.0000000000e+00 +2.3009828167e+02 2.3009828167e+02 0.0000000000e+00 0.0000e+00 -1.0000e+00
        1 -1    0    0  501    0 -0.0000000000e+00 -0.0000000000e+00 -1.1040467685e+03 1.1040467685e+03 0.0000000000e+00 0.0000e+00 -1.0000e+00
       25  2    1    2    0    0 -5.6373592391e+01 +4.4316260473e+01 -7.7009746998e+01 1.6339435637e+02 1.2500120679e+02 0.0000e+00 0.0000e+00
        2  1    1    2  501    0 +6.7481989894e+01 +3.0296508609e+00 -9.7949826287e+02 9.8182475254e+02 0.0000000000e+00 0.0000e+00 -1.0000e+00
        1  1    1    2  502    0 -1.1108397503e+01 -4.7345911334e+01 +1.8255952305e+02 1.8892594124e+02 0.0000000000e+00 0.0000e+00 -1.0000e+00
       22  1    3    3    0    0 -3.3053612896e+01 +4.7005061142e+01 -1.0929303044e+02 1.2347867671e+02 0.0000000000e+00 0.0000e+00 -1.0000e+00
       22  1    3    3    0    0 -2.3319979495e+01 -2.6888006686e+00 +3.2283283446e+01 3.9915679660e+01 0.0000000000e+00 0.0000e+00 -1.0000e+00
<rwgt>
<wgt id='SM'> +9.7994189e-06 </wgt>
<wgt id='morphing_basis_vector_1'> +9.6737595e-06 </wgt>
<wgt id='morphing_basis_vector_2'> +9.7268396e-06 </wgt>
<wgt id='morphing_basis_vector_4'> +9.5351260e-06 </wgt>
<wgt id='morphing_basis_vector_5'> +9.9717483e-06 </wgt>
</rwgt>
</event>
<event>
 7      1 +1.0054000e-05 1.24492600e+02 7.81860800e-03 1.30394400e-01
        2 -1    0    0  502    0 +0.0000000000e+00 +0.0000000000e+00 +5.5615370073e+02 5.5615370073e+02 0.0000000000e+00 0.0000e+00 -1.0000e+00
        1 -1    0    0  501    0 -0.0000000000e+00 -0.0000000000e+00 -7.4323789834e+02 7.4323789834e+02 0.0000000000e+00 0.0000e+00 -1.0000e+00
       25  2    1    2    0    0 -6.1894957197e+01 -5.9091694532e+01 -2.6341908739e+02 3.0387148893e+02 1.2500180836e+02 0.0000e+00 0.0000e+00
        2  1    1    2  501    0 +9.1026984043e+01 +1.1654329322e+02 -4.4566596351e+02 4.6955979604e+02 0.0000000000e+00 0.0000e+00 -1.0000e+00
        1  1    1    2  502    0 -2.9132026846e+01 -5.7451598686e+01 +5.2200085329e+02 5.2596031411e+02 0.0000000000e+00 0.0000e+00 -1.0000e+00
       22  1    3    3    0    0 -4.0639076655e+01 -4.4304607240e+01 -2.7044093426e+02 2.7704283369e+02 0.0000000000e+00 0.0000e+00 -1.0000e+00
       22  1    3    3    0    0 -2.1255880542e+01 -1.4787087292e+01 +7.0218468757e+00 2.6828655235e+01 0.0000000000e+00 0.0000e+00 -1.0000e+00
<rwgt>
<wgt id='SM'> +9.7506499e-06 </wgt>
<wgt id='morphing_basis_vector_1'> +9.5022161e-06 </wgt>
<wgt id='morphing_basis_vector_2'> +9.8508829e-06 </wgt>
<wgt id='morphing_basis_vector_4'> +9.5214427e-06 </wgt>
<wgt id='morphing_basis_vector_5'> +9.7733025e-06 </wgt>
</rwgt>
</event>
<event>
 7      1 +1.0054000e-05 7.79992900e+01 7.81860800e-03 1.44320100e-01
        2 -1    0    0  502    0 +0.0000000000e+00 +0.0000000000e+00 +5.0619714460e+02 5.0619714460e+02 0.0000000000e+00 0.0000e+00 -1.0000e+00
        1 -1    0    0  501    0 -0.0000000000e+00 -0.0000000000e+00 -2.7110904168e+02 2.7110904168e+02 0.0000000000e+00 0.0000e+00 -1.0000e+00
       25  2    1    2    0    0 +8.1208670562e+01 -5.5592808397e+01 -2.5949759466e+01 1.6119385621e+02 1.2499864296e+02 0.0000e+00 0.0000e+00
        2  1    1    2  501    0 -3.2271654244e+01 -4.3625771979e+00 -1.7258844640e+02 1.7563389075e+02 0.0000000000e+00 0.0000e+00 -1.0000e+00
        1  1    1    2  502    0 -4.8937016319e+01 +5.9955385595e+01 +4.3362630879e+02 4.4047843932e+02 0.0000000000e+00 0.0000e+00 -1.0000e+00
       22  1    3    3    0    0 -2.0834961223e+01 -2.5928934610e+00 -4.0175336129e+01 4.5330743859e+01 0.0000000000e+00 0.0000e+00 -1.0000e+00
       22  1    3    3    0    0 +1.0204363179e+02 -5.2999914936e+01 +1.4225576663e+01 1.1586311235e+02 0.0000000000e+00 0.0000e+00 -1.0000e+00
<rwgt>
<wgt id='SM'> +9.7541142e-06 </wgt>
<wgt id='morphing_basis_vector_1'> +9.5361867e-06 </wgt>
<wgt id='morphing_basis_vector_2'> +9.7998440e-06 </wgt>
<wgt id='morphing_basis_vector_4'> +9.5021001e-06 </wgt>
<wgt id='morphing_basis_vector_5'> +9.8278843e-06 </wgt>
</rwgt>
</event>
<event>
 7      1 +1.0054000e-05 8.73118200e+01 7.81860800e-03 1.38466800e-01
        2 -1    0    0  502    0 +0.0000000000e+00 +0.0000000000e+00 +1.2718037681e+02 1.2718037681e+02 0.0000000000e+00 0.0000e+00 -1.0000e+00
        1 -1    0    0  501    0 -0.0000000000e+00 -0.0000000000e+00 -5.2759707806e+02 5.2759707806e+02 0.0000000000e+00 0.0000e+00 -1.0000e+00
       25  2    1    2    0    0 -2.5035001699e+01 +5.1200959498e+01 -5.4302210284e+01 1.4771817647e+02 1.2499456010e+02 0.0000e+00 0.0000e+00
        2  1    1    2  501    0 +1.0586380219e+01 +4.4583405248e+01 -3.9562638641e+02 3.9827125065e+02 0.0000000000e+00 0.0000e+00 -1.0000e+00
        1  1    1    2  502    0 +1.4448621480e+01 -9.5784364746e+01 +4.9511895443e+01 1.0878802775e+02 0.0000000000e+00 0.0000e+00 -1.0000e+00
       22  1    3    3    0    0 -8.9783192243e+00 +1.0435942720e+01 +4.0772487657e+01 4.3033880446e+01 0.0000000000e+00 0.0000e+00 1.0000e+00
       22  1    3    3    0    0 -1.6056682475e+01 +4.0765016778e+01 -9.5074697941e+01 1.0468429602e+02 0.0000000000e+00 0.0000e+00 1.0000e+00
<rwgt>
<wgt id='SM'> +9.8701160e-06 </wgt>
<wgt id='morphing_basis_vector_1'> +9.7683811e-06 </wgt>
<wgt id='morphing_basis_vector_2'> +9.8381174e-06 </wgt>
<wgt id='morphing_basis_vector_4'> +9.6885413e-06 </wgt>
<wgt id='morphing_basis_vector_5'> +9.9746802e-06 </wgt>
</rwgt>
</event>
<event>
 7      1 +1.0054000e-05 4.24847300e+01 7.81860800e-03 1.56686500e-01
        2 -1    0    0  502    0 +0.0000000000e+00 +0.0000000000e+00 +2.0113951345e+03 2.0113951345e+03 0.0000000000e+00 0.0000e+00 -1.0000e+00
        1 -1    0    0  501    0 -0.0000000000e+00 -0.0000000000e+00 -5.2506252944e+02 5.2506252944e+02 0.0000000000e+00 0.0000e+00 -1.0000e+00
       25  2    1    2    0    0 +2.2137466487e+01 +2.3175361075e+01 +1.0406861573e+03 1.0486556199e+03 1.2499506530e+02 0.0000e+00 0.0000e+00
        2  1    1    2  501    0 -4.9143437222e+00 -4.2213659152e+01 -5.2004037422e+02 5.2177402638e+02 0.0000000000e+00 0.0000e+00 -1.0000e+00
        1  1    1    2  502    0 -1.7223122765e+01 +1.9038298077e+01 +9.6568682202e+02 9.6602801770e+02 0.0000000000e+00 0.0000e+00 -1.0000e+00
       22  1    3    3    0    0 +9.5056894912e+00 +7.5026425312e+01 +5.9647003688e+02 6.0124523077e+02 0.0000000000e+00 0.0000e+00 1.0000e+00
       22  1    3    3    0    0 +1.2631776996e+01 -5.1851064237e+01 +4.4421612039e+02 4.4741038909e+02 0.0000000000e+00 0.0000e+00 1.0000e+00
<rwgt>
<wgt id='SM'> +9.9805107e-06 </wgt>
<wgt id='morphing_basis_vector_1'> +9.9537995e-06 </wgt>
<wgt id='morphing_basis_vector_2'> +9.9412876e-06 </wgt>
<wgt id='morphing_basis_vector_4'> +9.8953281e-06 </wgt>
<wgt id='morphing_basis_vector_5'> +1.0048157e-05 </wgt>
</rwgt>
</event>
<event>
 7      1 +1.0054000e-05 1.42289000e+02 7.81860800e-03 1.26602500e-01
        2 -1    0    0  502    0 +0.0000000000e+00 +0.0000000000e+00 +9.1804641137e+01 9.1804641137e+01 0.0000000000e+00 0.0000e+00 -1.0000e+00
        1 -1    0    0  501    0 -0.0000000000e+00 -0.0000000000e+00 -4.8535515012e+02 4.8535515012e+02 0.0000000000e+00 0.0000e+00 -1.0000e+00
       25  2    1    2    0    0 -4.7310444386e+01 -9.8170705299e+01 -1.1292674041e+02 2.0062403280e+02 1.2498715259e+02 0.0000e+00 0.0000e+00
        2  1    1    2  501    0 +1.2643291386e+02 +1.1364826390e+02 -2.0048558136e+02 2.6286056747e+02 0.0000000000e+00 0.0000e+00 -1.0000e+00
        1  1    1    2  502    0 -7.9122469470e+01 -1.5477558605e+01 -8.0138187210e+01 1.1367519098e+02 0.0000000000e+00 0.0000e+00 -1.0000e+00
       22  1    3    3    0    0 -3.1396618525e+01 +1.4530254493e+01 +6.9864390075e+00 3.5294281130e+01 0.0000000000e+00 0.0000e+00 -1.0000e+00
       22  1    3    3    0    0 -1.5913825860e+01 -1.1270095979e+02 -1.1991317941e+02 1.6532975167e+02 0.0000000000e+00 0.0000e+00 -1.0000e+00
<rwgt>
<wgt id='SM'> +1.0977691e-05 </wgt>
<wgt id='morphing_basis_vector_1'> +1.1325142e-05 </wgt>
<wgt id='morphing_basis_vector_2'> +1.1598540e-05 </wgt>
<wgt id='morphing_basis_vector_4'> +1.2252630e-05 </wgt>
<wgt id='morphing_basis_vector_5'> +1.0166242e-05 </wgt>
</rwgt>
</event>
<event>
 7      1 +1.0054000e-05 7.13226000e+01 7.81860800e-03 1.48743800e-01
        2 -1    0    0  502    0 +0.0000000000e+00 +0.0000000000e+00 +3.6402450302e+02 3.6402450302e+02 0.0000000000e+00 0.0000e+00 -1.0000e+00
        1 -1    0    0  501    0 -0.0000000000e+00 -0.0000000000e+00 -1.3374028874e+03 1.3374028874e+03 0.0000000000e+00 0.0000e+00 -1.0000e+00
       25  2    1    2    0    0 -2.8873073248e+01 -4.8052831869e+01 -8.6047017591e+02 8.7130703847e+02 1.2499721060e+02 0.0000e+00 0.0000e+00
        2  1    1    2  501    0 +3.5761926969e+01 +7.3005864073e+01 -4.6753497856e+02 4.7455002664e+02 0.0000000000e+00 0.0000e+00 -1.0000e+00
        1  1    1    2  502    0 -6.8888537206e+00 -2.4953032204e+01 +3.5462677013e+02 3.5557032527e+02 0.0000000000e+00 0.0000e+00 -1.0000e+00
       22  1    3    3    0    0 -2.3427917647e+01 -5.6305097192e+01 -1.6733692601e+02 1.7810327931e+02 0.0000000000e+00 0.0000e+00 1.0000e+00
       22  1    3    3    0    0 -5.4451556007e+00 +8.2522653230e+00 -6.9313324990e+02 6.9320375916e+02 0.0000000000e+00 0.0000e+00 1.0000e+00
<rwgt>
<wgt id='SM'> +9.8702685e-06 </wgt>
<wgt id='morphing_basis_vector_1'> +9.6830300e-06 </wgt>
<wgt id='morphing_basis_vector_2'> +9.9982077e-06 </wgt>
<wgt id='morphing_basis_vector_4'> +9.7603630e-06 </wgt>
<wgt id='morphing_basis_vector_5'> +9.8185603e-06 </wgt>
</rwgt>
</event>
<event>
 7      1 +1.0054000e-05 8.46187200e+01 7.81860800e-03 1.41413400e-01
        2 -1    0    0  502    0 +0.0000000000e+00 +0.0000000000e+00 +1.7745551201e+02 1.7745551201e+02 0.0000000000e+00 0.0000e+00 -1.0000e+00
        1 -1    0    0  501    0 -0.0000000000e+00 -0.0000000000e+00 -1.3823808316e+03 1.3823808316e+03 0.0000000000e+00 0.0000e+00 -1.0000e+00
       25  2    1    2    0    0 -2.6038923054e+01 +3.9845126877e+01 -1.0275445510e+03 1.0362159603e+03 1.2502020843e+02 0.0000e+00 0.0000e+00
        2  1    1    2  501    0 -1.8571388999e+01 +3.2502217126e+01 -3.3897537426e+02 3.4103606109e+02 0.0000000000e+00 0.0000e+00 -1.0000e+00
        1  1    1    2  502    0 +4.4610312053e+01 -7.2347344002e+01 +1.6159460567e+02 1.8258432219e+02 0.0000000000e+00 0.0000e+00 -1.0000e+00
       22  1    3    3    0    0 -1.7652853240e+01 +7.3729575557e+01 -3.6695297279e+02 3.7470275923e+02 0.0000000000e+00 0.0000e+00 1.0000e+00
       22  1    3    3    0    0 -8.3860698142e+00 -3.3884448680e+01 -6.6059157820e+02 6.6151320109e+02 0.0000000000e+00 0.0000e+00 1.0000e+00
<rwgt>
<wgt id='SM'> +1.0082031e-05 </wgt>
<wgt id='morphing_basis_vector_1'> +1.0132415e-05 </wgt>
<wgt id='morphing_basis_vector_2'> +1.0025803e-05 </wgt>
<wgt id='morphing_basis_vector_4'> +1.0085769e-05 </wgt>
<wgt id='morphing_basis_vector_5'> +1.0128615e-05 </wgt>
</rwgt>
</event>
<event>
 7      1 +1.0054000e-05 5.80772300e+01 7.81860800e-03 1.44423800e-01
        2 -1    0    0  502    0 +0.0000000000e+00 +0.0000000000e+00 +1.1756064796e+03 1.1756064796e+03 0.0000000000e+00 0.0000e+00 -1.0000e+00
        1 -1    0    0  501    0 -0.0000000000e+00 -0.0000000000e+00 -4.0268465464e+02 4.0268465464e+02 0.0000000000e+00 0.0000e+00 -1.0000e+00
       25  2    1    2    0    0 +1.9183658487e+01 -7.8009882498e+01 -9.8648238098e+01 1.7834802331e+02 1.2499195181e+02 0.0000e+00 0.0000e+00
        2  1    1    2  501    0 -4.0599499356e+01 +4.0261656229e+01 -2.6067214586e+02 2.6686942114e+02 0.0000000000e+00 0.0000e+00 -1.0000e+00
        1  1    1    2  502    0 +2.1415840869e+01 +3.7748226269e+01 +1.1322422089e+03 1.1330736898e+03 0.0000000000e+00 0.0000e+00 -1.0000e+00
       22  1    3    3    0    0 +6.0481998683e+01 -5.2351368996e+01 -1.0198500575e+02 1.2961357721e+02 0.0000000000e+00 0.0000e+00 -1.0000e+00
       22  1    3    3    0    0 -4.1298340196e+01 -2.5658513502e+01 +3.3367676471e+00 4.8734446097e+01 0.0000000000e+00 0.0000e+00 -1.0000e+00
<rwgt>
<wgt id='SM'> +9.7966877e-06 </wgt>
<wgt id='morphing_basis_vector_1'> +9.6341609e-06 </wgt>
<wgt id='morphing_basis_vector_2'> +9.7895071e-06 </wgt>
<wgt id='morphing_basis_vector_4'> +9.5592255e-06 </wgt>
<wgt id='morphing_basis_vector_5'> +9.9055757e-06 </wgt>
</rwgt>
</event>
<event>
 7      1 +1.0054000e-05 1.31678500e+02 7.81860800e-03 1.26272100e-01
        2 -1    0    0  502    0 +0.0000000000e+00 +0.0000000000e+00 +1.6486025324e+03 1.6486025324e+03 0.0000000000e+00 0.0000e+00 -1.0000e+00
        1 -1    0    0  501    0 -0.0000000000e+00 -0.0000000000e+00 -6.3689157943e+01 6.3689157943e+01 0.0000000000e+00 0.0000e+00 -1.0000e+00
       25  2    1    2    0    0 -8.0990314994e-01 +9.2525584654e+01 +4.5484238723e+02 4.8069495837e+02 1.2499762404e+02 0.0000e+00 0.0000e+00
        2  1    1    2  501    0 -8.3339135695e+01 +3.3907687128e+01 -1.3942671035e+00 8.9983813908e+01 0.0000000000e+00 0.0000e+00 -1.0000e+00
        1  1    1    2  502    0 +8.4149038845e+01 -1.2643327178e+02 +1.1314652544e+03 1.1416129181e+03 0.0000000000e+00 0.0000e+00 -1.0000e+00
       22  1    3    3    0    0 +1.6837683262e+00 +7.4957547375e+01 +9.7901564774e+01 1.2331336249e+02 0.0000000000e+00 0.0000e+00 1.0000e+00
       22  1    3    3    0    0 -2.4936714761e+00 +1.7568037279e+01 +3.5694082246e+02 3.5738159587e+02 0.0000000000e+00 0.0000e+00 1.0000e+00
<rwgt>
<wgt id='SM'> +1.0449161e-05 </wgt>
<wgt id='morphing_basis_vector_1'> +1.0373534e-05 </wgt>
<wgt id='morphing_basis_vector_2'> +1.1085119e-05 </wgt>
<wgt id='morphing_basis_vector_4'> +1.1112600e-05 </wgt>
<wgt id='morphing_basis_vector_5'> +9.6971818e-06 </wgt>
</rwgt>
</event>
<event>
 7      1 +1.0054000e-05 1.15780000e+02 7.81860800e-03 1.35544200e-01
        2 -1    0    0  502    0 +0.0000000000e+00 +0.0000000000e+00 +1.1777489405e+03 1.1777489405e+03 0.0000000000e+00 0.0000e+00 -1.0000e+00
        1 -1    0    0  501    0 -0.0000000000e+00 -0.0000000000e+00 -5.5951352266e+02 5.5951352266e+02 0.0000000000e+00 0.0000e+00 -1.0000e+00
       25  2    1    2    0    0 -1.0038667201e+02 -9.8922834137e+01 +8.4144860502e+01 2.0632324406e+02 1.2500284982e+02 0.0000e+00 0.0000e+00
        2  1    1    2  501    0 +1.0089438991e+02 +5.4911365182e+01 -4.9132763754e+02 5.0457683593e+02 0.0000000000e+00 0.0000e+00 -1.0000e+00
        1  1    1    2  502    0 -5.0771789996e-01 +4.4011468955e+01 +1.0254181949e+03 1.0263623832e+03 0.0000000000e+00 0.0000e+00 -1.0000e+00
       22  1    3    3    0    0 -2.4594387368e+01 -9.3867024903e+01 +8.6975518156e+01 1.3030979630e+02 0.0000000000e+00 0.0000e+00 1.0000e+00
       22  1    3    3    0    0 -7.5792284639e+01 -5.0558092337e+00 -2.8306576540e+00 7.6013447762e+01 0.0000000000e+00 0.0000e+00 1.0000e+00
<rwgt>
<wgt id='SM'> +1.0005770e-05 </wgt>
<wgt id='morphing_basis_vector_1'> +9.6902866e-06 </wgt>
<wgt id='morphing_basis_vector_2'> +1.0543583e-05 </wgt>
<wgt id='morphing_basis_vector_4'> +1.0202863e-05 </wgt>
<wgt id='morphing_basis_vector_5'> +9.5119973e-06 </wgt>
</rwgt>
</event>
<event>
 7      1 +1.0054000e-05 1.98230600e+02 7.81860800e-03 1.38267300e-01
        2 -1    0    0  502    0 +0.0000000000e+00 +0.0000000000e+00 +1.9301010960e+03 1.9301010960e+03 0.0000000000e+00 0.0000e+00 -1.0000e+00
        1 -1    0    0  501    0 -0.0000000000e+00 -0.0000000000e+00 -2.7560379616e+01 2.7560379616e+01 0.0000000000e+00 0.0000e+00 -1.0000e+00
       25  2    1    2    0    0 -1.9054602737e+02 -1.6199870181e+01 +7.9020264976e+02 8.2256630426e+02 1.2499949150e+02 0.0000e+00 0.0000e+00
        2  1    1    2  501    0 -9.1727172845e+00 -1.8346986174e+01 +5.9818612346e+01 6.3237781643e+01 0.0000000000e+00 0.0000e+00 -1.0000e+00
        1  1    1    2  502    0 +1.9971874466e+02 +3.4546856355e+01 +1.0525194543e+03 1.0718573898e+03 0.0000000000e+00 0.0000e+00 -1.0000e+00
       22  1    3    3    0    0 -1.1929319618e+02 -3.0297093975e+00 +6.8187866265e+02 6.9224168928e+02 0.0000000000e+00 0.0000e+00 1.0000e+00
       22  1    3    3    0    0 -7.1252831187e+01 -1.3170160783e+01 +1.0832398711e+02 1.3032461499e+02 0.0000000000e+00 0.0000e+00 1.0000e+00
<rwgt>
<wgt id='SM'> +1.1316110e-05 </wgt>
<wgt id='morphing_basis_vector_1'> +1.1475586e-05 </wgt>
<wgt id='morphing_basis_vector_2'> +1.2794176e-05 </wgt>
<wgt id='morphing_basis_vector_4'> +1.3307922e-05 </wgt>
<wgt id='morphing_basis_vector_5'> +9.7243769e-06 </wgt>
</rwgt>
</event>
<event>
 7      1 +1.0054000e-05 2.57027800e+02 7.81860800e-03 1.16677600e-01
        2 -1    0    0  502    0 +0.0000000000e+00 +0.0000000000e+00 +1.0133393658e+03 1.0133393658e+03 0.0000000000e+00 0.0000e+00 -1.0000e+00
        1 -1    0    0  501    0 -0.0000000000e+00 -0.0000000000e+00 -2.8830593756e+02 2.8830593756e+02 0.0000000000e+00 0.0000e+00 -1.0000e+00
       25  2    1    2    0    0 +3.3588135710e+02 -1.6726990458e+01 +3.3787797815e+02 4.9283133216e+02 1.2500046232e+02 0.0000e+00 0.0000e+00
        2  1    1    2  501    0 -2.2933907883e+02 +8.6857877552e+01 -1.2902546255e+02 2.7710697204e+02 0.0000000000e+00 0.0000e+00 -1.0000e+00
        1  1    1    2  502    0 -1.0654227828e+02 -7.0130887094e+01 +5.1618091263e+02 5.3170699915e+02 0.0000000000e+00 0.0000e+00 -1.0000e+00
       22  1    3    3    0    0 +1.0382472823e+02 +3.8109818558e+01 +5.7110105432e+01 1.2447287498e+02 0.0000000000e+00 0.0000e+00 -1.0000e+00
       22  1    3    3    0    0 +2.3205662887e+02 -5.4836809017e+01 +2.8076787271e+02 3.6835845718e+02 0.0000000000e+00 0.0000e+00 -1.0000e+00
<rwgt>
<wgt id='SM'> +1.0058515e-05 </wgt>
<wgt id='morphing_basis_vector_1'> +7.7423791e-06 </wgt>
<wgt id='morphing_basis_vector_2'> +1.5290212e-05 </wgt>
<wgt id='morphing_basis_vector_4'> +1.2392067e-05 </wgt>
<wgt id='morphing_basis_vector_5'> +5.9871692e-06 </wgt>
</rwgt>
</event>
<event>
 7      1 +1.0054000e-05 1.50780600e+02 7.81860800e-03 1.31619700e-01
        2 -1    0    0  502    0 +0.0000000000e+00 +0.0000000000e+00 +8.1555597491e+02 8.1555597491e+02 0.0000000000e+00 0.0000e+00 -1.0000e+00
        1 -1    0    0  501    0 -0.0000000000e+00 -0.0000000000e+00 -6.6111212556e+02 6.6111212556e+02 0.0000000000e+00 0.0000e+00 -1.0000e+00
       25  2    1    2    0    0 +1.1698530054e+02 +4.1429897068e+01 -2.6241292015e+01 1.7808926439e+02 1.2500073508e+02 0.0000e+00 0.0000e+00
        2  1    1    2  501    0 -1.5461466137e+02 -1.2296957696e+01 -5.4739514878e+02 5.6894495128e+02 0.0000000000e+00 0.0000e+00 -1.0000e+00
        1  1    1    2  502    0 +3.7629360827e+01 -2.9132939373e+01 +7.2808029015e+02 7.2963388480e+02 0.0000000000e+00 0.0000e+00 -1.0000e+00
       22  1    3    3    0    0 +7.7985905384e+01 +3.2388060472e+01 -7.6425400124e+01 1.1389306249e+02 0.0000000000e+00 0.0000e+00 -1.0000e+00
       22  1    3    3    0    0 +3.8999395155e+01 +9.0418365962e+00 +5.0184108109e+01 6.4196201899e+01 0.0000000000e+00 0.0000e+00 -1.0000e+00
<rwgt>
<wgt id='SM'> +1.0090513e-05 </wgt>
<wgt id='morphing_basis_vector_1'> +9.8445250e-06 </wgt>
<wgt id='morphing_basis_vector_2'> +1.0599580e-05 </wgt>
<wgt id='morphing_basis_vector_4'> +1.0353739e-05 </wgt>
<wgt id='morphing_basis_vector_5'> +9.5907473e-06 </wgt>
</rwgt>
</event>
<event>
 7      1 +1.0054000e-05 3.64442000e+02 7.81860800e-03 1.19846300e-01
        2 -1    0    0  502    0 +0.0000000000e+00 +0.0000000000e+00 +5.2189450199e+03 5.2189450199e+03 0.0000000000e+00 0.0000e+00 -1.0000e+00
        1 -1    0    0  501    0 -0.0000000000e+00 -0.0000000000e+00 -7.9165161029e+02 7.9165161029e+02 0.0000000000e+00 0.0000e+00 -1.0000e+00
       25  2    1    2    0    0 +3.2350349572e+02 +8.2627843676e+01 +1.5996354214e+03 1.6388839756e+03 1.2500132685e+02 0.0000e+00 0.0000e+00
        2  1    1    2  501    0 +3.1957339950e+01 +5.4411360243e+01 -7.6063768830e+02 7.6325065382e+02 0.0000000000e+00 0.0000e+00 -1.0000e+00
        1  1    1    2  502    0 -3.5546083567e+02 -1.3703920392e+02 +3.5882956765e+03 3.6084620008e+03 0.0000000000e+00 0.0000e+00 -1.0000e+00
       22  1    3    3    0    0 +2.6867329947e+02 +1.1131185898e+02 +1.3996470454e+03 1.4295410185e+03 0.0000000000e+00 0.0000e+00 1.0000e+00
       22  1    3    3    0    0 +5.4830196250e+01 -2.8684015301e+01 +1.9998837601e+02 2.0934295712e+02 0.0000000000e+00 0.0000e+00 1.0000e+00
<rwgt>
<wgt id='SM'> +8.8699582e-06 </wgt>
<wgt id='morphing_basis_vector_1'> +6.7581260e-06 </wgt>
<wgt id='morphing_basis_vector_2'> +1.1880437e-05 </wgt>
<wgt id='morphing_basis_vector_4'> +9.0793977e-06 </wgt>
<wgt id='morphing_basis_vector_5'> +6.7455473e-06 </wgt>
</rwgt>
</event>
<event>
 7      1 +1.0054000e-05 2.27095900e+02 7.81860800e-03 1.25854100e-01
        2 -1    0    0  502    0 +0.0000000000e+00 +0.0000000000e+00 +4.0036673586e+02 4.0036673586e+02 0.0000000000e+00 0.0000e+00 -1.0000e+00
        1 -1    0    0  501    0 -0.0000000000e+00 -0.0000000000e+00 -7.3133030831e+02 7.3133030831e+02 0.0000000000e+00 0.0000e+00 -1.0000e+00
       25  2    1    2    0    0 -8.6723292548e+00 -1.8704768493e+02 -9.4417467551e+01 2.4413524321e+02 1.2500125226e+02 0.0000e+00 0.0000e+00
        2  1    1    2  501    0 +2.0916449354e+01 -5.0169670661e+01 -5.1710520987e+02 5.1995412469e+02 0.0000000000e+00 0.0000e+00 -1.0000e+00
        1  1    1    2  502    0 -1.2244120099e+01 +2.3721735559e+02 +2.8055910497e+02 3.6760767627e+02 0.0000000000e+00 0.0000e+00 -1.0000e+00
       22  1    3    3    0    0 +3.2431481896e+01 -1.5724480783e+02 -1.0557056958e+02 1.9215326115e+02 0.0000000000e+00 0.0000e+00 -1.0000e+00
       22  1    3    3    0    0 -4.1103811150e+01 -2.9802877101e+01 +1.1153102032e+01 5.1981982066e+01 0.0000000000e+00 0.0000e+00 -1.0000e+00
<rwgt>
<wgt id='SM'> +9.8048250e-06 </wgt>
<wgt id='morphing_basis_vector_1'> +9.2202120e-06 </wgt>
<wgt id='morphing_basis_vector_2'> +1.0622809e-05 </wgt>
<wgt id='morphing_basis_vector_4'> +9.9418536e-06 </wgt>
<wgt id='morphing_basis_vector_5'> +9.1338194e-06 </wgt>
</rwgt>
</event>
<event>
 7      1 +1.0054000e-05 2.27388500e+02 7.81860800e-03 1.13873000e-01
        2 -1    0    0  502    0 +0.0000000000e+00 +0.0000000000e+00 +9.1643080735e+02 9.1643080735e+02 0.0000000000e+00 0.0000e+00 -1.0000e+00
        1 -1    0    0  501    0 -0.0000000000e+00 -0.0000000000e+00 -1.9784967146e+03 1.9784967146e+03 0.0000000000e+00 0.0000e+00 -1.0000e+00
       25  2    1    2    0    0 -2.2484924769e+02 -2.1558372583e+01 -2.3791226014e+02 3.5108368306e+02 1.2504223835e+02 0.0000e+00 0.0000e+00
        2  1    1    2  501    0 +1.0009199468e+02 -1.7394665816e+02 -1.6622140962e+03 1.6742853845e+03 0.0000000000e+00 0.0000e+00 -1.0000e+00
        1  1    1    2  502    0 +1.2475725301e+02 +1.9550503074e+02 +8.3806044908e+02 8.6955845436e+02 0.0000000000e+00 0.0000e+00 -1.0000e+00
       22  1    3    3    0    0 -1.3480933972e+02 +4.7388684957e+01 -1.5344857770e+02 2.0968002179e+02 0.0000000000e+00 0.0000e+00 -1.0000e+00
       22  1    3    3    0    0 -9.0039907972e+01 -6.8947057540e+01 -8.4463682434e+01 1.4140366127e+02 0.0000000000e+00 0.0000e+00 -1.0000e+00
<rwgt>
<wgt id='SM'> +1.1757476e-05 </wgt>
<wgt id='morphing_basis_vector_1'> +1.1185724e-05 </wgt>
<wgt id='morphing_basis_vector_2'> +1.5196328e-05 </wgt>
<wgt id='morphing_basis_vector_4'> +1.5049975e-05 </wgt>
<wgt id='morphing_basis_vector_5'> +8.2254194e-06 </wgt>
</rwgt>
</event>
<event>
 7      1 +1.0054000e-05 1.51656500e+02 7.81860800e-03 1.30705200e-01
        2 -1    0    0  502    0 +0.0000000000e+00 +0.0000000000e+00 +3.9408213111e+03 3.9408213111e+03 0.0000000000e+00 0.0000e+00 -1.0000e+00
        1 -1    0    0  501    0 -0.0000000000e+00 -0.0000000000e+00 -2.0976261953e+03 2.0976261953e+03 0.0000000000e+00 0.0000e+00 -1.0000e+00
       25  2    1    2    0    0 -8.8177383398e+01 -1.0260187887e+02 -1.5743737941e+03 1.5851128603e+03 1.2501015874e+02 0.0000e+00 0.0000e+00
        2  1    1    2  501    0 -4.3516912631e+01 +2.7348256278e+01 -5.1514207748e+02 5.1769972841e+02 0.0000000000e+00 0.0000e+00 -1.0000e+00
        1  1    1    2  502    0 +1.3169429603e+02 +7.5253622596e+01 +3.9327109874e+03 3.9356349178e+03 0.0000000000e+00 0.0000e+00 -1.0000e+00
       22  1    3    3    0    0 +1.0795401407e+01 -2.0877099252e+01 -4.8965380003e+01 5.4313924582e+01 0.0000000000e+00 0.0000e+00 -1.0000e+00
       22  1    3    3    0    0 -9.8972784805e+01 -8.1724779621e+01 -1.5254084141e+03 1.5307989357e+03 0.0000000000e+00 0.0000e+00 -1.0000e+00
<rwgt>
<wgt id='SM'> +9.0855017e-06 </wgt>
<wgt id='morphing_basis_vector_1'> +8.7307744e-06 </wgt>
<wgt id='morphing_basis_vector_2'> +8.6265318e-06 </wgt>
<wgt id='morphing_basis_vector_4'> +8.0474690e-06 </wgt>
<wgt id='morphing_basis_vector_5'> +9.9320531e-06 </wgt>
</rwgt>
</event>
<event>
 7      1 +1.0054000e-05 2.20240300e+02 7.81860800e-03 1.24570200e-01
        2 -1    0    0  502    0 +0.0000000000e+00 +0.0000000000e+00 +2.9855205507e+02 2.9855205507e+02 0.0000000000e+00 0.0000e+00 -1.0000e+00
        1 -1    0    0  501    0 -0.0000000000e+00 -0.0000000000e+00 -1.9874487937e+03 1.9874487937e+03 0.0000000000e+00 0.0000e+00 -1.0000e+00
       25  2    1    2    0    0 +2.5404302285e+01 +2.1318118027e+02 -8.8945089358e+02 9.2349588177e+02 1.2502062768e+02 0.0000e+00 0.0000e+00
        2  1    1    2  501    0 +3.7226391024e+01 -2.2474155398e+02 -1.0651687394e+03 1.0892561745e+03 0.0000000000e+00 0.0000e+00 -1.0000e+00
        1  1    1    2  502    0 -6.2630693309e+01 +1.1560373710e+01 +2.6572289440e+02 2.7324879248e+02 0.0000000000e+00 0.0000e+00 -1.0000e+00
       22  1    3    3    0    0 +5.2011193048e+01 +2.0033185107e+02 -8.4600335108e+02 8.7095331953e+02 0.0000000000e+00 0.0000e+00 -1.0000e+00
       22  1    3    3    0    0 -2.6606890763e+01 +1.2849329199e+01 -4.3447542499e+01 5.2542562234e+01 0.0000000000e+00 0.0000e+00 -1.0000e+00
<rwgt>
<wgt id='SM'> +8.2344906e-06 </wgt>
<wgt id='morphing_basis_vector_1'> +7.0067116e-06 </wgt>
<wgt id='morphing_basis_vector_2'> +8.5144964e-06 </wgt>
<wgt id='morphing_basis_vector_4'> +6.8347455e-06 </wgt>
<wgt id='morphing_basis_vector_5'> +8.6541998e-06 </wgt>
</rwgt>
</event>
<event>
 7      1 +1.0054000e-05 2.23477400e+02 7.81860800e-03 1.28247800e-01
        2 -1    0    0  502    0 +0.0000000000e+00 +0.0000000000e+00 +1.6308625498e+03 1.6308625498e+03 0.0000000000e+00 0.0000e+00 -1.0000e+00
        1 -1    0    0  501    0 -0.0000000000e+00 -0.0000000000e+00 -2.4215994956e+03 2.4215994956e+03 0.0000000000e+00 0.0000e+00 -1.0000e+00
       25  2    1    2    0    0 +2.4836996087e+02 -6.8804297792e+01 -4.0808451374e+02 4.9857708765e+02 1.2499789245e+02 0.0000e+00 0.0000e+00
        2  1    1    2  501    0 -2.1528295362e+02 +4.0058977648e+01 -1.9618731351e+03 1.9740561467e+03 0.0000000000e+00 0.0000e+00 -1.0000e+00
        1  1    1    2  502    0 -3.3087007256e+01 +2.8745320144e+01 +1.5792207030e+03 1.5798288111e+03 0.0000000000e+00 0.0000e+00 -1.0000e+00
       22  1    3    3    0    0 +4.6099567847e+01 -2.7123057831e+01 -1.6675711581e+01 5.6025974141e+01 0.0000000000e+00 0.0000e+00 -1.0000e+00
       22  1    3    3    0    0 +2.0227039302e+02 -4.1681239961e+01 -3.9140880216e+02 4.4255111351e+02 0.0000000000e+00 0.0000e+00 -1.0000e+00
<rwgt>
<wgt id='SM'> +8.8578563e-06 </wgt>
<wgt id='morphing_basis_vector_1'> +7.7116935e-06 </wgt>
<wgt id='morphing_basis_vector_2'> +9.6698929e-06 </wgt>
<wgt id='morphing_basis_vector_4'> +8.1642091e-06 </wgt>
<wgt id='morphing_basis_vector_5'> +8.5440940e-06 </wgt>
</rwgt>
</event>
<event>
 7      1 +1.0054000e-05 1.00039100e+02 7.81860800e-03 1.28984900e-01
        2 -1    0    0  502    0 +0.0000000000e+00 +0.0000000000e+00 +2.9367285702e+03 2.9367285702e+03 0.0000000000e+00 0.0000e+00 -1.0000e+00
        1 -1    0    0  501    0 -0.0000000000e+00 -0.0000000000e+00 -1.1759118312e+01 1.1759118312e+01 0.0000000000e+00 0.0000e+00 -1.0000e+00
       25  2    1    2    0    0 -1.1855142615e+01 -3.1580272840e+01 +9.2100668881e+02 9.3006370777e+02 1.2500928619e+02 0.0000e+00 0.0000e+00
        2  1    1    2  501    0 +9.6250532396e+00 -9.9575006184e+01 +5.9323474726e+02 6.0161057908e+02 0.0000000000e+00 0.0000e+00 -1.0000e+00
        1  1    1    2  502    0 +2.2300893752e+00 +1.3115527902e+02 +1.4107280158e+03 1.4168134017e+03 0.0000000000e+00 0.0000e+00 -1.0000e+00
       22  1    3    3    0    0 +2.2273568450e+01 +5.9913863536e+00 +7.7754996040e+02 7.7789199089e+02 0.0000000000e+00 0.0000e+00 1.0000e+00
       22  1    3    3    0    0 -3.4128711065e+01 -3.7571659193e+01 +1.4345672841e+02 1.5217171688e+02 0.0000000000e+00 0.0000e+00 1.0000e+00
<rwgt>
<wgt id='SM'> +1.0242083e-05 </wgt>
<wgt id='morphing_basis_vector_1'> +1.0359271e-05 </wgt>
<wgt id='morphing_basis_vector_2'> +1.0278854e-05 </wgt>
<wgt id='morphing_basis_vector_4'> +1.0460402e-05 </wgt>
<wgt id='morphing_basis_vector_5'> +1.0156712e-05 </wgt>
</rwgt>
</event>
<event>
 7      1 +1.0054000e-05 1.07163000e+02 7.81860800e-03 1.41580700e-01
        2 -1    0    0  502    0 +0.0000000000e+00 +0.0000000000e+00 +1.8336701932e+03 1.8336701932e+03 0.0000000000e+00 0.0000e+00 -1.0000e+00
        1 -1    0    0  501    0 -0.0000000000e+00 -0.0000000000e+00 -9.7385248182e+01 9.7385248182e+01 0.0000000000e+00 0.0000e+00 -1.0000e+00
       25  2    1    2    0    0 +7.5949377670e+01 -5.7165464198e+01 +3.9607442285e+02 4.2606930066e+02 1.2499560899e+02 0.0000e+00 0.0000e+00
        2  1    1    2  501    0 -1.0035070591e+02 +4.1167411610e+01 -4.6467586364e+01 1.1800108702e+02 0.0000000000e+00 0.0000e+00 -1.0000e+00
        1  1    1    2  502    0 +2.4401328238e+01 +1.5998052588e+01 +1.3866781085e+03 1.3869850537e+03 0.0000000000e+00 0.0000e+00 -1.0000e+00
       22  1    3    3    0    0 +7.5354501117e+01 -2.7807740331e+01 +3.8712814613e+02 3.9537295404e+02 0.0000000000e+00 0.0000e+00 -1.0000e+00
       22  1    3    3    0    0 +5.9487655357e-01 -2.9357723867e+01 +8.9462767186e+00 3.0696346621e+01 0.0000000000e+00 0.0000e+00 -1.0000e+00
<rwgt>
<wgt id='SM'> +9.7628580e-06 </wgt>
<wgt id='morphing_basis_vector_1'> +9.5704749e-06 </wgt>
<wgt id='morphing_basis_vector_2'> +9.7711509e-06 </wgt>
<wgt id='morphing_basis_vector_4'> +9.5020507e-06 </wgt>
<wgt id='morphing_basis_vector_5'> +9.8698100e-06 </wgt>
</rwgt>
</event>
<event>
 7      1 +1.0054000e-05 4.61578700e+01 7.81860800e-03 1.46902000e-01
        2 -1    0    0  502    0 +0.0000000000e+00 +0.0000000000e+00 +2.4052678787e+02 2.4052678787e+02 0.0000000000e+00 0.0000e+00 -1.0000e+00
        1 -1    0    0  501    0 -0.0000000000e+00 -0.0000000000e+00 -1.6082738964e+03 1.6082738964e+03 0.0000000000e+00 0.0000e+00 -1.0000e+00
       25  2    1    2    0    0 -4.1287720145e+00 +5.5768093328e+01 -4.6048838329e+01 1.4447093747e+02 1.2499691704e+02 0.0000e+00 0.0000e+00
        2  1    1    2  501    0 -3.4201863443e+01 -3.1119832895e+01 -1.5099412343e+03 1.5106491130e+03 0.0000000000e+00 0.0000e+00 -1.0000e+00
        1  1    1    2  502    0 +3.8330635458e+01 -2.4648260433e+01 +1.8824296414e+02 1.9368063379e+02 0.0000000000e+00 0.0000e+00 -1.0000e+00
       22  1    3    3    0    0 +1.8228210179e+01 +3.2817987733e+01 +3.8670670228e+01 5.3895349531e+01 0.0000000000e+00 0.0000e+00 -1.0000e+00
       22  1    3    3    0    0 -2.2356982194e+01 +2.2950105595e+01 -8.4719508557e+01 9.0575587935e+01 0.0000000000e+00 0.0000e+00 -1.0000e+00
<rwgt>
<wgt id='SM'> +1.0121567e-05 </wgt>
<wgt id='morphing_basis_vector_1'> +1.0083745e-05 </wgt>
<wgt id='morphing_basis_vector_2'> +1.0274214e-05 </wgt>
<wgt id='morphing_basis_vector_4'> +1.0253285e-05 </wgt>
<wgt id='morphing_basis_vector_5'> +9.9467133e-06 </wgt>
</rwgt>
</event>
<event>
 7      1 +1.0054000e-05 2.41818400e+02 7.81860800e-03 1.21976700e-01
        2 -1    0    0  502    0 +0.0000000000e+00 +0.0000000000e+00 +2.1029482709e+03 2.1029482709e+03 0.0000000000e+00 0.0000e+00 -1.0000e+00
        1 -1    0    0  501    0 -0.0000000000e+00 -0.0000000000e+00 -5.5048661607e+02 5.5048661607e+02 0.0000000000e+00 0.0000e+00 -1.0000e+00
       25  2    1    2    0    0 +1.3424848464e+02 +1.7045399177e+02 +6.0280024652e+02 6.5274085619e+02 1.2500107678e+02 0.0000e+00 0.0000e+00
        2  1    1    2  501    0 -8.5066203194e+01 -2.2803361321e+02 -4.9629261235e+02 5.5275848682e+02 0.0000000000e+00 0.0000e+00 -1.0000e+00
        1  1    1    2  502    0 -4.9182281447e+01 +5.7579621446e+01 +1.4459540206e+03 1.4479355439e+03 0.0000000000e+00 0.0000e+00 -1.0000e+00
       22  1    3    3    0    0 +5.2726080294e+01 +9.3227788730e+00 +2.5819237643e+02 2.6368590595e+02 0.0000000000e+00 0.0000e+00 1.0000e+00
       22  1    3    3    0    0 +8.1522404347e+01 +1.6113121289e+02 +3.4460787009e+02 3.8905495024e+02 0.0000000000e+00 0.0000e+00 1.0000e+00
<rwgt>
<wgt id='SM'> +8.6230114e-06 </wgt>
<wgt id='morphing_basis_vector_1'> +7.8236525e-06 </wgt>
<wgt id='morphing_basis_vector_2'> +8.4763446e-06 </wgt>
<wgt id='morphing_basis_vector_4'> +7.3410931e-06 </wgt>
<wgt id='morphing_basis_vector_5'> +9.3271395e-06 </wgt>
</rwgt>
</event>
<event>
 7      1 +1.0054000e-05 1.08224200e+02 7.81860800e-03 1.42000100e-01
        2 -1    0    0  502    0 +0.0000000000e+00 +0.0000000000e+00 +2.2009283092e+03 2.2009283092e+03 0.0000000000e+00 0.0000e+00 -1.0000e+00
        1 -1    0    0  501    0 -0.0000000000e+00 -0.0000000000e+00 -7.6276508226e+01 7.6276508226e+01 0.0000000000e+00 0.0000e+00 -1.0000e+00
       25  2    1    2    0    0 -7.4725655714e+01 -5.9144131489e+01 +6.2832766081e+02 6.4769387592e+02 1.2501902119e+02 0.0000e+00 0.0000e+00
        2  1    1    2  501    0 +9.9280374602e+01 +4.5745824864e+01 -2.1518487355e+01 1.1141058555e+02 0.0000000000e+00 0.0000e+00 -1.0000e+00
        1  1    1    2  502    0 -2.4554718888e+01 +1.3398306626e+01 +1.5178426275e+03 1.5181003559e+03 0.0000000000e+00 0.0000e+00 -1.0000e+00
       22  1    3    3    0    0 -1.7934053269e+01 -5.1396776591e+01 +5.3779010621e+02 5.4053811822e+02 0.0000000000e+00 0.0000e+00 -1.0000e+00
       22  1    3    3    0    0 -5.6791602445e+01 -7.7473548981e+00 +9.0537554594e+01 1.0715575770e+02 0.0000000000e+00 0.0000e+00 -1.0000e+00
<rwgt>
<wgt id='SM'> +1.0079693e-05 </wgt>
<wgt id='morphing_basis_vector_1'> +9.9467775e-06 </wgt>
<wgt id='morphing_basis_vector_2'> +1.0359829e-05 </wgt>
<wgt id='morphing_basis_vector_4'> +1.0230004e-05 </wgt>
<wgt id='morphing_basis_vector_5'> +9.7994551e-06 </wgt>
</rwgt>
</event>
<event>
 7      1 +1.0054000e-05 4.97517400e+01 7.81860800e-03 1.54078700e-01
        2 -1    0    0  502    0 +0.0000000000e+00 +0.0000000000e+00 +6.8726841710e+01 6.8726841710e+01 0.0000000000e+00 0.0000e+00 -1.0000e+00
        1 -1    0    0  501    0 -0.0000000000e+00 -0.0000000000e+00 -1.0416732574e+03 1.0416732574e+03 0.0000000000e+00 0.0000e+00 -1.0000e+00
       25  2    1    2    0    0 -7.3111202705e+01 +1.6054153051e+01 -7.0246287499e+01 1.6174747086e+02 1.2499887852e+02 0.0000e+00 0.0000e+00
        2  1    1    2  501    0 +4.8919011744e+01 -6.8084828931e+00 -9.1749666176e+02 9.1882509189e+02 0.0000000000e+00 0.0000e+00 -1.0000e+00
        1  1    1    2  502    0 +2.4192190962e+01 -9.2456701576e+00 +1.4796533560e+01 2.9827536365e+01 0.0000000000e+00 0.0000e+00 -1.0000e+00
       22  1    3    3    0    0 +9.8949165214e+00 +4.1215416883e+01 -6.1333651763e+01 7.4554924723e+01 0.0000000000e+00 0.0000e+00 -1.0000e+00
       22  1    3    3    0    0 -8.3006119227e+01 -2.5161263832e+01 -8.9126357362e+00 8.7192546141e+01 0.0000000000e+00 0.0000e+00 -1.0000e+00
<rwgt>
<wgt id='SM'> +9.8863887e-06 </wgt>
<wgt id='morphing_basis_vector_1'> +9.7138359e-06 </wgt>
<wgt id='morphing_basis_vector_2'> +1.0005960e-05 </wgt>
<wgt id='morphing_basis_vector_4'> +9.7870607e-06 </wgt>
<wgt id='morphing_basis_vector_5'> +9.8364968e-06 </wgt>
</rwgt>
</event>
<event>
 7      1 +1.0054000e-05 9.50294200e+01 7.81860800e-03 1.29790400e-01
        2 -1    0    0  502    0 +0.0000000000e+00 +0.0000000000e+00 +7.7623192188e+01 7.7623192188e+01 0.0000000000e+00 0.0000e+00 -1.0000e+00
        1 -1    0    0  501    0 -0.0000000000e+00 -0.0000000000e+00 -1.2081076022e+03 1.2081076022e+03 0.0000000000e+00 0.0000e+00 -1.0000e+00
       25  2    1    2    0    0 -2.3488107751e+01 -3.0280739482e+01 -3.0864416967e+02 3.3519454763e+02 1.2500218757e+02 0.0000e+00 0.0000e+00
        2  1    1    2  501    0 +5.5560790114e+01 -6.9797925902e+01 -8.3927880425e+02 8.4400690940e+02 0.0000000000e+00 0.0000e+00 -1.0000e+00
        1  1    1    2  502    0 -3.2072682363e+01 +1.0007866538e+02 +1.7438563858e+01 1.0652933741e+02 0.0000000000e+00 0.0000e+00 -1.0000e+00
       22  1    3    3    0    0 +6.7355910454e+00 +1.2262079106e+01 -2.6974131613e+02 2.7010387705e+02 0.0000000000e+00 0.0000e+00 1.0000e+00
       22  1    3    3    0    0 -3.0223698797e+01 -4.2542818587e+01 -3.8902853539e+01 6.5090670574e+01 0.0000000000e+00 0.0000e+00 1.0000e+00
<rwgt>
<wgt id='SM'> +1.0257776e-05 </wgt>
<wgt id='morphing_basis_vector_1'> +1.0283422e-05 </wgt>
<wgt id='morphing_basis_vector_2'> +1.0460296e-05 </wgt>
<wgt id='morphing_basis_vector_4'> +1.0540634e-05 </wgt>
<wgt id='morphing_basis_vector_5'> +9.9826875e-06 </wgt>
</rwgt>
</event>
<event>
 7      1 +1.0054000e-05 1.97460300e+02 7.81860800e-03 1.21358800e-01
        2 -1    0    0  502    0 +0.0000000000e+00 +0.0000000000e+00 +1.4028219125e+03 1.4028219125e+03 0.0000000000e+00 0.0000e+00 -1.0000e+00
        1 -1    0    0  501    0 -0.0000000000e+00 -0.0000000000e+00 -2.4420910404e+02 2.4420910404e+02 0.0000000000e+00 0.0000e+00 -1.0000e+00
       25  2    1    2    0    0 +6.9494103568e+01 -2.2828548475e+02 +9.8078719405e+01 2.8668368001e+02 1.2499761680e+02 0.0000e+00 0.0000e+00
        2  1    1    2  501    0 -1.2192700341e+02 +1.4432538570e+02 -8.7388144412e+01 2.0816507608e+02 0.0000000000e+00 0.0000e+00 -1.0000e+00
        1  1    1    2  502    0 +5.2432899839e+01 +8.3960099047e+01 +1.1479222335e+03 1.1521822604e+03 0.0000000000e+00 0.0000e+00 -1.0000e+00
       22  1    3    3    0    0 +1.7657436369e+01 -1.7783958988e+02 +1.9328068682e+01 1.7975616547e+02 0.0000000000e+00 0.0000e+00 -1.0000e+00
       22  1    3    3    0    0 +5.1836667199e+01 -5.0445894870e+01 +7.8750650724e+01 1.0692751454e+02 0.0000000000e+00 0.0000e+00 -1.0000e+00
<rwgt>
<wgt id='SM'> +7.9897599e-06 </wgt>
<wgt id='morphing_basis_vector_1'> +6.7322838e-06 </wgt>
<wgt id='morphing_basis_vector_2'> +8.0691355e-06 </wgt>
<wgt id='morphing_basis_vector_4'> +6.3277924e-06 </wgt>
<wgt id='morphing_basis_vector_5'> +8.7051242e-06 </wgt>
</rwgt>
</event>
<event>
 7      1 +1.0054000e-05 5.92053500e+01 7.81860800e-03 1.40506400e-01
        2 -1    0    0  502    0 +0.0000000000e+00 +0.0000000000e+00 +3.4822785985e+02 3.4822785985e+02 0.0000000000e+00 0.0000e+00 -1.0000e+00
        1 -1    0    0  501    0 -0.0000000000e+00 -0.0000000000e+00 -5.3482586769e+02 5.3482586769e+02 0.0000000000e+00 0.0000e+00 -1.0000e+00
       25  2    1    2    0    0 -2.1254001063e+01 +8.3668018041e+01 +1.0201848746e+02 1.8298585554e+02 1.2499592689e+02 0.0000e+00 0.0000e+00
        2  1    1    2  501    0 -2.6926125626e+01 -5.0724474076e+01 -4.8848624972e+02 4.9185038851e+02 0.0000000000e+00 0.0000e+00 -1.0000e+00
        1  1    1    2  502    0 +4.8180126689e+01 -3.2943543965e+01 +1.9986975443e+02 2.0821748349e+02 0.0000000000e+00 0.0000e+00 -1.0000e+00
       22  1    3    3    0    0 -2.6255833374e+01 -2.9005175553e+01 +2.6371450446e+01 4.7181801509e+01 0.0000000000e+00 0.0000e+00 1.0000e+00
       22  1    3    3    0    0 +5.0018323107e+00 +1.1267319359e+02 +7.5647037014e+01 1.3580405403e+02 0.0000000000e+00 0.0000e+00 1.0000e+00
<rwgt>
<wgt id='SM'> +1.0147651e-05 </wgt>
<wgt id='morphing_basis_vector_1'> +1.0020073e-05 </wgt>
<wgt id='morphing_basis_vector_2'> +1.0501589e-05 </wgt>
<wgt id='morphing_basis_vector_4'> +1.0394709e-05 </wgt>
<wgt id='morphing_basis_vector_5'> +9.7707365e-06 </wgt>
</rwgt>
</event>
<event>
 7      1 +1.0054000e-05 1.55931000e+02 7.81860800e-03 1.41143500e-01
        2 -1    0    0  502    0 +0.0000000000e+00 +0.0000000000e+00 +5.1300834162e+02 5.1300834162e+02 0.0000000000e+00 0.0000e+00 -1.0000e+00
        1 -1    0    0  501    0 -0.0000000000e+00 -0.0000000000e+00 -1.1367356423e+02 1.1367356423e+02 0.0000000000e+00 0.0000e+00 -1.0000e+00
       25  2    1    2    0    0 -1.2948357704e+02 -5.7436867720e+01 +2.7378426291e+01 1.9089137997e+02 1.2499980090e+02 0.0000e+00 0.0000e+00
        2  1    1    2  501    0 -2.0233285138e+01 +4.5780899895e+00 -9.3454960326e+00 2.2752648890e+01 0.0000000000e+00 0.0000e+00 -1.0000e+00
        1  1    1    2  502    0 +1.4971686217e+02 +5.2858777731e+01 +3.8130184713e+02 4.1303787699e+02 0.0000000000e+00 0.0000e+00 -1.0000e+00
       22  1    3    3    0    0 +1.7210066357e+01 -3.5758101828e+01 -1.9501608706e+00 3.9731994133e+01 0.0000000000e+00 0.0000e+00 -1.0000e+00
       22  1    3    3    0    0 -1.4669364339e+02 -2.1678765892e+01 +2.9328587162e+01 1.5115938584e+02 0.0000000000e+00 0.0000e+00 -1.0000e+00
<rwgt>
<wgt id='SM'> +9.5922312e-06 </wgt>
<wgt id='morphing_basis_vector_1'> +9.3992000e-06 </wgt>
<wgt id='morphing_basis_vector_2'> +9.4165919e-06 </wgt>
<wgt id='morphing_basis_vector_4'> +9.1181433e-06 </wgt>
<wgt id='morphing_basis_vector_5'> +9.9536346e-06 </wgt>
</rwgt>
</event>
<event>
 7      1 +1.0054000e-05 6.61752800e+01 7.81860800e-03 1.39845700e-01
        2 -1    0    0  502    0 +0.0000000000e+00 +0.0000000000e+00 +2.2227573728e+03 2.2227573728e+03 0.0000000000e+00 0.0000e+00 -1.0000e+00
        1 -1    0    0  501    0 -0.0000000000e+00 -0.0000000000e+00 -8.5774986334e+02 8.5774986334e+02 0.0000000000e+00 0.0000e+00 -1.0000e+00
       25  2    1    2    0    0 +2.4850357454e+01 +2.8312329714e+01 -3.8985891925e+02 4.1113759805e+02 1.2500007733e+02 0.0000e+00 0.0000e+00
        2  1    1    2  501    0 -7.6409575817e+01 -1.1823765620e+01 -4.5364902166e+02 4.6019089469e+02 0.0000000000e+00 0.0000e+00 -1.0000e+00
        1  1    1    2  502    0 +5.1559218363e+01 -1.6488564093e+01 +2.2085154504e+03 2.2091787434e+03 0.0000000000e+00 0.0000e+00 -1.0000e+00
       22  1    3    3    0    0 +2.0725912066e+01 -4.7472958431e+01 -2.0176311582e+02 2.0830650522e+02 0.0000000000e+00 0.0000e+00 1.0000e+00
       22  1    3    3    0    0 +4.1244453886e+00 +7.5785288145e+01 -1.8809580343e+02 2.0283109283e+02 0.0000000000e+00 0.0000e+00 1.0000e+00
<rwgt>
<wgt id='SM'> +1.0140267e-05 </wgt>
<wgt id='morphing_basis_vector_1'> +1.0109407e-05 </wgt>
<wgt id='morphing_basis_vector_2'> +1.0303115e-05 </wgt>
<wgt id='morphing_basis_vector_4'> +1.0294240e-05 </wgt>
<wgt id='morphing_basis_vector_5'> +9.9487060e-06 </wgt>
</rwgt>
</event>
<event>
 7      1 +1.0054000e-05 5.19494200e+01 7.81860800e-03 1.44405200e-01
        2 -1    0    0  502    0 +0.0000000000e+00 +0.0000000000e+00 +1.9625529803e+03 1.9625529803e+03 0.0000000000e+00 0.0000e+00 -1.0000e+00
        1 -1    0    0  501    0 -0.0000000000e+00 -0.0000000000e+00 -1.4271233811e+03 1.4271233811e+03 0.0000000000e+00 0.0000e+00 -1.0000e+00
       25  2    1    2    0    0 +1.6206666243e+00 -1.0307820613e+01 +1.2233266122e+03 1.2297405682e+03 1.2499994849e+02 0.0000e+00 0.0000e+00
        2  1    1    2  501    0 -5.0074102707e+01 +1.3901117111e+01 -1.4226396295e+03 1.4235884842e+03 0.0000000000e+00 0.0000e+00 -1.0000e+00
        1  1    1    2  502    0 +4.8453436083e+01 -3.5932964982e+00 +7.3474261639e+02 7.3634730908e+02 0.0000000000e+00 0.0000e+00 -1.0000e+00
       22  1    3    3    0    0 +5.9477792673e+01 -1.1365231146e+01 +4.2135190112e+02 4.2568086740e+02 0.0000000000e+00 0.0000e+00 1.0000e+00
       22  1    3    3    0    0 -5.7857126049e+01 +1.0574105329e+00 +8.0197471109e+02 8.0405970076e+02 0.0000000000e+00 0.0000e+00 1.0000e+00
<rwgt>
<wgt id='SM'> +1.0011404e-05 </wgt>
<wgt id='morphing_basis_vector_1'> +1.0004934e-05 </wgt>
<wgt id='morphing_basis_vector_2'> +9.9724630e-06 </wgt>
<wgt id='morphing_basis_vector_4'> +9.9552727e-06 </wgt>
<wgt id='morphing_basis_vector_5'> +1.0066862e-05 </wgt>
</rwgt>
</event>
<event>
 7      1 +1.0054000e-05 6.46650400e+01 7.81860800e-03 1.42184300e-01
        2 -1    0    0  502    0 +0.0000000000e+00 +0.0000000000e+00 +8.1263318580e+02 8.1263318580e+02 0.0000000000e+00 0.0000e+00 -1.0000e+00
        1 -1    0    0  501    0 -0.0000000000e+00 -0.0000000000e+00 -1.9115280891e+03 1.9115280891e+03 0.0000000000e+00 0.0000e+00 -1.0000e+00
       25  2    1    2    0    0 +8.6431571061e+01 -2.2775068846e+00 -1.0794554027e+03 1.0901027549e+03 1.2499778518e+02 0.0000e+00 0.0000e+00
        2  1    1    2  501    0 -3.2258297233e+01 -3.3013162403e+01 -8.2480825649e+02 8.2609873901e+02 0.0000000000e+00 0.0000e+00 -1.0000e+00
        1  1    1    2  502    0 -5.4173273828e+01 +3.5290669287e+01 +8.0536875582e+02 8.0795978105e+02 0.0000000000e+00 0.0000e+00 -1.0000e+00
       22  1    3    3    0    0 +7.1487519521e+01 -5.8601884294e+01 -5.9133871695e+02 5.9851994491e+02 0.0000000000e+00 0.0000e+00 1.0000e+00
       22  1    3    3    0    0 +1.4944051541e+01 +5.6324377409e+01 -4.8811668572e+02 4.9158280996e+02 0.0000000000e+00 0.0000e+00 1.0000e+00
<rwgt>
<wgt id='SM'> +9.6839940e-06 </wgt>
<wgt id='morphing_basis_vector_1'> +9.4701888e-06 </wgt>
<wgt id='morphing_basis_vector_2'> +9.6388059e-06 </wgt>
<wgt id='morphing_basis_vector_4'> +9.3288972e-06 </wgt>
<wgt id='morphing_basis_vector_5'> +9.8749371e-06 </wgt>
</rwgt>
</event>
<event>
 7      1 +1.0054000e-05 5.40296800e+01 7.81860800e-03 1.45165800e-01
        2 -1    0    0  502    0 +0.0000000000e+00 +0.0000000000e+00 +1.1874325264e+02 1.1874325264e+02 0.0000000000e+00 0.0000e+00 -1.0000e+00
        1 -1    0    0  501    0 -0.0000000000e+00 -0.0000000000e+00 -8.1695994084e+02 8.1695994084e+02 0.0000000000e+00 0.0000e+00 -1.0000e+00
       25  2    1    2    0    0 +4.4331553439e+01 -1.4317806917e+01 -1.0606512823e+02 1.7041963162e+02 1.2499101243e+02 0.0000e+00 0.0000e+00
        2  1    1    2  501    0 -2.3694265823e+01 -3.7268168543e+01 -6.6899871986e+02 6.7045478728e+02 0.0000000000e+00 0.0000e+00 -1.0000e+00
        1  1    1    2  502    0 -2.0637287616e+01 +5.1585975460e+01 +7.6847159895e+01 9.4828774579e+01 0.0000000000e+00 0.0000e+00 -1.0000e+00
       22  1    3    3    0    0 -2.3639087408e+01 +3.7355480192e+01 -1.7917438376e+01 4.7699821297e+01 0.0000000000e+00 0.0000e+00 -1.0000e+00
       22  1    3    3    0    0 +6.7970640847e+01 -5.1673287109e+01 -8.8147689857e+01 1.2271981032e+02 0.0000000000e+00 0.0000e+00 -1.0000e+00
<rwgt>
<wgt id='SM'> +9.8918586e-06 </wgt>
<wgt id='morphing_basis_vector_1'> +9.8247391e-06 </wgt>
<wgt id='morphing_basis_vector_2'> +9.8210832e-06 </wgt>
<wgt id='morphing_basis_vector_4'> +9.7117760e-06 </wgt>
<wgt id='morphing_basis_vector_5'> +1.0025783e-05 </wgt>
</rwgt>
</event>
<event>
 7      1 +1.0054000e-05 7.42438100e+01 7.81860800e-03 1.44119300e-01
        2 -1    0    0  502    0 +0.0000000000e+00 +0.0000000000e+00 +2.1682824588e+03 2.1682824588e+03 0.0000000000e+00 0.0000e+00 -1.0000e+00
        1 -1    0    0  501    0 -0.0000000000e+00 -0.0000000000e+00 -3.5010674512e+01 3.5010674512e+01 0.0000000000e+00 0.0000e+00 -1.0000e+00
       25  2    1    2    0    0 -5.2887635738e+01 -7.5965334054e+01 +5.3816712611e+02 5.6019311540e+02 1.2499854769e+02 0.0000e+00 0.0000e+00
        2  1    1    2  501    0 +5.9642774951e+01 +4.1900558402e+01 +3.1991860017e+01 7.9601485574e+01 0.0000000000e+00 0.0000e+00 -1.0000e+00
        1  1    1    2  502    0 -6.7551392131e+00 +3.4064775652e+01 +1.5631127981e+03 1.5634985323e+03 0.0000000000e+00 0.0000e+00 -1.0000e+00
       22  1    3    3    0    0 -4.0937198675e+01 -4.8493132226e+01 +5.2258491400e+02 5.2642419250e+02 0.0000000000e+00 0.0000e+00 -1.0000e+00
       22  1    3    3    0    0 -1.1950437063e+01 -2.7472201829e+01 +1.5582212102e+01 3.3768922892e+01 0.0000000000e+00 0.0000e+00 -1.0000e+00
<rwgt>
<wgt id='SM'> +1.0060606e-05 </wgt>
<wgt id='morphing_basis_vector_1'> +9.8895374e-06 </wgt>
<wgt id='morphing_basis_vector_2'> +1.0389672e-05 </wgt>
<wgt id='morphing_basis_vector_4'> +1.0215315e-05 </wgt>
<wgt id='morphing_basis_vector_5'> +9.7412652e-06 </wgt>
</rwgt>
</event>
<event>
 7      1 +1.0054000e-05 1.07185300e+02 7.81860800e-03 1.33109600e-01
        2 -1    0    0  502    0 +0.0000000000e+00 +0.0000000000e+00 +1.0602855632e+03 1.0602855632e+03 0.0000000000e+00 0.0000e+00 -1.0000e+00
        1 -1    0    0  501    0 -0.0000000000e+00 -0.0000000000e+00 -8.5877436674e+02 8.5877436674e+02 0.0000000000e+00 0.0000e+00 -1.0000e+00
       25  2    1    2    0    0 +4.2489022630e+01 +2.6821565605e+01 -7.8752521629e+01 1.5604843041e+02 1.2499775816e+02 0.0000e+00 0.0000e+00
        2  1    1    2  501    0 +5.3697955302e+01 +2.3576056066e+01 -7.3732076112e+02 7.3964938018e+02 0.0000000000e+00 0.0000e+00 -1.0000e+00
        1  1    1    2  502    0 -9.6186977932e+01 -5.0397621671e+01 +1.0175844792e+03 1.0233621193e+03 0.0000000000e+00 0.0000e+00 -1.0000e+00
       22  1    3    3    0    0 +8.0203102904e+01 +3.7685569706e+01 -7.5934799064e+01 1.1669975830e+02 0.0000000000e+00 0.0000e+00 1.0000e+00
       22  1    3    3    0    0 -3.7714080274e+01 -1.0864004101e+01 -2.8177225655e+00 3.9348672105e+01 0.0000000000e+00 0.0000e+00 1.0000e+00
<rwgt>
<wgt id='SM'> +1.0001676e-05 </wgt>
<wgt id='morphing_basis_vector_1'> +9.9614798e-06 </wgt>
<wgt id='morphing_basis_vector_2'> +1.0012989e-05 </wgt>
<wgt id='morphing_basis_vector_4'> +9.9587354e-06 </wgt>
<wgt id='morphing_basis_vector_5'> +1.0011412e-05 </wgt>
</rwgt>
</event>
<event>
 7      1 +1.0054000e-05 6.65306500e+01 7.81860800e-03 1.38024800e-01
        2 -1    0    0  502    0 +0.0000000000e+00 +0.0000000000e+00 +9.2359644454e+02 9.2359644454e+02 0.0000000000e+00 0.0000e+00 -1.0000e+00
        1 -1    0    0  501    0 -0.0000000000e+00 -0.0000000000e+00 -1.5128028809e+03 1.5128028809e+03 0.0000000000e+00 0.0000e+00 -1.0000e+00
       25  2    1    2    0    0 +6.6303210324e+01 -1.0264094126e+02 +1.9100943423e+02 2.5892216223e+02 1.2499921443e+02 0.0000e+00 0.0000e+00
        2  1    1    2  501    0 -4.6521839122e+01 +4.1489228973e+01 -1.4767094071e+03 1.4780244621e+03 0.0000000000e+00 0.0000e+00 -1.0000e+00
        1  1    1    2  502    0 -1.9781371202e+01 +6.1151712284e+01 +6.9649353654e+02 6.9945270105e+02 0.0000000000e+00 0.0000e+00 -1.0000e+00
       22  1    3    3    0    0 +2.2237205875e+01 -1.1926347288e+02 +1.0317959245e+02 1.5926172669e+02 0.0000000000e+00 0.0000e+00 -1.0000e+00
       22  1    3    3    0    0 +4.4066004448e+01 +1.6622531626e+01 +8.7829841780e+01 9.9660435544e+01 0.0000000000e+00 0.0000e+00 -1.0000e+00
<rwgt>
<wgt id='SM'> +9.7166747e-06 </wgt>
<wgt id='morphing_basis_vector_1'> +9.4221754e-06 </wgt>
<wgt id='morphing_basis_vector_2'> +9.8620082e-06 </wgt>
<wgt id='morphing_basis_vector_4'> +9.4755192e-06 </wgt>
<wgt id='morphing_basis_vector_5'> +9.7079559e-06 </wgt>
</rwgt>
</event>
<event>
 7      1 +1.0054000e-05 6.07546100e+01 7.81860800e-03 1.41434400e-01
        2 -1    0    0  502    0 +0.0000000000e+00 +0.0000000000e+00 +7.2294093452e+02 7.2294093452e+02 0.0000000000e+00 0.0000e+00 -1.0000e+00
        1 -1    0    0  501    0 -0.0000000000e+00 -0.0000000000e+00 -4.3561078783e+02 4.3561078783e+02 0.0000000000e+00 0.0000e+00 -1.0000e+00
       25  2    1    2    0    0 -1.0163424056e+01 -4.6870499041e+01 +1.7436498583e+01 1.3501534706e+02 1.2499989436e+02 0.0000e+00 0.0000e+00
        2  1    1    2  501    0 -4.6644580912e+01 +2.3103938037e+01 -3.7354674410e+02 3.7715604053e+02 0.0000000000e+00 0.0000e+00 -1.0000e+00
        1  1    1    2  502    0 +5.6808004968e+01 +2.3766561004e+01 +6.4344039221e+02 6.4638033477e+02 0.0000000000e+00 0.0000e+00 -1.0000e+00
       22  1    3    3    0    0 -2.3298715401e+01 +3.2182586934e+01 -2.2306568067e+01 4.5564591736e+01 0.0000000000e+00 0.0000e+00 -1.0000e+00
       22  1    3    3    0    0 +1.3135291345e+01 -7.9053085975e+01 +3.9743066650e+01 8.9450755322e+01 0.0000000000e+00 0.0000e+00 -1.0000e+00
<rwgt>
<wgt id='SM'> +9.8887480e-06 </wgt>
<wgt id='morphing_basis_vector_1'> +9.8238803e-06 </wgt>
<wgt id='morphing_basis_vector_2'> +9.8100303e-06 </wgt>
<wgt id='morphing_basis_vector_4'> +9.7022236e-06 </wgt>
<wgt id='morphing_basis_vector_5'> +1.0031766e-05 </wgt>
</rwgt>
</event>
<event>
 7      1 +1.0054000e-05 9.40174500e+01 7.81860800e-03 1.33817600e-01
        2 -1    0    0  502    0 +0.0000000000e+00 +0.0000000000e+00 +1.0835513595e+03 1.0835513595e+03 0.0000000000e+00 0.0000e+00 -1.0000e+00
        1 -1    0    0  501    0 -0.0000000000e+00 -0.0000000000e+00 -3.2923255982e+01 3.2923255982e+01 0.0000000000e+00 0.0000e+00 -1.0000e+00
       25  2    1    2    0    0 +1.3721115825e+01 -2.6162499426e+01 +2.4555101516e+02 2.7711442377e+02 1.2499742965e+02 0.0000e+00 0.0000e+00
        2  1    1    2  501    0 -9.5335788801e+01 -2.0510048680e+01 +1.5932222451e+02 1.8679707157e+02 0.0000000000e+00 0.0000e+00 -1.0000e+00
        1  1    1    2  502    0 +8.1614672976e+01 +4.6672548106e+01 +6.4575486386e+02 6.5256312016e+02 0.0000000000e+00 0.0000e+00 -1.0000e+00
       22  1    3    3    0    0 -3.6019622257e+01 -5.3438150067e+01 +8.3866762034e+01 1.0576711608e+02 0.0000000000e+00 0.0000e+00 1.0000e+00
       22  1    3    3    0    0 +4.9740738082e+01 +2.7275650641e+01 +1.6168425313e+02 1.7134730769e+02 0.0000000000e+00 0.0000e+00 1.0000e+00
<rwgt>
<wgt id='SM'> +9.8404826e-06 </wgt>
<wgt id='morphing_basis_vector_1'> +9.8310313e-06 </wgt>
<wgt id='morphing_basis_vector_2'> +9.6120879e-06 </wgt>
<wgt id='morphing_basis_vector_4'> +9.5549719e-06 </wgt>
<wgt id='morphing_basis_vector_5'> +1.0157740e-05 </wgt>
</rwgt>
</event>
<event>
 7      1 +1.0054000e-05 1.55884600e+02 7.81860800e-03 1.31710600e-01
        2 -1    0    0  502    0 +0.0000000000e+00 +0.0000000000e+00 +1.8453755925e+03 1.8453755925e+03 0.0000000000e+00 0.0000e+00 -1.0000e+00
        1 -1    0    0  501    0 -0.0000000000e+00 -0.0000000000e+00 -1.8360704384e+02 1.8360704384e+02 0.0000000000e+00 0.0000e+00 -1.0000e+00
       25  2    1    2    0    0 -5.1260086625e+01 +1.3024177949e+02 +3.7251289831e+02 4.1711135829e+02 1.2500203279e+02 0.0000e+00 0.0000e+00
        2  1    1    2  501    0 +1.4475539446e+01 -1.5728663629e+02 -1.2218382789e+02 1.9969355271e+02 0.0000000000e+00 0.0000e+00 -1.0000e+00
        1  1    1    2  502    0 +3.6784547179e+01 +2.7044856795e+01 +1.4114394782e+03 1.4121777253e+03 0.0000000000e+00 0.0000e+00 -1.0000e+00
       22  1    3    3    0    0 -7.8590321804e+01 +3.9064816270e+01 +2.2547399079e+02 2.4195251409e+02 0.0000000000e+00 0.0000e+00 1.0000e+00
       22  1    3    3    0    0 +2.7330235179e+01 +9.1176963221e+01 +1.4703890752e+02 1.7515884420e+02 0.0000000000e+00 0.0000e+00 1.0000e+00
<rwgt>
<wgt id='SM'> +1.0136350e-05 </wgt>
<wgt id='morphing_basis_vector_1'> +9.8491595e-06 </wgt>
<wgt id='morphing_basis_vector_2'> +1.0782237e-05 </wgt>
<wgt id='morphing_basis_vector_4'> +1.0503788e-05 </wgt>
<wgt id='morphing_basis_vector_5'> +9.4924795e-06 </wgt>
</rwgt>
</event>
<event>
 7      1 +1.0054000e-05 7.17411700e+01 7.81860800e-03 1.42026400e-01
        2 -1    0    0  502    0 +0.0000000000e+00 +0.0000000000e+00 +7.3359545450e+02 7.3359545450e+02 0.0000000000e+00 0.0000e+00 -1.0000e+00
        1 -1    0    0  501    0 -0.0000000000e+00 -0.0000000000e+00 -2.9253683589e+01 2.9253683589e+01 0.0000000000e+00 0.0000e+00 -1.0000e+00
       25  2    1    2    0    0 -9.9930395198e+01 -2.7465655636e+01 +4.1977422805e+02 4.5008429441e+02 1.2500009367e+02 0.0000e+00 0.0000e+00
        2  1    1    2  501    0 +6.5466736808e+01 +3.2649256375e+00 +7.7704944255e+01 1.0165929239e+02 0.0000000000e+00 0.0000e+00 -1.0000e+00
        1  1    1    2  502    0 +3.4463658390e+01 +2.4200729999e+01 +2.0686259860e+02 2.1110555129e+02 0.0000000000e+00 0.0000e+00 -1.0000e+00
       22  1    3    3    0    0 -1.1593861847e+02 -6.5446830490e+00 +2.2174576354e+02 2.5031136566e+02 0.0000000000e+00 0.0000e+00 -1.0000e+00
       22  1    3    3    0    0 +1.6008223275e+01 -2.0920972587e+01 +1.9802846451e+02 1.9977292875e+02 0.0000000000e+00 0.0000e+00 -1.0000e+00
<rwgt>
<wgt id='SM'> +1.0042428e-05 </wgt>
<wgt id='morphing_basis_vector_1'> +9.4956563e-06 </wgt>
<wgt id='morphing_basis_vector_2'> +1.1107304e-05 </wgt>
<wgt id='morphing_basis_vector_4'> +1.0534576e-05 </wgt>
<wgt id='morphing_basis_vector_5'> +9.0575140e-06 </wgt>
</rwgt>
</event>
<event>
 7      1 +1.0054000e-05 1.72177600e+02 7.81860800e-03 1.22228600e-01
        2 -1    0    0  502    0 +0.0000000000e+00 +0.0000000000e+00 +2.9807878196e+03 2.9807878196e+03 0.0000000000e+00 0.0000e+00 -1.0000e+00
        1 -1    0    0  501    0 -0.0000000000e+00 -0.0000000000e+00 -7.7572336763e+02 7.7572336763e+02 0.0000000000e+00 0.0000e+00 -1.0000e+00
       25  2    1    2    0    0 +5.7646007642e+01 -1.7102347038e+02 +9.1242171923e+02 9.3845974551e+02 1.2498484151e+02 0.0000e+00 0.0000e+00
        2  1    1    2  501    0 +8.2193571291e+01 +6.3038149182e+01 -7.5536631314e+02 7.6243547821e+02 0.0000000000e+00 0.0000e+00 -1.0000e+00
        1  1    1    2  502    0 -1.3983957893e+02 +1.0798532119e+02 +2.0480090459e+03 2.0556159635e+03 0.0000000000e+00 0.0000e+00 -1.0000e+00
       22  1    3    3    0    0 -3.8768184688e+01 -3.2214881267e+01 +2.2271855254e+02 2.2835131786e+02 0.0000000000e+00 0.0000e+00 -1.0000e+00
       22  1    3    3    0    0 +9.6414192329e+01 -1.3880858911e+02 +6.8970316668e+02 7.1010842765e+02 0.0000000000e+00 0.0000e+00 -1.0000e+00
<rwgt>
<wgt id='SM'> +1.0542922e-05 </wgt>
<wgt id='morphing_basis_vector_1'> +9.9951740e-06 </wgt>
<wgt id='morphing_basis_vector_2'> +1.2234535e-05 </wgt>
<wgt id='morphing_basis_vector_4'> +1.1770505e-05 </wgt>
<wgt id='morphing_basis_vector_5'> +8.8304706e-06 </wgt>
</rwgt>
</event>
<event>
 7      1 +1.0054000e-05 5.75062400e+01 7.81860800e-03 1.44486800e-01
        2 -1    0    0  502    0 +0.0000000000e+00 +0.0000000000e+00 +2.7163790840e+03 2.7163790840e+03 0.0000000000e+00 0.0000e+00 -1.0000e+00
        1 -1    0    0  501    0 -0.0000000000e+00 -0.0000000000e+00 -6.3207186858e+01 6.3207186858e+01 0.0000000000e+00 0.0000e+00 -1.0000e+00
       25  2    1    2    0    0 -5.4442821744e+01 -3.6837394198e+01 +5.7674528691e+01 1.5255366182e+02 1.2500101609e+02 0.0000e+00 0.0000e+00
        2  1    1    2  501    0 +3.9405359442e+01 -1.8721328192e+01 +1.5357254691e+01 4.6250575712e+01 0.0000000000e+00 0.0000e+00 -1.0000e+00
        1  1    1    2  502    0 +1.5037462302e+01 +5.5558722390e+01 +2.5801401138e+03 2.5807820333e+03 0.0000000000e+00 0.0000e+00 -1.0000e+00
       22  1    3    3    0    0 -8.7875639837e+00 -7.6607947209e+01 +1.5203091826e+01 7.8594738103e+01 0.0000000000e+00 0.0000e+00 1.0000e+00
       22  1    3    3    0    0 -4.5655257761e+01 +3.9770553012e+01 +4.2471436865e+01 7.3958923717e+01 0.0000000000e+00 0.0000e+00 1.0000e+00
<rwgt>
<wgt id='SM'> +1.0256741e-05 </wgt>
<wgt id='morphing_basis_vector_1'> +1.0171952e-05 </wgt>
<wgt id='morphing_basis_vector_2'> +1.0666249e-05 </wgt>
<wgt id='morphing_basis_vector_4'> +1.0631519e-05 </wgt>
<wgt id='morphing_basis_vector_5'> +9.7855965e-06 </wgt>
</rwgt>
</event>
<event>
 7      1 +1.0054000e-05 4.66235900e+01 7.81860800e-03 1.48323500e-01
        2 -1    0    0  502    0 +0.0000000000e+00 +0.0000000000e+00 +1.5899859982e+02 1.5899859982e+02 0.0000000000e+00 0.0000e+00 -1.0000e+00
        1 -1    0    0  501    0 -0.0000000000e+00 -0.0000000000e+00 -5.7053602979e+02 5.7053602979e+02 0.0000000000e+00 0.0000e+00 -1.0000e+00
       25  2    1    2    0    0 -4.6090346468e+01 +5.7069714145e+01 -5.5434918828e+01 1.5516474866e+02 1.2498718611e+02 0.0000e+00 0.0000e+00
        2  1    1    2  501    0 +4.3226308683e+01 -1.6386304294e+01 -4.6022706107e+02 4.6254294122e+02 0.0000000000e+00 0.0000e+00 -1.0000e+00
        1  1    1    2  502    0 +2.8640377846e+00 -4.0683409851e+01 +1.0412454993e+02 1.1182693972e+02 0.0000000000e+00 0.0000e+00 -1.0000e+00
       22  1    3    3    0    0 -7.4620134063e+01 -5.8647518776e+00 -3.7786770772e+01 8.3847479196e+01 0.0000000000e+00 0.0000e+00 1.0000e+00
       22  1    3    3    0    0 +2.8529787596e+01 +6.2934466022e+01 -1.7648148056e+01 7.1317269463e+01 0.0000000000e+00 0.0000e+00 1.0000e+00
<rwgt>
<wgt id='SM'> +9.8447515e-06 </wgt>
<wgt id='morphing_basis_vector_1'> +9.7082436e-06 </wgt>
<wgt id='morphing_basis_vector_2'> +9.8465113e-06 </wgt>
<wgt id='morphing_basis_vector_4'> +9.6545919e-06 </wgt>
<wgt id='morphing_basis_vector_5'> +9.9259166e-06 </wgt>
</rwgt>
</event>
<event>
 7      1 +1.0054000e-05 8.90972700e+01 7.81860800e-03 1.36043300e-01
        2 -1    0    0  502    0 +0.0000000000e+00 +0.0000000000e+00 +8.3611934775e+02 8.3611934775e+02 0.0000000000e+00 0.0000e+00 -1.0000e+00
        1 -1    0    0  501    0 -0.0000000000e+00 -0.0000000000e+00 -6.2825597422e+01 6.2825597422e+01 0.0000000000e+00 0.0000e+00 -1.0000e+00
       25  2    1    2    0    0 +3.4274013407e+01 +1.0599639826e+02 +2.6340961079e+02 3.1212113883e+02 1.2500015122e+02 0.0000e+00 0.0000e+00
        2  1    1    2  501    0 +1.6612855328e+01 -8.5554300833e+01 +1.4423833089e+01 8.8337830594e+01 0.0000000000e+00 0.0000e+00 -1.0000e+00
        1  1    1    2  502    0 -5.0886868735e+01 -2.0442097429e+01 +4.9546030645e+02 4.9848597575e+02 0.0000000000e+00 0.0000e+00 -1.0000e+00
       22  1    3    3    0    0 +4.7350927326e+01 +8.2684343607e+01 +7.3493606422e+01 1.2033337518e+02 0.0000000000e+00 0.0000e+00 1.0000e+00
       22  1    3    3    0    0 -1.3076913919e+01 +2.3312054655e+01 +1.8991600437e+02 1.9178776365e+02 0.0000000000e+00 0.0000e+00 1.0000e+00
<rwgt>
<wgt id='SM'> +9.3800430e-06 </wgt>
<wgt id='morphing_basis_vector_1'> +9.0005562e-06 </wgt>
<wgt id='morphing_basis_vector_2'> +9.2902159e-06 </wgt>
<wgt id='morphing_basis_vector_4'> +8.7399939e-06 </wgt>
<wgt id='morphing_basis_vector_5'> +9.7351764e-06 </wgt>
</rwgt>
</event>
<event>
 7      1 +1.0054000e-05 2.10485300e+02 7.81860800e-03 1.27359600e-01
        2 -1    0    0  502    0 +0.0000000000e+00 +0.0000000000e+00 +1.0288526987e+03 1.0288526987e+03 0.0000000000e+00 0.0000e+00 -1.0000e+00
        1 -1    0    0  501    0 -0.0000000000e+00 -0.0000000000e+00 -3.8025791430e+02 3.8025791430e+02 0.0000000000e+00 0.0000e+00 -1.0000e+00
       25  2    1    2    0    0 -1.9731452661e+02 -6.4586137389e+01 +2.8032610938e+01 2.4395778470e+02 1.2500072753e+02 0.0000e+00 0.0000e+00
        2  1    1    2  501    0 +1.7936336120e+01 -4.7370517593e+01 -2.5727212706e+02 2.6221103229e+02 0.0000000000e+00 0.0000e+00 -1.0000e+00
        1  1    1    2  502    0 +1.7937819049e+02 +1.1195665498e+02 +8.7783430054e+02 9.0294179604e+02 0.0000000000e+00 0.0000e+00 -1.0000e+00
       22  1    3    3    0    0 -9.4991854801e+01 -5.0544075492e+01 -4.5857634234e+01 1.1696614324e+02 0.0000000000e+00 0.0000e+00 1.0000e+00
       22  1    3    3    0    0 -1.0232267181e+02 -1.4042061897e+01 +7.3890245172e+01 1.2699164146e+02 0.0000000000e+00 0.0000e+00 1.0000e+00
<rwgt>
<wgt id='SM'> +1.0082247e-05 </wgt>
<wgt id='morphing_basis_vector_1'> +9.4124162e-06 </wgt>
<wgt id='morphing_basis_vector_2'> +1.1421320e-05 </wgt>
<wgt id='morphing_basis_vector_4'> +1.0705351e-05 </wgt>
<wgt id='morphing_basis_vector_5'> +8.8433843e-06 </wgt>
</rwgt>
</event>
<event>
 7      1 +1.0054000e-05 1.01140100e+02 7.81860800e-03 1.37795900e-01
        2 -1    0    0  502    0 +0.0000000000e+00 +0.0000000000e+00 +6.9532931176e+02 6.9532931176e+02 0.0000000000e+00 0.0000e+00 -1.0000e+00
        1 -1    0    0  501    0 -0.0000000000e+00 -0.0000000000e+00 -1.4509979124e+02 1.4509979124e+02 0.0000000000e+00 0.0000e+00 -1.0000e+00
       25  2    1    2    0    0 -8.0598966750e+01 +8.0331581836e+01 +1.8336948960e+02 2.4939541547e+02 1.2499738821e+02 0.0000e+00 0.0000e+00
        2  1    1    2  501    0 +4.0209639649e+01 +1.1339068485e+01 -1.0271830544e+02 1.1088931358e+02 0.0000000000e+00 0.0000e+00 -1.0000e+00
        1  1    1    2  502    0 +4.0389327101e+01 -9.1670650321e+01 +4.6957833635e+02 4.8014437396e+02 0.0000000000e+00 0.0000e+00 -1.0000e+00
       22  1    3    3    0    0 -3.0332442680e+01 -3.0536891157e+01 +7.4714707192e+01 8.6225554629e+01 0.0000000000e+00 0.0000e+00 1.0000e+00
       22  1    3    3    0    0 -5.0266524070e+01 +1.1086847299e+02 +1.0865478241e+02 1.6316986084e+02 0.0000000000e+00 0.0000e+00 1.0000e+00
<rwgt>
<wgt id='SM'> +9.5319273e-06 </wgt>
<wgt id='morphing_basis_vector_1'> +9.1967206e-06 </wgt>
<wgt id='morphing_basis_vector_2'> +9.5350467e-06 </wgt>
<wgt id='morphing_basis_vector_4'> +9.0643652e-06 </wgt>
<wgt id='morphing_basis_vector_5'> +9.7346800e-06 </wgt>
</rwgt>
</event>
<event>
 7      1 +1.0054000e-05 1.82312000e+02 7.81860800e-03 1.22328100e-01
        2 -1    0    0  502    0 +0.0000000000e+00 +0.0000000000e+00 +1.6244583054e+03 1.6244583054e+03 0.0000000000e+00 0.0000e+00 -1.0000e+00
        1 -1    0    0  501    0 -0.0000000000e+00 -0.0000000000e+00 -1.1583884567e+03 1.1583884567e+03 0.0000000000e+00 0.0000e+00 -1.0000e+00
       25  2    1    2    0    0 -1.6815575613e+02 +7.3523947968e+01 +2.8458362593e+02 3.6096599964e+02 1.2500593388e+02 0.0000e+00 0.0000e+00
        2  1    1    2  501    0 +1.0681563449e+02 -1.4842487888e+02 -1.1109118037e+03 1.1258616967e+03 0.0000000000e+00 0.0000e+00 -1.0000e+00
        1  1    1    2  502    0 +6.1340121640e+01 +7.4900930914e+01 +1.2923980265e+03 1.2960190658e+03 0.0000000000e+00 0.0000e+00 -1.0000e+00
       22  1    3    3    0    0 -1.3560108189e+02 +3.0766542475e+01 +2.7243809598e+02 3.0587047862e+02 0.0000000000e+00 0.0000e+00 -1.0000e+00
       22  1    3    3    0    0 -3.2554674233e+01 +4.2757405493e+01 +1.2145529942e+01 5.5095521020e+01 0.0000000000e+00 0.0000e+00 -1.0000e+00
<rwgt>
<wgt id='SM'> +1.0547377e-05 </wgt>
<wgt id='morphing_basis_vector_1'> +1.0124151e-05 </wgt>
<wgt id='morphing_basis_vector_2'> +1.1990674e-05 </wgt>
<wgt id='morphing_basis_vector_4'> +1.1668864e-05 </wgt>
<wgt id='morphing_basis_vector_5'> +9.0410947e-06 </wgt>
</rwgt>
</event>
<event>
 7      1 +1.0054000e-05 5.12505900e+01 7.81860800e-03 1.51930500e-01
        2 -1    0    0  502    0 +0.0000000000e+00 +0.0000000000e+00 +8.8499557029e+02 8.8499557029e+02 0.0000000000e+00 0.0000e+00 -1.0000e+00
        1 -1    0    0  501    0 -0.0000000000e+00 -0.0000000000e+00 -8.2517874573e+02 8.2517874573e+02 0.0000000000e+00 0.0000e+00 -1.0000e+00
       25  2    1    2    0    0 +2.5877008430e+00 -4.2441599159e+01 -2.6045756720e+02 2.9201224447e+02 1.2500008431e+02 0.0000e+00 0.0000e+00
        2  1    1    2  501    0 -3.1551986703e+01 +4.1928571856e+01 -5.4744756031e+02 5.4995669311e+02 0.0000000000e+00 0.0000e+00 -1.0000e+00
        1  1    1    2  502    0 +2.8964285860e+01 +5.1302730335e-01 +8.6772195206e+02 8.6820537844e+02 0.0000000000e+00 0.0000e+00 -1.0000e+00
       22  1    3    3    0    0 +1.0614103237e+01 +1.1553098579e+01 -2.2792697789e+02 2.2846627875e+02 0.0000000000e+00 0.0000e+00 1.0000e+00
       22  1    3    3    0    0 -8.0264023943e+00 -5.3994697739e+01 -3.2530589305e+01 6.3545965724e+01 0.0000000000e+00 0.0000e+00 1.0000e+00
<rwgt>
<wgt id='SM'> +9.9439443e-06 </wgt>
<wgt id='morphing_basis_vector_1'> +9.8864120e-06 </wgt>
<wgt id='morphing_basis_vector_2'> +9.9178157e-06 </wgt>
<wgt id='morphing_basis_vector_4'> +9.8312640e-06 </wgt>
<wgt id='morphing_basis_vector_5'> +1.0013225e-05 </wgt>
</rwgt>
</event>
<event>
 7      1 +1.0054000e-05 1.82020000e+02 7.81860800e-03 1.20892500e-01
        2 -1    0    0  502    0 +0.0000000000e+00 +0.0000000000e+00 +3.6530861338e+03 3.6530861338e+03 0.0000000000e+00 0.0000e+00 -1.0000e+00
        1 -1    0    0  501    0 -0.0000000000e+00 -0.0000000000e+00 -4.4097506241e+02 4.4097506241e+02 0.0000000000e+00 0.0000e+00 -1.0000e+00
       25  2    1    2    0    0 +1.4271410784e+02 -1.0469008348e+01 +2.0709024406e+02 2.8104862048e+02 1.2500016471e+02 0.0000e+00 0.0000e+00
        2  1    1    2  501    0 +1.3887910319e+01 +1.1199726240e+02 -3.9350380356e+02 4.0936719978e+02 0.0000000000e+00 0.0000e+00 -1.0000e+00
        1  1    1    2  502    0 -1.5660201816e+02 -1.0152825405e+02 +3.3985246309e+03 3.4036453760e+03 0.0000000000e+00 0.0000e+00 -1.0000e+00
       22  1    3    3    0    0 +1.5546815704e+02 +1.6833028388e+01 +1.5102846790e+02 2.1740123462e+02 0.0000000000e+00 0.0000e+00 1.0000e+00
       22  1    3    3    0    0 -1.2754049200e+01 -2.7302036736e+01 +5.6061776159e+01 6.3647385862e+01 0.0000000000e+00 0.0000e+00 1.0000e+00
<rwgt>
<wgt id='SM'> +1.0636048e-05 </wgt>
<wgt id='morphing_basis_vector_1'> +1.0426854e-05 </wgt>
<wgt id='morphing_basis_vector_2'> +1.1769024e-05 </wgt>
<wgt id='morphing_basis_vector_4'> +1.1706148e-05 </wgt>
<wgt id='morphing_basis_vector_5'> +9.3625532e-06 </wgt>
</rwgt>
</event>
<event>
 7      1 +1.0054000e-05 7.97687600e+01 7.81860800e-03 1.44588300e-01
        2 -1    0    0  502    0 +0.0000000000e+00 +0.0000000000e+00 +5.3116881413e+02 5.3116881413e+02 0.0000000000e+00 0.0000e+00 -1.0000e+00
        1 -1    0    0  501    0 -0.0000000000e+00 -0.0000000000e+00 -3.0939948400e+02 3.0939948400e+02 0.0000000000e+00 0.0000e+00 -1.0000e+00
       25  2    1    2    0    0 -7.1207903789e+00 -5.7183081620e+01 +1.3304644382e-01 1.3764343139e+02 1.2500034409e+02 0.0000e+00 0.0000e+00
        2  1    1    2  501    0 -2.6443337168e+01 -1.6586914689e+01 -2.3605666092e+02 2.3811157675e+02 0.0000000000e+00 0.0000e+00 -1.0000e+00
        1  1    1    2  502    0 +3.3564127547e+01 +7.3769996309e+01 +4.5769294460e+02 4.6481328999e+02 0.0000000000e+00 0.0000e+00 -1.0000e+00
       22  1    3    3    0    0 +1.6136455311e+01 -5.3926851660e+01 -5.4392647254e+01 7.8275478889e+01 0.0000000000e+00 0.0000e+00 -1.0000e+00
       22  1    3    3    0    0 -2.3257245690e+01 -3.2562299600e+00 +5.4525693698e+01 5.9367952499e+01 0.0000000000e+00 0.0000e+00 -1.0000e+00
<rwgt>
<wgt id='SM'> +9.9250969e-06 </wgt>
<wgt id='morphing_basis_vector_1'> +9.8531495e-06 </wgt>
<wgt id='morphing_basis_vector_2'> +9.9030982e-06 </wgt>
<wgt id='morphing_basis_vector_4'> +9.7971543e-06 </wgt>
<wgt id='morphing_basis_vector_5'> +9.9977960e-06 </wgt>
</rwgt>
</event>
<event>
 7      1 +1.0054000e-05 3.51573700e+01 7.81860800e-03 1.58073700e-01
        2 -1    0    0  502    0 +0.0000000000e+00 +0.0000000000e+00 +1.5005255324e+02 1.5005255324e+02 0.0000000000e+00 0.0000e+00 -1.0000e+00
        1 -1    0    0  501    0 -0.0000000000e+00 -0.0000000000e+00 -4.4842436757e+02 4.4842436757e+02 0.0000000000e+00 0.0000e+00 -1.0000e+00
       25  2    1    2    0    0 -2.1634910135e+01 +1.6464645114e+01 -1.1874482385e+02 1.7454304535e+02 1.2500315042e+02 0.0000e+00 0.0000e+00
        2  1    1    2  501    0 +3.4753363170e+01 +8.7882484638e+00 -2.9903796289e+02 3.0117890499e+02 0.0000000000e+00 0.0000e+00 -1.0000e+00
        1  1    1    2  502    0 -1.3118453035e+01 -2.5252893577e+01 +1.1941097241e+02 1.2275497047e+02 0.0000000000e+00 0.0000e+00 -1.0000e+00
       22  1    3    3    0    0 -8.0984764544e-01 +2.3131968612e+01 +2.2105085456e+01 3.2005915518e+01 0.0000000000e+00 0.0000e+00 1.0000e+00
       22  1    3    3    0    0 -2.0825062490e+01 -6.6673234988e+00 -1.4084990930e+02 1.4253712983e+02 0.0000000000e+00 0.0000e+00 1.0000e+00
<rwgt>
<wgt id='SM'> +9.9893682e-06 </wgt>
<wgt id='morphing_basis_vector_1'> +9.9640134e-06 </wgt>
<wgt id='morphing_basis_vector_2'> +9.9582808e-06 </wgt>
<wgt id='morphing_basis_vector_4'> +9.9159469e-06 </wgt>
<wgt id='morphing_basis_vector_5'> +1.0045503e-05 </wgt>
</rwgt>
</event>
<event>
 7      1 +1.0054000e-05 1.04611400e+02 7.81860800e-03 1.38608000e-01
        2 -1    0    0  502    0 +0.0000000000e+00 +0.0000000000e+00 +6.7074096042e+02 6.7074096042e+02 0.0000000000e+00 0.0000e+00 -1.0000e+00
        1 -1    0    0  501    0 -0.0000000000e+00 -0.0000000000e+00 -2.5452709466e+02 2.5452709466e+02 0.0000000000e+00 0.0000e+00 -1.0000e+00
       25  2    1    2    0    0 +2.7016824791e+01 +1.2908878383e+02 -1.0323731474e+02 2.0898807604e+02 1.2499699932e+02 0.0000e+00 0.0000e+00
        2  1    1    2  501    0 -2.8217803080e+01 -2.5167750067e+01 -9.0215448610e+01 9.7818644552e+01 0.0000000000e+00 0.0000e+00 -1.0000e+00
        1  1    1    2  502    0 +1.2009782897e+00 -1.0392103376e+02 +6.0966662911e+02 6.1846133449e+02 0.0000000000e+00 0.0000e+00 -1.0000e+00
       22  1    3    3    0    0 +3.0033079583e+01 +1.0427977447e+02 -6.1026965697e+00 1.0868992658e+02 0.0000000000e+00 0.0000e+00 -1.0000e+00
       22  1    3    3    0    0 -3.0162547920e+00 +2.4809009357e+01 -9.7134618173e+01 1.0029814946e+02 0.0000000000e+00 0.0000e+00 -1.0000e+00
<rwgt>
<wgt id='SM'> +1.0001240e-05 </wgt>
<wgt id='morphing_basis_vector_1'> +9.6403731e-06 </wgt>
<wgt id='morphing_basis_vector_2'> +1.0623279e-05 </wgt>
<wgt id='morphing_basis_vector_4'> +1.0233443e-05 </wgt>
<wgt id='morphing_basis_vector_5'> +9.4311715e-06 </wgt>
</rwgt>
</event>
<event>
 7      1 +1.0054000e-05 7.64518400e+01 7.81860800e-03 1.37745300e-01
        2 -1    0    0  502    0 +0.0000000000e+00 +0.0000000000e+00 +3.4092275571e+02 3.4092275571e+02 0.0000000000e+00 0.0000e+00 -1.0000e+00
        1 -1    0    0  501    0 -0.0000000000e+00 -0.0000000000e+00 -1.7303007912e+03 1.7303007912e+03 0.0000000000e+00 0.0000e+00 -1.0000e+00
       25  2    1    2    0    0 -5.0682153134e+00 +3.1771806888e+01 +6.2245490547e+01 1.4330352963e+02 1.2500506387e+02 0.0000e+00 0.0000e+00
        2  1    1    2  501    0 -3.7897210023e+01 -6.6900968783e+01 -1.6856501109e+03 1.6874028074e+03 0.0000000000e+00 0.0000e+00 -1.0000e+00
        1  1    1    2  502    0 +4.2965425336e+01 +3.5129161895e+01 +2.3402658488e+02 2.4051720982e+02 0.0000000000e+00 0.0000e+00 -1.0000e+00
       22  1    3    3    0    0 +2.9918156306e+01 +8.2520026683e+00 +8.8401717970e+01 9.3691276888e+01 0.0000000000e+00 0.0000e+00 -1.0000e+00
       22  1    3    3    0    0 -3.4986371620e+01 +2.3519804220e+01 -2.6156227423e+01 4.9612252747e+01 0.0000000000e+00 0.0000e+00 -1.0000e+00
<rwgt>
<wgt id='SM'> +1.0137607e-05 </wgt>
<wgt id='morphing_basis_vector_1'> +1.0143976e-05 </wgt>
<wgt id='morphing_basis_vector_2'> +1.0227548e-05 </wgt>
<wgt id='morphing_basis_vector_4'> +1.0255919e-05 </wgt>
<wgt id='morphing_basis_vector_5'> +1.0017062e-05 </wgt>
</rwgt>
</event>
<event>
 7      1 +1.0054000e-05 1.46342800e+02 7.81860800e-03 1.20624100e-01
        2 -1    0    0  502    0 +0.0000000000e+00 +0.0000000000e+00 +1.9479036566e+02 1.9479036566e+02 0.0000000000e+00 0.0000e+00 -1.0000e+00
        1 -1    0    0  501    0 -0.0000000000e+00 -0.0000000000e+00 -2.0764860884e+03 2.0764860884e+03 0.0000000000e+00 0.0000e+00 -1.0000e+00
       25  2    1    2    0    0 -5.8087242123e+01 -1.1474202398e+02 -6.8380214470e+02 7.0693010808e+02 1.2499977941e+02 0.0000e+00 0.0000e+00
        2  1    1    2  501    0 +1.7139229549e+02 +2.2123540834e+01 -1.3454637508e+03 1.3565166695e+03 0.0000000000e+00 0.0000e+00 -1.0000e+00
        1  1    1    2  502    0 -1.1330505336e+02 +9.2618483151e+01 +1.4757017273e+02 2.0782967646e+02 0.0000000000e+00 0.0000e+00 -1.0000e+00
       22  1    3    3    0    0 +3.6401898470e+01 -2.9981615553e+01 -1.1822682550e+02 1.2728541846e+02 0.0000000000e+00 0.0000e+00 -1.0000e+00
       22  1    3    3    0    0 -9.4489140592e+01 -8.4760408432e+01 -5.6557531920e+02 5.7964468963e+02 0.0000000000e+00 0.0000e+00 -1.0000e+00
<rwgt>
<wgt id='SM'> +1.0985735e-05 </wgt>
<wgt id='morphing_basis_vector_1'> +1.0828901e-05 </wgt>
<wgt id='morphing_basis_vector_2'> +1.2483734e-05 </wgt>
<wgt id='morphing_basis_vector_4'> +1.2575076e-05 </wgt>
<wgt id='morphing_basis_vector_5'> +9.2712934e-06 </wgt>
</rwgt>
</event>
<event>
 7      1 +1.0054000e-05 9.39096300e+01 7.81860800e-03 1.31392400e-01
        2 -1    0    0  502    0 +0.0000000000e+00 +0.0000000000e+00 +2.2994931246e+03 2.2994931246e+03 0.0000000000e+00 0.0000e+00 -1.0000e+00
        1 -1    0    0  501    0 -0.0000000000e+00 -0.0000000000e+00 -1.2482943935e+02 1.2482943935e+02 0.0000000000e+00 0.0000e+00 -1.0000e+00
       25  2    1    2    0    0 +4.4060838509e+00 +2.2968015168e+01 +3.0775765718e+02 3.3299517787e+02 1.2499627850e+02 0.0000e+00 0.0000e+00
        2  1    1    2  501    0 +4.0195710375e+00 +7.7884636649e+01 -9.7197894351e+01 1.2461783277e+02 0.0000000000e+00 0.0000e+00 -1.0000e+00
        1  1    1    2  502    0 -8.4256548884e+00 -1.0085265182e+02 +1.9641039224e+03 1.9667095533e+03 0.0000000000e+00 0.0000e+00 -1.0000e+00
       22  1    3    3    0    0 +3.0496586587e+01 +6.4726685345e+01 +1.2827735403e+02 1.4688316836e+02 0.0000000000e+00 0.0000e+00 1.0000e+00
       22  1    3    3    0    0 -2.6090502736e+01 -4.1758670177e+01 +1.7948030315e+02 1.8611200951e+02 0.0000000000e+00 0.0000e+00 1.0000e+00
<rwgt>
<wgt id='SM'> +1.0060238e-05 </wgt>
<wgt id='morphing_basis_vector_1'> +1.0053461e-05 </wgt>
<wgt id='morphing_basis_vector_2'> +1.0080516e-05 </wgt>
<wgt id='morphing_basis_vector_4'> +1.0075355e-05 </wgt>
<wgt id='morphing_basis_vector_5'> +1.0038104e-05 </wgt>
</rwgt>
</event>
<event>
 7      1 +1.0054000e-05 7.05482700e+01 7.81860800e-03 1.43464800e-01
        2 -1    0    0  502    0 +0.0000000000e+00 +0.0000000000e+00 +1.2166880439e+03 1.2166880439e+03 0.0000000000e+00 0.0000e+00 -1.0000e+00
        1 -1    0    0  501    0 -0.0000000000e+00 -0.0000000000e+00 -7.8700813420e+02 7.8700813420e+02 0.0000000000e+00 0.0000e+00 -1.0000e+00
       25  2    1    2    0    0 -1.0577977686e+02 +4.3891359934e-01 -2.1648596072e+02 2.7144077701e+02 1.2499748157e+02 0.0000e+00 0.0000e+00
        2  1    1    2  501    0 +6.7664212028e+01 -4.9759134935e+00 -5.4061409654e+02 5.4485484919e+02 0.0000000000e+00 0.0000e+00 -1.0000e+00
        1  1    1    2  502    0 +3.8115564828e+01 +4.5369998941e+00 +1.1867799670e+03 1.1874005519e+03 0.0000000000e+00 0.0000e+00 -1.0000e+00
       22  1    3    3    0    0 +1.2466505438e+01 +3.6113332910e+01 -3.4348811625e+01 5.1375358216e+01 0.0000000000e+00 0.0000e+00 1.0000e+00
       22  1    3    3    0    0 -1.1824628229e+02 -3.5674419311e+01 -1.8213714910e+02 2.2006541880e+02 0.0000000000e+00 0.0000e+00 1.0000e+00
<rwgt>
<wgt id='SM'> +9.8945005e-06 </wgt>
<wgt id='morphing_basis_vector_1'> +9.6685052e-06 </wgt>
<wgt id='morphing_basis_vector_2'> +1.0124546e-05 </wgt>
<wgt id='morphing_basis_vector_4'> +9.8517983e-06 </wgt>
<wgt id='morphing_basis_vector_5'> +9.7345658e-06 </wgt>
</rwgt>
</event>
<event>
 7      1 +1.0054000e-05 4.16394300e+01 7.81860800e-03 1.50928300e-01
        2 -1    0    0  502    0 +0.0000000000e+00 +0.0000000000e+00 +1.2478688059e+01 1.2478688059e+01 0.0000000000e+00 0.0000e+00 -1.0000e+00
        1 -1    0    0  501    0 -0.0000000000e+00 -0.0000000000e+00 -1.5848598246e+03 1.5848598246e+03 0.0000000000e+00 0.0000e+00 -1.0000e+00
       25  2    1    2    0    0 -1.2515370259e+01 +3.5835880372e+01 -1.0359432497e+03 1.0441484139e+03 1.2500659507e+02 0.0000e+00 0.0000e+00
        2  1    1    2  501    0 +4.1666368201e+01 -6.1027130206e+00 -4.8583987178e+02 4.8766147106e+02 0.0000000000e+00 0.0000e+00 -1.0000e+00
        1  1    1    2  502    0 -2.9150997942e+01 -2.9733167352e+01 -5.0598015063e+01 6.5528627714e+01 0.0000000000e+00 0.0000e+00 -1.0000e+00
       22  1    3    3    0    0 -1.1912149799e+01 -4.6640905675e+01 -3.9180702988e+02 3.9475311532e+02 0.0000000000e+00 0.0000e+00 -1.0000e+00
       22  1    3    3    0    0 -6.0322045999e-01 +8.2476786047e+01 -6.4413621982e+02 6.4939529856e+02 0.0000000000e+00 0.0000e+00 -1.0000e+00
<rwgt>
<wgt id='SM'> +9.8413806e-06 </wgt>
<wgt id='morphing_basis_vector_1'> +9.7816936e-06 </wgt>
<wgt id='morphing_basis_vector_2'> +9.6980382e-06 </wgt>
<wgt id='morphing_basis_vector_4'> +9.5844222e-06 </wgt>
<wgt id='morphing_basis_vector_5'> +1.0067281e-05 </wgt>
</rwgt>
</event>
<event>
 7      1 +1.0054000e-05 8.10412000e+01 7.81860800e-03 1.40700500e-01
        2 -1    0    0  502    0 +0.0000000000e+00 +0.0000000000e+00 +2.3892959839e+02 2.3892959839e+02 0.0000000000e+00 0.0000e+00 -1.0000e+00
        1 -1    0    0  501    0 -0.0000000000e+00 -0.0000000000e+00 -1.1149895386e+03 1.1149895386e+03 0.0000000000e+00 0.0000e+00 -1.0000e+00
       25  2    1    2    0    0 +7.5951645656e+01 -5.4840677277e+01 +4.2042467535e+01 1.6176711176e+02 1.2499950804e+02 0.0000e+00 0.0000e+00
        2  1    1    2  501    0 -3.8185769098e+01 -1.5787003697e+01 -1.0429798470e+03 1.0437980378e+03 0.0000000000e+00 0.0000e+00 -1.0000e+00
        1  1    1    2  502    0 -3.7765876558e+01 +7.0627680974e+01 +1.2487743926e+02 1.4835398743e+02 0.0000000000e+00 0.0000e+00 -1.0000e+00
       22  1    3    3    0    0 +7.0089551517e+01 +3.0127559155e+00 +6.8347972277e+01 9.7944204752e+01 0.0000000000e+00 0.0000e+00 -1.0000e+00
       22  1    3    3    0    0 +5.8620941390e+00 -5.7853433193e+01 -2.6305504742e+01 6.3822907013e+01 0.0000000000e+00 0.0000e+00 -1.0000e+00
<rwgt>
<wgt id='SM'> +9.6555204e-06 </wgt>
<wgt id='morphing_basis_vector_1'> +9.3995978e-06 </wgt>
<wgt id='morphing_basis_vector_2'> +9.6553243e-06 </wgt>
<wgt id='morphing_basis_vector_4'> +9.2952425e-06 </wgt>
<wgt id='morphing_basis_vector_5'> +9.8130763e-06 </wgt>
</rwgt>
</event>
<event>
 7      1 +1.0054000e-05 7.53885000e+01 7.81860800e-03 1.41195300e-01
        2 -1    0    0  502    0 +0.0000000000e+00 +0.0000000000e+00 +5.7313332731e+02 5.7313332731e+02 0.0000000000e+00 0.0000e+00 -1.0000e+00
        1 -1    0    0  501    0 -0.0000000000e+00 -0.0000000000e+00 -5.8400465091e+02 5.8400465091e+02 0.0000000000e+00 0.0000e+00 -1.0000e+00
       25  2    1    2    0    0 -6.7826203859e+01 +3.2410013945e+01 +4.3837202849e+02 4.6200235949e+02 1.2500136748e+02 0.0000e+00 0.0000e+00
        2  1    1    2  501    0 +3.9422292507e+01 -6.4339670511e+01 -5.6589440623e+02 5.7090295966e+02 0.0000000000e+00 0.0000e+00 -1.0000e+00
        1  1    1    2  502    0 +2.8403911352e+01 +3.1929656566e+01 +1.1665105414e+02 1.2423265907e+02 0.0000000000e+00 0.0000e+00 -1.0000e+00
       22  1    3    3    0    0 -1.1844297711e+01 +7.3576960449e+01 +2.6331347991e+02 2.7365643643e+02 0.0000000000e+00 0.0000e+00 -1.0000e+00
       22  1    3    3    0    0 -5.5981906147e+01 -4.1166946504e+01 +1.7505854858e+02 1.8834592305e+02 0.0000000000e+00 0.0000e+00 -1.0000e+00
<rwgt>
<wgt id='SM'> +1.0380431e-05 </wgt>
<wgt id='morphing_basis_vector_1'> +1.0315496e-05 </wgt>
<wgt id='morphing_basis_vector_2'> +1.0909007e-05 </wgt>
<wgt id='morphing_basis_vector_4'> +1.0926747e-05 </wgt>
<wgt id='morphing_basis_vector_5'> +9.7516847e-06 </wgt>
</rwgt>
</event>
<event>
 7      1 +1.0054000e-05 1.60750600e+02 7.81860800e-03 1.33232000e-01
        2 -1    0    0  502    0 +0.0000000000e+00 +0.0000000000e+00 +6.4050504049e+01 6.4050504049e+01 0.0000000000e+00 0.0000e+00 -1.0000e+00
        1 -1    0    0  501    0 -0.0000000000e+00 -0.0000000000e+00 -9.0842077615e+02 9.0842077615e+02 0.0000000000e+00 0.0000e+00 -1.0000e+00
       25  2    1    2    0    0 +1.5296371807e+02 -5.7296738194e-01 -2.9536806957e+02 3.5533536222e+02 1.2499078279e+02 0.0000e+00 0.0000e+00
        2  1    1    2  501    0 +1.0361233880e+01 +3.7272804725e+01 -3.7015124424e+02 3.7216738271e+02 0.0000000000e+00 0.0000e+00 -1.0000e+00
        1  1    1    2  502    0 -1.6332495195e+02 -3.6699837343e+01 -1.7885095828e+02 2.4496853527e+02 0.0000000000e+00 0.0000e+00 -1.0000e+00
       22  1    3    3    0    0 -1.7944959546e+01 +7.9376595818e-01 -7.1272985486e+01 7.3501633299e+01 0.0000000000e+00 0.0000e+00 -1.0000e+00
       22  1    3    3    0    0 +1.7090867762e+02 -1.3667333401e+00 -2.2409508408e+02 2.8183372892e+02 0.0000000000e+00 0.0000e+00 -1.0000e+00
<rwgt>
<wgt id='SM'> +1.0268493e-05 </wgt>
<wgt id='morphing_basis_vector_1'> +9.7814300e-06 </wgt>
<wgt id='morphing_basis_vector_2'> +1.1485963e-05 </wgt>
<wgt id='morphing_basis_vector_4'> +1.1015824e-05 </wgt>
<wgt id='morphing_basis_vector_5'> +9.0758705e-06 </wgt>
</rwgt>
</event>
<event>
 7      1 +1.0054000e-05 8.90008300e+01 7.81860800e-03 1.34499100e-01
        2 -1    0    0  502    0 +0.0000000000e+00 +0.0000000000e+00 +1.8260600903e+03 1.8260600903e+03 0.0000000000e+00 0.0000e+00 -1.0000e+00
        1 -1    0    0  501    0 -0.0000000000e+00 -0.0000000000e+00 -2.0327524335e+02 2.0327524335e+02 0.0000000000e+00 0.0000e+00 -1.0000e+00
       25  2    1    2    0    0 -4.0508073036e+01 -6.3425009251e-01 +5.7694401869e+02 5.9171853984e+02 1.2500049378e+02 0.0000e+00 0.0000e+00
        2  1    1    2  501    0 -6.2574348579e+01 -1.6330676017e+00 -1.8868279009e+02 1.9879489754e+02 0.0000000000e+00 0.0000e+00 -1.0000e+00
        1  1    1    2  502    0 +1.0308242161e+02 +2.2673176942e+00 +1.2345236184e+03 1.2388218963e+03 0.0000000000e+00 0.0000e+00 -1.0000e+00
       22  1    3    3    0    0 -2.6240823758e+01 -6.0524155877e+00 +5.7578365405e+02 5.7641307136e+02 0.0000000000e+00 0.0000e+00 1.0000e+00
       22  1    3    3    0    0 -1.4267249278e+01 +5.4181654952e+00 +1.1603646325e+00 1.5305468479e+01 0.0000000000e+00 0.0000e+00 1.0000e+00
<rwgt>
<wgt id='SM'> +1.0011158e-05 </wgt>
<wgt id='morphing_basis_vector_1'> +9.9568229e-06 </wgt>
<wgt id='morphing_basis_vector_2'> +1.0060526e-05 </wgt>
<wgt id='morphing_basis_vector_4'> +9.9944457e-06 </wgt>
<wgt id='morphing_basis_vector_5'> +9.9802761e-06 </wgt>
</rwgt>
</event>
<event>
 7      1 +1.0054000e-05 1.32725700e+02 7.81860800e-03 1.26755900e-01
        2 -1    0    0  502    0 +0.0000000000e+00 +0.0000000000e+00 +1.4432657206e+02 1.4432657206e+02 0.0000000000e+00 0.0000e+00 -1.0000e+00
        1 -1    0    0  501    0 -0.0000000000e+00 -0.0000000000e+00 -2.2770074269e+03 2.2770074269e+03 0.0000000000e+00 0.0000e+00 -1.0000e+00
       25  2    1    2    0    0 +6.9654747706e+01 +3.8876212507e+01 -7.6503182430e+01 1.6685628341e+02 1.2500055446e+02 0.0000e+00 0.0000e+00
        2  1    1    2  501    0 -1.3506031998e+02 +1.5649519713e+01 -2.1344741906e+03 2.1388001935e+03 0.0000000000e+00 0.0000e+00 -1.0000e+00
        1  1    1    2  502    0 +6.5405572278e+01 -5.4525732220e+01 +7.8296518142e+01 1.1567752207e+02 0.0000000000e+00 0.0000e+00 -1.0000e+00
       22  1    3    3    0    0 +2.5197671520e+01 +6.9315121287e+01 -8.4751874762e+01 1.1234940572e+02 0.0000000000e+00 0.0000e+00 -1.0000e+00
       22  1    3    3    0    0 +4.4457076186e+01 -3.0438908780e+01 +8.2486923316e+00 5.4506877694e+01 0.0000000000e+00 0.0000e+00 -1.0000e+00
<rwgt>
<wgt id='SM'> +1.0379955e-05 </wgt>
<wgt id='morphing_basis_vector_1'> +1.0363556e-05 </wgt>
<wgt id='morphing_basis_vector_2'> +1.0813517e-05 </wgt>
<wgt id='morphing_basis_vector_4'> +1.0883672e-05 </wgt>
<wgt id='morphing_basis_vector_5'> +9.8385498e-06 </wgt>
</rwgt>
</event>
<event>
 7      1 +1.0054000e-05 1.26251600e+02 7.81860800e-03 1.29097300e-01
        2 -1    0    0  502    0 +0.0000000000e+00 +0.0000000000e+00 +2.9080161157e+03 2.9080161157e+03 0.0000000000e+00 0.0000e+00 -1.0000e+00
        1 -1    0    0  501    0 -0.0000000000e+00 -0.0000000000e+00 -8.8426865886e+01 8.8426865886e+01 0.0000000000e+00 0.0000e+00 -1.0000e+00
       25  2    1    2    0    0 +1.1143668708e+01 +1.0847599802e+02 +1.2786012397e+03 1.2893175340e+03 1.2500939886e+02 0.0000e+00 0.0000e+00
        2  1    1    2  501    0 +6.0367072511e+01 -1.1243553028e+02 -3.2755558222e+01 1.3175302087e+02 0.0000000000e+00 0.0000e+00 -1.0000e+00
        1  1    1    2  502    0 -7.1510741219e+01 +3.9595322625e+00 +1.5737435684e+03 1.5753724268e+03 0.0000000000e+00 0.0000e+00 -1.0000e+00
       22  1    3    3    0    0 -1.7111697812e+00 +4.0202716135e+01 +8.8822058260e+01 9.7511766061e+01 0.0000000000e+00 0.0000e+00 1.0000e+00
       22  1    3    3    0    0 +1.2854838489e+01 +6.8273281883e+01 +1.1897791814e+03 1.1918057679e+03 0.0000000000e+00 0.0000e+00 1.0000e+00
<rwgt>
<wgt id='SM'> +9.3720049e-06 </wgt>
<wgt id='morphing_basis_vector_1'> +9.0907292e-06 </wgt>
<wgt id='morphing_basis_vector_2'> +9.0899526e-06 </wgt>
<wgt id='morphing_basis_vector_4'> +8.6421644e-06 </wgt>
<wgt id='morphing_basis_vector_5'> +9.9237186e-06 </wgt>
</rwgt>
</event>
<event>
 7      1 +1.0054000e-05 9.30478000e+01 7.81860800e-03 1.47374800e-01
        2 -1    0    0  502    0 +0.0000000000e+00 +0.0000000000e+00 +4.3088256720e+03 4.3088256720e+03 0.0000000000e+00 0.0000e+00 -1.0000e+00
        1 -1    0    0  501    0 -0.0000000000e+00 -0.0000000000e+00 -1.4161486610e+01 1.4161486610e+01 0.0000000000e+00 0.0000e+00 -1.0000e+00
       25  2    1    2    0    0 +6.4800546047e+01 -9.0294066093e+01 +2.7955632421e+03 2.8005626784e+03 1.2500138490e+02 0.0000e+00 0.0000e+00
        2  1    1    2  501    0 -6.0955403232e+01 +6.8779778468e+01 +1.7090122750e+02 1.9404496558e+02 0.0000000000e+00 0.0000e+00 -1.0000e+00
        1  1    1    2  502    0 -3.8451428151e+00 +2.1514287625e+01 +1.3281997158e+03 1.3283795146e+03 0.0000000000e+00 0.0000e+00 -1.0000e+00
       22  1    3    3    0    0 -3.2810995232e+01 -1.1010345820e+01 +3.3373953550e+02 3.3552923372e+02 0.0000000000e+00 0.0000e+00 -1.0000e+00
       22  1    3    3    0    0 +9.7611541279e+01 -7.9283720273e+01 +2.4618237066e+03 2.4650334447e+03 0.0000000000e+00 0.0000e+00 -1.0000e+00
<rwgt>
<wgt id='SM'> +9.6654930e-06 </wgt>
<wgt id='morphing_basis_vector_1'> +9.3256102e-06 </wgt>
<wgt id='morphing_basis_vector_2'> +9.8365026e-06 </wgt>
<wgt id='morphing_basis_vector_4'> +9.3904287e-06 </wgt>
<wgt id='morphing_basis_vector_5'> +9.6531029e-06 </wgt>
</rwgt>
</event>
<event>
 7      1 +1.0054000e-05 6.09507800e+01 7.81860800e-03 1.47872400e-01
        2 -1    0    0  502    0 +0.0000000000e+00 +0.0000000000e+00 +2.5474201240e+02 2.5474201240e+02 0.0000000000e+00 0.0000e+00 -1.0000e+00
        1 -1    0    0  501    0 -0.0000000000e+00 -0.0000000000e+00 -1.1286593118e+03 1.1286593118e+03 0.0000000000e+00 0.0000e+00 -1.0000e+00
       25  2    1    2    0    0 -2.1640685813e+01 -4.4522088255e+01 -1.0989472376e+02 1.7364836775e+02 1.2500547863e+02 0.0000e+00 0.0000e+00
        2  1    1    2  501    0 -5.8949951260e+00 +6.1225971650e+01 -9.8475966797e+02 9.8667875939e+02 0.0000000000e+00 0.0000e+00 -1.0000e+00
        1  1    1    2  502    0 +2.7535680939e+01 -1.6703883396e+01 +2.2073709235e+02 2.2307419704e+02 0.0000000000e+00 0.0000e+00 -1.0000e+00
       22  1    3    3    0    0 +4.2503419259e+01 -4.8205153560e+00 -8.3335796050e+01 9.3673010629e+01 0.0000000000e+00 0.0000e+00 -1.0000e+00
       22  1    3    3    0    0 -6.4144105071e+01 -3.9701572899e+01 -2.6558927708e+01 7.9975357124e+01 0.0000000000e+00 0.0000e+00 -1.0000e+00
<rwgt>
<wgt id='SM'> +9.9303639e-06 </wgt>
<wgt id='morphing_basis_vector_1'> +9.8698617e-06 </wgt>
<wgt id='morphing_basis_vector_2'> +9.8934161e-06 </wgt>
<wgt id='morphing_basis_vector_4'> +9.8004280e-06 </wgt>
<wgt id='morphing_basis_vector_5'> +1.0015668e-05 </wgt>
</rwgt>
</event>
<event>
 7      1 +1.0054000e-05 6.13596800e+01 7.81860800e-03 1.45080200e-01
        2 -1    0    0  502    0 +0.0000000000e+00 +0.0000000000e+00 +5.3174618373e+02 5.3174618373e+02 0.0000000000e+00 0.0000e+00 -1.0000e+00
        1 -1    0    0  501    0 -0.0000000000e+00 -0.0000000000e+00 -6.7674640758e+01 6.7674640758e+01 0.0000000000e+00 0.0000e+00 -1.0000e+00
       25  2    1    2    0    0 -9.6248510492e+01 +9.0145562788e+00 +2.0373032660e+02 2.5781317247e+02 1.2496618713e+02 0.0000e+00 0.0000e+00
        2  1    1    2  501    0 +5.8100560791e+01 -2.9126614674e-01 -1.7769062037e+01 6.0757711987e+01 0.0000000000e+00 0.0000e+00 -1.0000e+00
        1  1    1    2  502    0 +3.8147949700e+01 -8.7232901320e+00 +2.7811027841e+02 2.8084994003e+02 0.0000000000e+00 0.0000e+00 -1.0000e+00
       22  1    3    3    0    0 -1.0231662945e+02 -5.5188881081e+00 +2.1518729475e+02 2.3833741337e+02 0.0000000000e+00 0.0000e+00 1.0000e+00
       22  1    3    3    0    0 +6.0681189544e+00 +1.4533444387e+01 -1.1456968155e+01 1.9475759104e+01 0.0000000000e+00 0.0000e+00 1.0000e+00
<rwgt>
<wgt id='SM'> +9.7619705e-06 </wgt>
<wgt id='morphing_basis_vector_1'> +9.4627315e-06 </wgt>
<wgt id='morphing_basis_vector_2'> +9.9715143e-06 </wgt>
<wgt id='morphing_basis_vector_4'> +9.5907406e-06 </wgt>
<wgt id='morphing_basis_vector_5'> +9.6744937e-06 </wgt>
</rwgt>
</event>
<event>
 7      1 +1.0054000e-05 1.80042900e+02 7.81860800e-03 1.18203100e-01
        2 -1    0    0  502    0 +0.0000000000e+00 +0.0000000000e+00 +9.5597501917e+02 9.5597501917e+02 0.0000000000e+00 0.0000e+00 -1.0000e+00
        1 -1    0    0  501    0 -0.0000000000e+00 -0.0000000000e+00 -5.9588432690e+02 5.9588432690e+02 0.0000000000e+00 0.0000e+00 -1.0000e+00
       25  2    1    2    0    0 -1.0377237432e+02 +1.2989193186e+02 -3.7283890440e+01 2.1130853435e+02 1.2498235302e+02 0.0000e+00 0.0000e+00
        2  1    1    2  501    0 -8.2141342373e+01 -1.2925201204e+02 -4.4879141445e+02 4.7420145131e+02 0.0000000000e+00 0.0000e+00 -1.0000e+00
        1  1    1    2  502    0 +1.8591371669e+02 -6.3991982053e-01 +8.4616599715e+02 8.6634936041e+02 0.0000000000e+00 0.0000e+00 -1.0000e+00
       22  1    3    3    0    0 -1.3189371499e+02 +1.1080008225e+02 -2.0724802455e+01 1.7349964759e+02 0.0000000000e+00 0.0000e+00 1.0000e+00
       22  1    3    3    0    0 +2.8121340665e+01 +1.9091849617e+01 -1.6559087985e+01 3.7808886752e+01 0.0000000000e+00 0.0000e+00 1.0000e+00
<rwgt>
<wgt id='SM'> +1.1125109e-05 </wgt>
<wgt id='morphing_basis_vector_1'> +1.0855022e-05 </wgt>
<wgt id='morphing_basis_vector_2'> +1.3036759e-05 </wgt>
<wgt id='morphing_basis_vector_4'> +1.3045401e-05 </wgt>
<wgt id='morphing_basis_vector_5'> +9.0091008e-06 </wgt>
</rwgt>
</event>
<event>
 7      1 +1.0054000e-05 7.69154500e+01 7.81860800e-03 1.34661400e-01
        2 -1    0    0  502    0 +0.0000000000e+00 +0.0000000000e+00 +1.9428236222e+03 1.9428236222e+03 0.0000000000e+00 0.0000e+00 -1.0000e+00
        1 -1    0    0  501    0 -0.0000000000e+00 -0.0000000000e+00 -2.3173553811e+02 2.3173553811e+02 0.0000000000e+00 0.0000e+00 -1.0000e+00
       25  2    1    2    0    0 -1.0305039364e+00 -3.3198772724e+00 +3.0358332684e+01 1.2867921516e+02 1.2499851410e+02 0.0000e+00 0.0000e+00
        2  1    1    2  501    0 -4.7387245184e+01 +6.3083646874e+01 -1.7321626777e+02 1.9033909985e+02 0.0000000000e+00 0.0000e+00 -1.0000e+00
        1  1    1    2  502    0 +4.8417749120e+01 -5.9763769602e+01 +1.8539460191e+03 1.8555408453e+03 0.0000000000e+00 0.0000e+00 -1.0000e+00
       22  1    3    3    0    0 +4.9700222109e+01 +1.3251006007e+01 -2.0109044627e+01 5.5227483318e+01 0.0000000000e+00 0.0000e+00 1.0000e+00
       22  1    3    3    0    0 -5.0730726045e+01 -1.6570883279e+01 +5.0467377311e+01 7.3451731840e+01 0.0000000000e+00 0.0000e+00 1.0000e+00
<rwgt>
<wgt id='SM'> +1.0041793e-05 </wgt>
<wgt id='morphing_basis_vector_1'> +1.0039853e-05 </wgt>
<wgt id='morphing_basis_vector_2'> +1.0030731e-05 </wgt>
<wgt id='morphing_basis_vector_4'> +1.0025671e-05 </wgt>
<wgt id='morphing_basis_vector_5'> +1.0057570e-05 </wgt>
</rwgt>
</event>
<event>
 7      1 +1.0054000e-05 7.82434900e+01 7.81860800e-03 1.37623300e-01
        2 -1    0    0  502    0 +0.0000000000e+00 +0.0000000000e+00 +2.1108797380e+02 2.1108797380e+02 0.0000000000e+00 0.0000e+00 -1.0000e+00
        1 -1    0    0  501    0 -0.0000000000e+00 -0.0000000000e+00 -1.3677898277e+03 1.3677898277e+03 0.0000000000e+00 0.0000e+00 -1.0000e+00
       25  2    1    2    0    0 +1.0190385025e+01 -2.5348981830e+01 +1.9770673034e+00 1.2796526007e+02 1.2499913664e+02 0.0000e+00 0.0000e+00
        2  1    1    2  501    0 -3.2021858629e-01 +7.9224842204e+01 -1.2984126282e+03 1.3008274409e+03 0.0000000000e+00 0.0000e+00 -1.0000e+00
        1  1    1    2  502    0 -9.8701664384e+00 -5.3875860374e+01 +1.3973370698e+02 1.5008510047e+02 0.0000000000e+00 0.0000e+00 -1.0000e+00
       22  1    3    3    0    0 +4.8547270440e+01 +2.7936657786e+01 +2.0665176676e+01 5.9702125946e+01 0.0000000000e+00 0.0000e+00 -1.0000e+00
       22  1    3    3    0    0 -3.8356885415e+01 -5.3285639616e+01 -1.8688109372e+01 6.8263134120e+01 0.0000000000e+00 0.0000e+00 -1.0000e+00
<rwgt>
<wgt id='SM'> +1.0100112e-05 </wgt>
<wgt id='morphing_basis_vector_1'> +1.0106079e-05 </wgt>
<wgt id='morphing_basis_vector_2'> +1.0145141e-05 </wgt>
<wgt id='morphing_basis_vector_4'> +1.0163282e-05 </wgt>
<wgt id='morphing_basis_vector_5'> +1.0038046e-05 </wgt>
</rwgt>
</event>
<event>
 7      1 +1.0054000e-05 7.37611600e+01 7.81860800e-03 1.35247900e-01
        2 -1    0    0  502    0 +0.0000000000e+00 +0.0000000000e+00 +6.2579372495e+02 6.2579372495e+02 0.0000000000e+00 0.0000e+00 -1.0000e+00
        1 -1    0    0  501    0 -0.0000000000e+00 -0.0000000000e+00 -6.0143183289e+01 6.0143183289e+01 0.0000000000e+00 0.0000e+00 -1.0000e+00
       25  2    1    2    0    0 -2.9586970828e+01 +2.2671364408e+01 +3.4352466841e+02 3.6745568465e+02 1.2500041107e+02 0.0000e+00 0.0000e+00
        2  1    1    2  501    0 -1.4273619401e+01 -7.8306972706e+01 -5.7908423176e+00 7.9807593874e+01 0.0000000000e+00 0.0000e+00 -1.0000e+00
        1  1    1    2  502    0 +4.3860590229e+01 +5.5635608299e+01 +2.2791671556e+02 2.3867362971e+02 0.0000000000e+00 0.0000e+00 -1.0000e+00
       22  1    3    3    0    0 -1.6463312274e+01 -4.6262804377e+00 -4.8432218210e+00 1.7773573623e+01 0.0000000000e+00 0.0000e+00 1.0000e+00
       22  1    3    3    0    0 -1.3123658553e+01 +2.7297644845e+01 +3.4836789023e+02 3.4968211103e+02 0.0000000000e+00 0.0000e+00 1.0000e+00
<rwgt>
<wgt id='SM'> +1.0317875e-05 </wgt>
<wgt id='morphing_basis_vector_1'> +1.0375177e-05 </wgt>
<wgt id='morphing_basis_vector_2'> +1.0538449e-05 </wgt>
<wgt id='morphing_basis_vector_4'> +1.0667666e-05 </wgt>
<wgt id='morphing_basis_vector_5'> +1.0006044e-05 </wgt>
</rwgt>
</event>
<event>
 7      1 +1.0054000e-05 5.99209600e+01 7.81860800e-03 1.45448600e-01
        2 -1    0    0  502    0 +0.0000000000e+00 +0.0000000000e+00 +1.1397081454e+03 1.1397081454e+03 0.0000000000e+00 0.0000e+00 -1.0000e+00
        1 -1    0    0  501    0 -0.0000000000e+00 -0.0000000000e+00 -8.5714099523e+02 8.5714099523e+02 0.0000000000e+00 0.0000e+00 -1.0000e+00
       25  2    1    2    0    0 +5.0116877318e+01 -6.9395442657e+01 +4.7877726016e+02 5.0217542479e+02 1.2500025425e+02 0.0000e+00 0.0000e+00
        2  1    1    2  501    0 -1.2658318520e+01 +5.8527675291e+01 -8.4379411845e+02 8.4591621106e+02 0.0000000000e+00 0.0000e+00 -1.0000e+00
        1  1    1    2  502    0 -3.7458558798e+01 +1.0867767365e+01 +6.4758400850e+02 6.4875750482e+02 0.0000000000e+00 0.0000e+00 -1.0000e+00
       22  1    3    3    0    0 -2.8640257648e+01 -5.5364182517e+01 +2.9860978785e+02 3.0504632839e+02 0.0000000000e+00 0.0000e+00 1.0000e+00
       22  1    3    3    0    0 +7.8757134966e+01 -1.4031260139e+01 +1.8016747232e+02 1.9712909641e+02 0.0000000000e+00 0.0000e+00 1.0000e+00
<rwgt>
<wgt id='SM'> +1.0068237e-05 </wgt>
<wgt id='morphing_basis_vector_1'> +9.9410268e-06 </wgt>
<wgt id='morphing_basis_vector_2'> +1.0323549e-05 </wgt>
<wgt id='morphing_basis_vector_4'> +1.0196803e-05 </wgt>
<wgt id='morphing_basis_vector_5'> +9.8160128e-06 </wgt>
</rwgt>
</event>
<event>
 7      1 +1.0054000e-05 4.05574000e+02 7.81860800e-03 1.25956500e-01
        2 -1    0    0  502    0 +0.0000000000e+00 +0.0000000000e+00 +7.7479187889e+02 7.7479187889e+02 0.0000000000e+00 0.0000e+00 -1.0000e+00
        1 -1    0    0  501    0 -0.0000000000e+00 -0.0000000000e+00 -3.7133204581e+02 3.7133204581e+02 0.0000000000e+00 0.0000e+00 -1.0000e+00
       25  2    1    2    0    0 +3.6951567398e+02 +1.5075852062e+02 +4.1172832149e+02 5.8686831010e+02 1.2499695130e+02 0.0000e+00 0.0000e+00
        2  1    1    2  501    0 -3.6553105922e+02 -1.8062428270e+02 -1.3461135724e+02 4.2936965922e+02 0.0000000000e+00 0.0000e+00 -1.0000e+00
        1  1    1    2  502    0 -3.9846147537e+00 +2.9865762085e+01 +1.2634286883e+02 1.2988595538e+02 0.0000000000e+00 0.0000e+00 -1.0000e+00
       22  1    3    3    0    0 +2.2754917529e+01 +4.7266157590e+01 +8.1754204723e+01 9.7137150025e+01 0.0000000000e+00 0.0000e+00 1.0000e+00
       22  1    3    3    0    0 +3.4676075645e+02 +1.0349236303e+02 +3.2997411677e+02 4.8973116008e+02 0.0000000000e+00 0.0000e+00 1.0000e+00
<rwgt>
<wgt id='SM'> +6.5325724e-06 </wgt>
<wgt id='morphing_basis_vector_1'> +4.5417095e-06 </wgt>
<wgt id='morphing_basis_vector_2'> +6.8728538e-06 </wgt>
<wgt id='morphing_basis_vector_4'> +4.1389728e-06 </wgt>
<wgt id='morphing_basis_vector_5'> +7.4715133e-06 </wgt>
</rwgt>
</event>
<event>
 7      1 +1.0054000e-05 5.66180300e+01 7.81860800e-03 1.53341500e-01
        2 -1    0    0  502    0 +0.0000000000e+00 +0.0000000000e+00 +1.9758443145e+01 1.9758443145e+01 0.0000000000e+00 0.0000e+00 -1.0000e+00
        1 -1    0    0  501    0 -0.0000000000e+00 -0.0000000000e+00 -1.4530889596e+03 1.4530889596e+03 0.0000000000e+00 0.0000e+00 -1.0000e+00
       25  2    1    2    0    0 -6.8922122024e+01 -3.0446052428e+01 -9.3630040048e+02 9.4760831980e+02 1.2500346713e+02 0.0000e+00 0.0000e+00
        2  1    1    2  501    0 +1.4530050771e+01 +1.8951975085e+01 -4.5479629356e+02 4.5542284569e+02 0.0000000000e+00 0.0000e+00 -1.0000e+00
        1  1    1    2  502    0 +5.4392071252e+01 +1.1494077343e+01 -4.2233822398e+01 6.9816237247e+01 0.0000000000e+00 0.0000e+00 -1.0000e+00
       22  1    3    3    0    0 -7.2817215425e+01 -4.6573784988e+01 -9.2097367261e+02 9.2502106460e+02 0.0000000000e+00 0.0000e+00 1.0000e+00
       22  1    3    3    0    0 +3.8950934016e+00 +1.6127732560e+01 -1.5326727868e+01 2.2587255196e+01 0.0000000000e+00 0.0000e+00 1.0000e+00
<rwgt>
<wgt id='SM'> +9.7801419e-06 </wgt>
<wgt id='morphing_basis_vector_1'> +9.5718905e-06 </wgt>
<wgt id='morphing_basis_vector_2'> +9.8392657e-06 </wgt>
<wgt id='morphing_basis_vector_4'> +9.5575709e-06 </wgt>
<wgt id='morphing_basis_vector_5'> +9.8313207e-06 </wgt>
</rwgt>
</event>
<event>
 7      1 +1.0054000e-05 1.10861600e+02 7.81860800e-03 1.33327000e-01
        2 -1    0    0  502    0 +0.0000000000e+00 +0.0000000000e+00 +6.5210044869e+02 6.5210044869e+02 0.0000000000e+00 0.0000e+00 -1.0000e+00
        1 -1    0    0  501    0 -0.0000000000e+00 -0.0000000000e+00 -9.4246818524e+02 9.4246818524e+02 0.0000000000e+00 0.0000e+00 -1.0000e+00
       25  2    1    2    0    0 +1.0622069532e+01 -1.3395285511e+02 +2.7830020564e+02 3.3336616484e+02 1.2500319856e+02 0.0000e+00 0.0000e+00
        2  1    1    2  501    0 +3.8774129228e+01 +3.9891181145e+01 -9.0591236609e+02 9.0761883766e+02 0.0000000000e+00 0.0000e+00 -1.0000e+00
        1  1    1    2  502    0 -4.9396198761e+01 +9.4061673961e+01 +3.3724442391e+02 3.5358363143e+02 0.0000000000e+00 0.0000e+00 -1.0000e+00
       22  1    3    3    0    0 +3.1811744223e+01 -1.6276562507e+01 +1.6436942055e+02 1.6820885818e+02 0.0000000000e+00 0.0000e+00 1.0000e+00
       22  1    3    3    0    0 -2.1189674691e+01 -1.1767629260e+02 +1.1393078509e+02 1.6515730666e+02 0.0000000000e+00 0.0000e+00 1.0000e+00
<rwgt>
<wgt id='SM'> +1.0062115e-05 </wgt>
<wgt id='morphing_basis_vector_1'> +9.6540254e-06 </wgt>
<wgt id='morphing_basis_vector_2'> +1.0851414e-05 </wgt>
<wgt id='morphing_basis_vector_4'> +1.0424134e-05 </wgt>
<wgt id='morphing_basis_vector_5'> +9.3157512e-06 </wgt>
</rwgt>
</event>
<event>
 7      1 +1.0054000e-05 7.07877300e+01 7.81860800e-03 1.40528800e-01
        2 -1    0    0  502    0 +0.0000000000e+00 +0.0000000000e+00 +1.3309176168e+03 1.3309176168e+03 0.0000000000e+00 0.0000e+00 -1.0000e+00
        1 -1    0    0  501    0 -0.0000000000e+00 -0.0000000000e+00 -3.5630120160e+02 3.5630120160e+02 0.0000000000e+00 0.0000e+00 -1.0000e+00
       25  2    1    2    0    0 -9.0596656956e+01 +7.0473146317e+01 -1.9159843040e+02 2.5594795846e+02 1.2500072121e+02 0.0000e+00 0.0000e+00
        2  1    1    2  501    0 +2.7125817317e+01 -3.9536489645e+01 -1.2719661185e+02 1.3593352068e+02 0.0000000000e+00 0.0000e+00 -1.0000e+00
        1  1    1    2  502    0 +6.3470839639e+01 -3.0936656672e+01 +1.2934114575e+03 1.2953373393e+03 0.0000000000e+00 0.0000e+00 -1.0000e+00
       22  1    3    3    0    0 -8.6338259070e+01 +1.0069826633e+02 -1.2313331193e+02 1.8098687335e+02 0.0000000000e+00 0.0000e+00 -1.0000e+00
       22  1    3    3    0    0 -4.2583978856e+00 -3.0225120012e+01 -6.8465118476e+01 7.4961085106e+01 0.0000000000e+00 0.0000e+00 -1.0000e+00
<rwgt>
<wgt id='SM'> +9.9121628e-06 </wgt>
<wgt id='morphing_basis_vector_1'> +9.5821270e-06 </wgt>
<wgt id='morphing_basis_vector_2'> +1.0363734e-05 </wgt>
<wgt id='morphing_basis_vector_4'> +9.9857537e-06 </wgt>
<wgt id='morphing_basis_vector_5'> +9.5354655e-06 </wgt>
</rwgt>
</event>
<event>
 7      1 +1.0054000e-05 1.23475300e+02 7.81860800e-03 1.42709100e-01
        2 -1    0    0  502    0 +0.0000000000e+00 +0.0000000000e+00 +1.6180994129e+03 1.6180994129e+03 0.0000000000e+00 0.0000e+00 -1.0000e+00
        1 -1    0    0  501    0 -0.0000000000e+00 -0.0000000000e+00 -5.8094507026e+02 5.8094507026e+02 0.0000000000e+00 0.0000e+00 -1.0000e+00
       25  2    1    2    0    0 +4.1789857999e+01 +1.2980751729e+02 +1.4478310805e+02 2.3490888092e+02 1.2499460062e+02 0.0000e+00 0.0000e+00
        2  1    1    2  501    0 -2.0147435108e+01 -1.2138740909e+02 -5.2872256341e+02 5.4285207127e+02 0.0000000000e+00 0.0000e+00 -1.0000e+00
        1  1    1    2  502    0 -2.1642422890e+01 -8.4201081951e+00 +1.4210937980e+03 1.4212835310e+03 0.0000000000e+00 0.0000e+00 -1.0000e+00
       22  1    3    3    0    0 +1.8236849265e+00 +1.4127233869e+02 +9.6011418249e+01 1.7081976448e+02 0.0000000000e+00 0.0000e+00 1.0000e+00
       22  1    3    3    0    0 +3.9966173072e+01 -1.1464821397e+01 +4.8771689803e+01 6.4089116440e+01 0.0000000000e+00 0.0000e+00 1.0000e+00
<rwgt>
<wgt id='SM'> +9.6666391e-06 </wgt>
<wgt id='morphing_basis_vector_1'> +9.3291296e-06 </wgt>
<wgt id='morphing_basis_vector_2'> +9.8336766e-06 </wgt>
<wgt id='morphing_basis_vector_4'> +9.3904292e-06 </wgt>
<wgt id='morphing_basis_vector_5'> +9.6563083e-06 </wgt>
</rwgt>
</event>
<event>
 7      1 +1.0054000e-05 4.98018200e+01 7.81860800e-03 1.48132200e-01
        2 -1    0    0  502    0 +0.0000000000e+00 +0.0000000000e+00 +2.0943263773e+03 2.0943263773e+03 0.0000000000e+00 0.0000e+00 -1.0000e+00
        1 -1    0    0  501    0 -0.0000000000e+00 -0.0000000000e+00 -1.6393975754e+01 1.6393975754e+01 0.0000000000e+00 0.0000e+00 -1.0000e+00
       25  2    1    2    0    0 +2.2985652196e+01 +2.9445708170e+01 +1.5390966717e+03 1.5446175575e+03 1.2501777562e+02 0.0000e+00 0.0000e+00
        2  1    1    2  501    0 -2.1609306985e+01 +3.2103880994e+01 +1.9877590944e+01 4.3505631187e+01 0.0000000000e+00 0.0000e+00 -1.0000e+00
        1  1    1    2  502    0 -1.3763452107e+00 -6.1549589164e+01 +5.1895813893e+02 5.2259716438e+02 0.0000000000e+00 0.0000e+00 -1.0000e+00
       22  1    3    3    0    0 -1.7702051995e+01 +2.3782119901e+01 +8.6490392134e+01 9.1430518993e+01 0.0000000000e+00 0.0000e+00 -1.0000e+00
       22  1    3    3    0    0 +4.0687704191e+01 +5.6635882696e+00 +1.4526062796e+03 1.4531870385e+03 0.0000000000e+00 0.0000e+00 -1.0000e+00
<rwgt>
<wgt id='SM'> +1.0183755e-05 </wgt>
<wgt id='morphing_basis_vector_1'> +1.0141452e-05 </wgt>
<wgt id='morphing_basis_vector_2'> +1.0423324e-05 </wgt>
<wgt id='morphing_basis_vector_4'> +1.0413995e-05 </wgt>
<wgt id='morphing_basis_vector_5'> +9.9045268e-06 </wgt>
</rwgt>
</event>
<event>
 7      1 +1.0054000e-05 1.20764000e+02 7.81860800e-03 1.34230500e-01
        2 -1    0    0  502    0 +0.0000000000e+00 +0.0000000000e+00 +3.9210574729e+02 3.9210574729e+02 0.0000000000e+00 0.0000e+00 -1.0000e+00
        1 -1    0    0  501    0 -0.0000000000e+00 -0.0000000000e+00 -5.6790252983e+02 5.6790252983e+02 0.0000000000e+00 0.0000e+00 -1.0000e+00
       25  2    1    2    0    0 -8.2221179130e+01 +1.2953935269e+01 -2.0342277361e+02 2.5285141970e+02 1.2499955555e+02 0.0000e+00 0.0000e+00
        2  1    1    2  501    0 -3.9705880887e+01 -2.5541600247e+01 -3.2780310185e+02 3.3118545244e+02 0.0000000000e+00 0.0000e+00 -1.0000e+00
        1  1    1    2  502    0 +1.2192706002e+02 +1.2587664978e+01 +3.5542909292e+02 3.7597140499e+02 0.0000000000e+00 0.0000e+00 -1.0000e+00
       22  1    3    3    0    0 -5.4149754114e+01 +6.8851607486e+01 -1.2124345221e+02 1.4957511300e+02 0.0000000000e+00 0.0000e+00 1.0000e+00
       22  1    3    3    0    0 -2.8071425016e+01 -5.5897672217e+01 -8.2179321396e+01 1.0327630671e+02 0.0000000000e+00 0.0000e+00 1.0000e+00
<rwgt>
<wgt id='SM'> +1.0162478e-05 </wgt>
<wgt id='morphing_basis_vector_1'> +1.0109091e-05 </wgt>
<wgt id='morphing_basis_vector_2'> +1.0395032e-05 </wgt>
<wgt id='morphing_basis_vector_4'> +1.0368895e-05 </wgt>
<wgt id='morphing_basis_vector_5'> +9.8957085e-06 </wgt>
</rwgt>
</event>
<event>
 7      1 +1.0054000e-05 9.06249400e+01 7.81860800e-03 1.34325500e-01
        2 -1    0    0  502    0 +0.0000000000e+00 +0.0000000000e+00 +7.9292946744e+02 7.9292946744e+02 0.0000000000e+00 0.0000e+00 -1.0000e+00
        1 -1    0    0  501    0 -0.0000000000e+00 -0.0000000000e+00 -5.7734174596e+02 5.7734174596e+02 0.0000000000e+00 0.0000e+00 -1.0000e+00
       25  2    1    2    0    0 -6.5673680879e+01 -9.0416916771e+00 +4.5593545839e+01 1.4865028225e+02 1.2499340160e+02 0.0000e+00 0.0000e+00
        2  1    1    2  501    0 +7.5979548468e+01 -5.2500451993e+01 -5.2034007006e+02 5.2847230557e+02 0.0000000000e+00 0.0000e+00 -1.0000e+00
        1  1    1    2  502    0 -1.0305867589e+01 +6.1542143670e+01 +6.9033424570e+02 6.9314862558e+02 0.0000000000e+00 0.0000e+00 -1.0000e+00
       22  1    3    3    0    0 +2.5737957468e+01 +2.8990050728e+01 +2.8646968975e+01 4.8202845635e+01 0.0000000000e+00 0.0000e+00 -1.0000e+00
       22  1    3    3    0    0 -9.1411638347e+01 -3.8031742405e+01 +1.6946576864e+01 1.0044743662e+02 0.0000000000e+00 0.0000e+00 -1.0000e+00
<rwgt>
<wgt id='SM'> +1.0218027e-05 </wgt>
<wgt id='morphing_basis_vector_1'> +1.0181551e-05 </wgt>
<wgt id='morphing_basis_vector_2'> +1.0486839e-05 </wgt>
<wgt id='morphing_basis_vector_4'> +1.0492676e-05 </wgt>
<wgt id='morphing_basis_vector_5'> +9.8940853e-06 </wgt>
</rwgt>
</event>
<event>
 7      1 +1.0054000e-05 3.91228500e+01 7.81860800e-03 1.51598300e-01
        2 -1    0    0  502    0 +0.0000000000e+00 +0.0000000000e+00 +1.8742005168e+03 1.8742005168e+03 0.0000000000e+00 0.0000e+00 -1.0000e+00
        1 -1    0    0  501    0 -0.0000000000e+00 -0.0000000000e+00 -1.3043843619e+02 1.3043843619e+02 0.0000000000e+00 0.0000e+00 -1.0000e+00
       25  2    1    2    0    0 -3.1926284783e+01 -1.5741794046e+01 +3.9425540461e+02 4.1512613602e+02 1.2500117200e+02 0.0000e+00 0.0000e+00
        2  1    1    2  501    0 +3.1823549624e+01 -2.3062144993e+01 -1.1652160572e+02 1.2297107564e+02 0.0000000000e+00 0.0000e+00 -1.0000e+00
        1  1    1    2  502    0 +1.0273515979e-01 +3.8803939039e+01 +1.4660282817e+03 1.4665417413e+03 0.0000000000e+00 0.0000e+00 -1.0000e+00
       22  1    3    3    0    0 -2.2351741219e+01 +5.4585135573e+01 +1.8160621631e+02 1.9094490086e+02 0.0000000000e+00 0.0000e+00 1.0000e+00
       22  1    3    3    0    0 -9.5745435647e+00 -7.0326929620e+01 +2.1264918830e+02 2.2418123516e+02 0.0000000000e+00 0.0000e+00 1.0000e+00
<rwgt>
<wgt id='SM'> +1.0106043e-05 </wgt>
<wgt id='morphing_basis_vector_1'> +1.0095194e-05 </wgt>
<wgt id='morphing_basis_vector_2'> +1.0189416e-05 </wgt>
<wgt id='morphing_basis_vector_4'> +1.0191960e-05 </wgt>
<wgt id='morphing_basis_vector_5'> +1.0004237e-05 </wgt>
</rwgt>
</event>
<event>
 7      1 +1.0054000e-05 2.89938900e+01 7.81860800e-03 1.64735000e-01
        2 -1    0    0  502    0 +0.0000000000e+00 +0.0000000000e+00 +6.2356455868e+02 6.2356455868e+02 0.0000000000e+00 0.0000e+00 -1.0000e+00
        1 -1    0    0  501    0 -0.0000000000e+00 -0.0000000000e+00 -1.7770391954e+02 1.7770391954e+02 0.0000000000e+00 0.0000e+00 -1.0000e+00
       25  2    1    2    0    0 -3.4032818223e+01 -1.8961751261e+01 +1.6859152480e+01 1.3201072484e+02 1.2499927889e+02 0.0000e+00 0.0000e+00
        2  1    1    2  501    0 +2.8697394738e+01 -3.6928820042e+00 -1.1813487388e+02 1.2162658537e+02 0.0000000000e+00 0.0000e+00 -1.0000e+00
        1  1    1    2  502    0 +5.3354234848e+00 +2.2654633265e+01 +5.4713636054e+02 5.4763116801e+02 0.0000000000e+00 0.0000e+00 -1.0000e+00
       22  1    3    3    0    0 +4.1981537717e+01 +2.1271951995e+00 -1.8049101763e+01 4.5746524928e+01 0.0000000000e+00 0.0000e+00 1.0000e+00
       22  1    3    3    0    0 -7.6014355940e+01 -2.1088946461e+01 +3.4908254243e+01 8.6264199910e+01 0.0000000000e+00 0.0000e+00 1.0000e+00
<rwgt>
<wgt id='SM'> +1.0070573e-05 </wgt>
<wgt id='morphing_basis_vector_1'> +1.0045358e-05 </wgt>
<wgt id='morphing_basis_vector_2'> +1.0137500e-05 </wgt>
<wgt id='morphing_basis_vector_4'> +1.0116184e-05 </wgt>
<wgt id='morphing_basis_vector_5'> +9.9987661e-06 </wgt>
</rwgt>
</event>
<event>
 7      1 +1.0054000e-05 1.00452500e+02 7.81860800e-03 1.33291400e-01
        2 -1    0    0  502    0 +0.0000000000e+00 +0.0000000000e+00 +8.8368168921e+02 8.8368168921e+02 0.0000000000e+00 0.0000e+00 -1.0000e+00
        1 -1    0    0  501    0 -0.0000000000e+00 -0.0000000000e+00 -5.7537748151e+02 5.7537748151e+02 0.0000000000e+00 0.0000e+00 -1.0000e+00
       25  2    1    2    0    0 -8.9035160649e+01 +4.8629705875e+01 +1.9203897115e+02 2.5059317018e+02 1.2500344946e+02 0.0000e+00 0.0000e+00
        2  1    1    2  501    0 +4.4047872318e+01 -9.0689353285e+01 -5.3999300211e+02 5.4932432695e+02 0.0000000000e+00 0.0000e+00 -1.0000e+00
        1  1    1    2  502    0 +4.4987288332e+01 +4.2059647410e+01 +6.5625823866e+02 6.5914167359e+02 0.0000000000e+00 0.0000e+00 -1.0000e+00
       22  1    3    3    0    0 -9.3876003137e+00 +2.4541681494e+01 +1.5884940998e+02 1.6100793838e+02 0.0000000000e+00 0.0000e+00 -1.0000e+00
       22  1    3    3    0    0 -7.9647560336e+01 +2.4088024380e+01 +3.3189561163e+01 8.9585231797e+01 0.0000000000e+00 0.0000e+00 -1.0000e+00
<rwgt>
<wgt id='SM'> +1.0252847e-05 </wgt>
<wgt id='morphing_basis_vector_1'> +1.0129940e-05 </wgt>
<wgt id='morphing_basis_vector_2'> +1.0728652e-05 </wgt>
<wgt id='morphing_basis_vector_4'> +1.0654013e-05 </wgt>
<wgt id='morphing_basis_vector_5'> +9.7205907e-06 </wgt>
</rwgt>
</event>
<event>
 7      1 +1.0054000e-05 1.55889400e+02 7.81860800e-03 1.28462600e-01
        2 -1    0    0  502    0 +0.0000000000e+00 +0.0000000000e+00 +9.6579372418e+02 9.6579372418e+02 0.0000000000e+00 0.0000e+00 -1.0000e+00
        1 -1    0    0  501    0 -0.0000000000e+00 -0.0000000000e+00 -3.8735870225e+02 3.8735870225e+02 0.0000000000e+00 0.0000e+00 -1.0000e+00
       25  2    1    2    0    0 -1.1906308615e+02 +5.1788235783e-03 -1.0802804991e+01 1.7296770028e+02 1.2500042494e+02 0.0000e+00 0.0000e+00
        2  1    1    2  501    0 -3.1086454278e+01 +5.3144237915e+01 -2.8499043089e+02 2.9156512713e+02 0.0000000000e+00 0.0000e+00 -1.0000e+00
        1  1    1    2  502    0 +1.5014954043e+02 -5.3149416739e+01 +8.7422825781e+02 8.8861959901e+02 0.0000000000e+00 0.0000e+00 -1.0000e+00
       22  1    3    3    0    0 -1.1942658670e+02 -4.4238559914e+01 +2.7352054346e-01 1.2735711448e+02 0.0000000000e+00 0.0000e+00 -1.0000e+00
       22  1    3    3    0    0 +3.6350054785e-01 +4.4243738738e+01 -1.1076325535e+01 4.5610585805e+01 0.0000000000e+00 0.0000e+00 -1.0000e+00
<rwgt>
<wgt id='SM'> +9.5150421e-06 </wgt>
<wgt id='morphing_basis_vector_1'> +9.2322430e-06 </wgt>
<wgt id='morphing_basis_vector_2'> +9.4001864e-06 </wgt>
<wgt id='morphing_basis_vector_4'> +8.9812366e-06 </wgt>
<wgt id='morphing_basis_vector_5'> +9.8416138e-06 </wgt>
</rwgt>
</event>
<event>
 7      1 +1.0054000e-05 6.65101200e+01 7.81860800e-03 1.47439500e-01
        2 -1    0    0  502    0 +0.0000000000e+00 +0.0000000000e+00 +4.8835519616e+02 4.8835519616e+02 0.0000000000e+00 0.0000e+00 -1.0000e+00
        1 -1    0    0  501    0 -0.0000000000e+00 -0.0000000000e+00 -7.8463913250e+02 7.8463913250e+02 0.0000000000e+00 0.0000e+00 -1.0000e+00
       25  2    1    2    0    0 +5.2136485481e+01 +5.8762413989e+01 +8.4251314205e+00 1.4787484738e+02 1.2499901292e+02 0.0000e+00 0.0000e+00
        2  1    1    2  501    0 -5.9591841057e+01 -2.9254830458e+01 -7.1280529401e+02 7.1588994950e+02 0.0000000000e+00 0.0000e+00 -1.0000e+00
        1  1    1    2  502    0 +7.4553555761e+00 -2.9507583530e+01 +4.0809622624e+02 4.0922953178e+02 0.0000000000e+00 0.0000e+00 -1.0000e+00
       22  1    3    3    0    0 -8.3102716252e+00 -3.4000377124e+01 +1.2268024020e+01 3.7088956206e+01 0.0000000000e+00 0.0000e+00 1.0000e+00
       22  1    3    3    0    0 +6.0446757106e+01 +9.2762791113e+01 -3.8428925997e+00 1.1078589117e+02 0.0000000000e+00 0.0000e+00 1.0000e+00
<rwgt>
<wgt id='SM'> +1.0073300e-05 </wgt>
<wgt id='morphing_basis_vector_1'> +9.9812625e-06 </wgt>
<wgt id='morphing_basis_vector_2'> +1.0268492e-05 </wgt>
<wgt id='morphing_basis_vector_4'> +1.0179398e-05 </wgt>
<wgt id='morphing_basis_vector_5'> +9.8766010e-06 </wgt>
</rwgt>
</event>
<event>
 7      1 +1.0054000e-05 6.54096300e+01 7.81860800e-03 1.41535300e-01
        2 -1    0    0  502    0 +0.0000000000e+00 +0.0000000000e+00 +4.5320379207e+02 4.5320379207e+02 0.0000000000e+00 0.0000e+00 -1.0000e+00
        1 -1    0    0  501    0 -0.0000000000e+00 -0.0000000000e+00 -3.2546356910e+02 3.2546356910e+02 0.0000000000e+00 0.0000e+00 -1.0000e+00
       25  2    1    2    0    0 -1.3190187795e+01 +1.7157061947e+01 -2.1370432269e+01 1.2864645747e+02 1.2499947926e+02 0.0000e+00 0.0000e+00
        2  1    1    2  501    0 +3.5065006959e+01 -5.9851335018e+01 -2.4416651331e+02 2.5382872815e+02 0.0000000000e+00 0.0000e+00 -1.0000e+00
        1  1    1    2  502    0 -2.1874819165e+01 +4.2694273072e+01 +3.9327716855e+02 3.9619217555e+02 0.0000000000e+00 0.0000e+00 -1.0000e+00
       22  1    3    3    0    0 +3.8026005603e+01 -3.4234251496e+01 +5.0874607112e+00 5.1418317107e+01 0.0000000000e+00 0.0000e+00 1.0000e+00
       22  1    3    3    0    0 -5.1216193397e+01 +5.1391313443e+01 -2.6457892980e+01 7.7228140366e+01 0.0000000000e+00 0.0000e+00 1.0000e+00
<rwgt>
<wgt id='SM'> +1.0056791e-05 </wgt>
<wgt id='morphing_basis_vector_1'> +1.0048496e-05 </wgt>
<wgt id='morphing_basis_vector_2'> +1.0075618e-05 </wgt>
<wgt id='morphing_basis_vector_4'> +1.0067973e-05 </wgt>
<wgt id='morphing_basis_vector_5'> +1.0037360e-05 </wgt>
</rwgt>
</event>
<event>
 7      1 +1.0054000e-05 8.12468200e+01 7.81860800e-03 1.43887500e-01
        2 -1    0    0  502    0 +0.0000000000e+00 +0.0000000000e+00 +7.6365049609e+02 7.6365049609e+02 0.0000000000e+00 0.0000e+00 -1.0000e+00
        1 -1    0    0  501    0 -0.0000000000e+00 -0.0000000000e+00 -1.7489811856e+03 1.7489811856e+03 0.0000000000e+00 0.0000e+00 -1.0000e+00
       25  2    1    2    0    0 -9.6150964175e+00 +7.4646204375e+01 +2.2898101817e+02 2.7151737347e+02 1.2499948603e+02 0.0000e+00 0.0000e+00
        2  1    1    2  501    0 -2.2486507683e+01 -7.8121400094e+01 -1.7262478274e+03 1.7281609178e+03 0.0000000000e+00 0.0000e+00 -1.0000e+00
        1  1    1    2  502    0 +3.2101604100e+01 +3.4751957193e+00 +5.1193611977e+02 5.1295339037e+02 0.0000000000e+00 0.0000e+00 -1.0000e+00
       22  1    3    3    0    0 -6.3727142697e+01 +4.0813882265e+01 +8.3708122070e+01 1.1284489976e+02 0.0000000000e+00 0.0000e+00 -1.0000e+00
       22  1    3    3    0    0 +5.4112046280e+01 +3.3832322110e+01 +1.4527289610e+02 1.5867247371e+02 0.0000000000e+00 0.0000e+00 -1.0000e+00
<rwgt>
<wgt id='SM'> +1.0125522e-05 </wgt>
<wgt id='morphing_basis_vector_1'> +1.0058685e-05 </wgt>
<wgt id='morphing_basis_vector_2'> +1.0337407e-05 </wgt>
<wgt id='morphing_basis_vector_4'> +1.0287714e-05 </wgt>
<wgt id='morphing_basis_vector_5'> +9.8922916e-06 </wgt>
</rwgt>
</event>
<event>
 7      1 +1.0054000e-05 4.76047700e+01 7.81860800e-03 1.49419900e-01
        2 -1    0    0  502    0 +0.0000000000e+00 +0.0000000000e+00 +6.5896926780e+02 6.5896926780e+02 0.0000000000e+00 0.0000e+00 -1.0000e+00
        1 -1    0    0  501    0 -0.0000000000e+00 -0.0000000000e+00 -7.1454799720e+02 7.1454799720e+02 0.0000000000e+00 0.0000e+00 -1.0000e+00
       25  2    1    2    0    0 +4.2566568165e+01 +5.4881021157e+01 +8.4761087226e+01 1.6623609091e+02 1.2500462713e+02 0.0000e+00 0.0000e+00
        2  1    1    2  501    0 +1.1870207104e+00 -3.6982143870e+01 -6.7225347174e+02 6.7327098426e+02 0.0000000000e+00 0.0000e+00 -1.0000e+00
        1  1    1    2  502    0 -4.3753588875e+01 -1.7898877287e+01 +5.3191365512e+02 5.3401018984e+02 0.0000000000e+00 0.0000e+00 -1.0000e+00
       22  1    3    3    0    0 +7.3167746066e+01 -7.0795740738e+00 +3.7560948192e+01 8.2549768398e+01 0.0000000000e+00 0.0000e+00 1.0000e+00
       22  1    3    3    0    0 -3.0601177901e+01 +6.1960595231e+01 +4.7200139034e+01 8.3686322509e+01 0.0000000000e+00 0.0000e+00 1.0000e+00
<rwgt>
<wgt id='SM'> +9.8907422e-06 </wgt>
<wgt id='morphing_basis_vector_1'> +9.7845386e-06 </wgt>
<wgt id='morphing_basis_vector_2'> +9.8911383e-06 </wgt>
<wgt id='morphing_basis_vector_4'> +9.7416084e-06 </wgt>
<wgt id='morphing_basis_vector_5'> +9.9550385e-06 </wgt>
</rwgt>
</event>
<event>
 7      1 +1.0054000e-05 1.73537600e+02 7.81860800e-03 1.25135800e-01
        2 -1    0    0  502    0 +0.0000000000e+00 +0.0000000000e+00 +5.0801105011e+02 5.0801105011e+02 0.0000000000e+00 0.0000e+00 -1.0000e+00
        1 -1    0    0  501    0 -0.0000000000e+00 -0.0000000000e+00 -5.5016727286e+02 5.5016727286e+02 0.0000000000e+00 0.0000e+00 -1.0000e+00
       25  2    1    2    0    0 +3.1806410505e+01 +2.2248288609e+02 -2.4473187041e+02 3.5500771476e+02 1.2500602701e+02 0.0000e+00 0.0000e+00
        2  1    1    2  501    0 +3.8068634301e+01 -6.6214572913e+01 -2.2766063507e+02 2.4013112115e+02 0.0000000000e+00 0.0000e+00 -1.0000e+00
        1  1    1    2  502    0 -6.9875044805e+01 -1.5626831318e+02 +4.3023628274e+02 4.6303948706e+02 0.0000000000e+00 0.0000e+00 -1.0000e+00
       22  1    3    3    0    0 +1.6334504559e+01 +1.8794948460e+02 -1.1747435396e+02 2.2224321956e+02 0.0000000000e+00 0.0000e+00 1.0000e+00
       22  1    3    3    0    0 +1.5471905946e+01 +3.4533401485e+01 -1.2725751645e+02 1.3276449520e+02 0.0000000000e+00 0.0000e+00 1.0000e+00
<rwgt>
<wgt id='SM'> +8.3618935e-06 </wgt>
<wgt id='morphing_basis_vector_1'> +7.2481915e-06 </wgt>
<wgt id='morphing_basis_vector_2'> +8.5536331e-06 </wgt>
<wgt id='morphing_basis_vector_4'> +7.0185155e-06 </wgt>
<wgt id='morphing_basis_vector_5'> +8.8348642e-06 </wgt>
</rwgt>
</event>
<event>
 7      1 +1.0054000e-05 7.38703800e+01 7.81860800e-03 1.48088200e-01
        2 -1    0    0  502    0 +0.0000000000e+00 +0.0000000000e+00 +1.4336753313e+03 1.4336753313e+03 0.0000000000e+00 0.0000e+00 -1.0000e+00
        1 -1    0    0  501    0 -0.0000000000e+00 -0.0000000000e+00 -2.2697831518e+01 2.2697831518e+01 0.0000000000e+00 0.0000e+00 -1.0000e+00
       25  2    1    2    0    0 +1.5278796883e+00 -8.8631456187e+01 +3.0129602502e+02 3.3802579299e+02 1.2499709034e+02 0.0000e+00 0.0000e+00
        2  1    1    2  501    0 -4.9857102281e+00 +6.2689557053e+01 +2.3483966592e+02 2.4311418420e+02 0.0000000000e+00 0.0000e+00 -1.0000e+00
        1  1    1    2  502    0 +3.4578305398e+00 +2.5941899134e+01 +8.7484180879e+02 8.7523318557e+02 0.0000000000e+00 0.0000e+00 -1.0000e+00
       22  1    3    3    0    0 +3.3901561949e+01 -1.6942017894e+00 +1.9058994869e+02 1.9358903575e+02 0.0000000000e+00 0.0000e+00 -1.0000e+00
       22  1    3    3    0    0 -3.2373682260e+01 -8.6937254398e+01 +1.1070607633e+02 1.4443675724e+02 0.0000000000e+00 0.0000e+00 -1.0000e+00
<rwgt>
<wgt id='SM'> +9.4464962e-06 </wgt>
<wgt id='morphing_basis_vector_1'> +8.8220736e-06 </wgt>
<wgt id='morphing_basis_vector_2'> +9.9098761e-06 </wgt>
<wgt id='morphing_basis_vector_4'> +9.1110728e-06 </wgt>
<wgt id='morphing_basis_vector_5'> +9.2446472e-06 </wgt>
</rwgt>
</event>
<event>
 7      1 +1.0054000e-05 7.44246000e+01 7.81860800e-03 1.47859200e-01
        2 -1    0    0  502    0 +0.0000000000e+00 +0.0000000000e+00 +6.9380090688e+02 6.9380090688e+02 0.0000000000e+00 0.0000e+00 -1.0000e+00
        1 -1    0    0  501    0 -0.0000000000e+00 -0.0000000000e+00 -3.1713295336e+01 3.1713295336e+01 0.0000000000e+00 0.0000e+00 -1.0000e+00
       25  2    1    2    0    0 -5.6471959464e+01 -3.4464331187e+01 +2.0051167399e+02 2.4536876247e+02 1.2499610338e+02 0.0000e+00 0.0000e+00
        2  1    1    2  501    0 +8.7827810071e+00 -2.4896283730e+01 +2.3015623786e+01 3.5024007824e+01 0.0000000000e+00 0.0000e+00 -1.0000e+00
        1  1    1    2  502    0 +4.7689178457e+01 +5.9360614917e+01 +4.3856031376e+02 4.4512143192e+02 0.0000000000e+00 0.0000e+00 -1.0000e+00
       22  1    3    3    0    0 -8.4079650322e+01 -1.1435563449e+01 +7.0014658454e+01 1.1001005458e+02 0.0000000000e+00 0.0000e+00 1.0000e+00
       22  1    3    3    0    0 +2.7607690859e+01 -2.3028767738e+01 +1.3049701554e+02 1.3535870789e+02 0.0000000000e+00 0.0000e+00 1.0000e+00
<rwgt>
<wgt id='SM'> +1.0355708e-05 </wgt>
<wgt id='morphing_basis_vector_1'> +1.0388111e-05 </wgt>
<wgt id='morphing_basis_vector_2'> +1.0669370e-05 </wgt>
<wgt id='morphing_basis_vector_4'> +1.0781295e-05 </wgt>
<wgt id='morphing_basis_vector_5'> +9.9399672e-06 </wgt>
</rwgt>
</event>
</LesHouchesEvents>
