<event>
 7    1  0.8792454E-005  0.9973664E+02  0.7818608E-02  0.1428459E+00
          2   -1    0    0  502    0  0.00000000000E+00  0.00000000000E+00  0.10628104235E+04  0.10628104235E+04  0.00000000000E+00 0. -1.
          1   -1    0    0  501    0 -0.00000000000E+00 -0.00000000000E+00 -0.73269932065E+03  0.73269932065E+03  0.00000000000E+00 0. -1.
         25    2    1    2    0    0  0.37036149118E+02 -0.67003392697E+02  0.24684407263E+03  0.28708593342E+03  0.12500082401E+03 0.  0.
          2    1    1    2  501    0 -0.31610953284E+02  0.94933896132E+02 -0.70880920954E+03  0.71583670801E+03  0.00000000000E+00 0. -1.
          1    1    1    2  502    0 -0.54251958345E+01 -0.27930503435E+02  0.79207623977E+03  0.79258710271E+03  0.00000000000E+00 0. -1.
         22    1    3    3    0    0  0.18311473588E+02 -0.88489982105E+02  0.24181132221E+03  0.25814434440E+03  0.00000000000E+00 0. -1.
         22    1    3    3    0    0  0.18724675530E+02  0.21486589408E+02  0.50327504136E+01  0.28941589017E+02  0.00000000000E+00 0. -1.
</event>
<event>
 7    1  0.8792454E-005  0.9581183E+03  0.7818608E-02  0.9962445E-01
          2   -1    0    0  502    0  0.00000000000E+00  0.00000000000E+00  0.28747874281E+04  0.28747874281E+04  0.00000000000E+00 0. -1.
          1   -1    0    0  501    0 -0.00000000000E+00 -0.00000000000E+00 -0.53107836411E+03  0.53107836411E+03  0.00000000000E+00 0. -1.
         25    2    1    2    0    0  0.10116037996E+04 -0.87567750274E+01  0.46856405333E+03  0.11218722037E+04  0.12500416352E+03 0.  0.
          2    1    1    2  501    0 -0.85954447868E+03 -0.29871477296E+03  0.10443797772E+04  0.13851990273E+04  0.00000000000E+00 0. -1.
          1    1    1    2  502    0 -0.15205932096E+03  0.30747154799E+03  0.83076523354E+03  0.89879456116E+03  0.00000000000E+00 0. -1.
         22    1    3    3    0    0  0.10572543403E+02  0.11159381162E+02 -0.21329872223E+01  0.15519668051E+02  0.00000000000E+00 0. -1.
         22    1    3    3    0    0  0.10010312562E+04 -0.19916156189E+02  0.47069704055E+03  0.11063525357E+04  0.00000000000E+00 0. -1.
</event>
<event>
 7    1  0.8792454E-005  0.2599082E+03  0.7818608E-02  0.1187719E+00
          2   -1    0    0  502    0  0.00000000000E+00  0.00000000000E+00  0.50941652500E+03  0.50941652500E+03  0.00000000000E+00 0. -1.
          1   -1    0    0  501    0 -0.00000000000E+00 -0.00000000000E+00 -0.10808244782E+04  0.10808244782E+04  0.00000000000E+00 0. -1.
         25    2    1    2    0    0 -0.13290357251E+03 -0.22529402894E+03  0.43083004654E+03  0.51928636885E+03  0.12499217901E+03 0.  0.
          2    1    1    2  501    0  0.38753459546E+02  0.25769381864E+03 -0.84998385161E+03  0.88903345426E+03  0.00000000000E+00 0. -1.
          1    1    1    2  502    0  0.94150112961E+02 -0.32399789702E+02 -0.15225414808E+03  0.18192118005E+03  0.00000000000E+00 0. -1.
         22    1    3    3    0    0  0.19300474711E+02 -0.24184229236E+02  0.18839396401E+02  0.36225793636E+02  0.00000000000E+00 0.  1.
         22    1    3    3    0    0 -0.15220404722E+03 -0.20110979970E+03  0.41199065014E+03  0.48306057521E+03  0.00000000000E+00 0.  1.
</event>
<event>
 7    1  0.8792454E-005  0.8643470E+03  0.7818608E-02  0.1111351E+00
          2   -1    0    0  502    0  0.00000000000E+00  0.00000000000E+00  0.14175944850E+04  0.14175944850E+04  0.00000000000E+00 0. -1.
          1   -1    0    0  501    0 -0.00000000000E+00 -0.00000000000E+00 -0.24999058999E+04  0.24999058999E+04  0.00000000000E+00 0. -1.
         25    2    1    2    0    0 -0.55229791212E+03 -0.70517371019E+03  0.79122404464E+02  0.90784829531E+03  0.12500090856E+03 0.  0.
          2    1    1    2  501    0  0.57793401867E+03  0.63562473568E+03 -0.19953599453E+04  0.21724382260E+04  0.00000000000E+00 0. -1.
          1    1    1    2  502    0 -0.25636106557E+02  0.69548974504E+02  0.83392612594E+03  0.83721386356E+03  0.00000000000E+00 0. -1.
         22    1    3    3    0    0 -0.43620449443E+03 -0.46631761910E+03  0.45499054755E+02  0.64015361190E+03  0.00000000000E+00 0.  1.
         22    1    3    3    0    0 -0.11609341768E+03 -0.23885609109E+03  0.33623349708E+02  0.26769468341E+03  0.00000000000E+00 0.  1.
</event>
<event>
 7    1  0.8792454E-005  0.1852462E+03  0.7818608E-02  0.1225280E+00
          2   -1    0    0  502    0  0.00000000000E+00  0.00000000000E+00  0.30262738377E+03  0.30262738377E+03  0.00000000000E+00 0. -1.
          1   -1    0    0  501    0 -0.00000000000E+00 -0.00000000000E+00 -0.64424015618E+03  0.64424015618E+03  0.00000000000E+00 0. -1.
         25    2    1    2    0    0  0.23576605197E+03 -0.67516134396E+02 -0.25844664478E+03  0.37757594502E+03  0.12499946557E+03 0.  0.
          2    1    1    2  501    0 -0.14353898901E+03  0.81726886855E+02 -0.29484383729E+03  0.33795800595E+03  0.00000000000E+00 0. -1.
          1    1    1    2  502    0 -0.92227062965E+02 -0.14210752458E+02  0.21167770965E+03  0.23133358898E+03  0.00000000000E+00 0. -1.
         22    1    3    3    0    0  0.21717147944E+03 -0.42636925307E+02 -0.26557906954E+03  0.34570739225E+03  0.00000000000E+00 0.  1.
         22    1    3    3    0    0  0.18594572528E+02 -0.24879209089E+02  0.71324247577E+01  0.31868552764E+02  0.00000000000E+00 0.  1.
</event>
<event>
 7    1  0.8792454E-005  0.7112732E+03  0.7818608E-02  0.1074230E+00
          2   -1    0    0  502    0  0.00000000000E+00  0.00000000000E+00  0.16899421823E+04  0.16899421823E+04  0.00000000000E+00 0. -1.
          1   -1    0    0  501    0 -0.00000000000E+00 -0.00000000000E+00 -0.43495704325E+03  0.43495704325E+03  0.00000000000E+00 0. -1.
         25    2    1    2    0    0 -0.58626338239E+03  0.45908355994E+03  0.62967331713E+03  0.98314574038E+03  0.12499836790E+03 0.  0.
          2    1    1    2  501    0  0.45563214311E+03 -0.52599901983E+03  0.25114724175E+03  0.73983143738E+03  0.00000000000E+00 0. -1.
          1    1    1    2  502    0  0.13063123928E+03  0.66915459896E+02  0.37416458017E+03  0.40192204779E+03  0.00000000000E+00 0. -1.
         22    1    3    3    0    0 -0.24238326458E+03  0.20768812998E+03  0.34934085132E+03  0.47320506832E+03  0.00000000000E+00 0. -1.
         22    1    3    3    0    0 -0.34388011782E+03  0.25139542996E+03  0.28033246581E+03  0.50994067206E+03  0.00000000000E+00 0. -1.
</event>
<event>
 7    1  0.8792454E-005  0.9063296E+02  0.7818608E-02  0.1487910E+00
          2   -1    0    0  502    0  0.00000000000E+00  0.00000000000E+00  0.13063957464E+04  0.13063957464E+04  0.00000000000E+00 0. -1.
          1   -1    0    0  501    0 -0.00000000000E+00 -0.00000000000E+00 -0.15123358684E+02  0.15123358684E+02  0.00000000000E+00 0. -1.
         25    2    1    2    0    0 -0.59578863302E+02  0.75273123114E+02  0.56159478930E+03  0.58329206974E+03  0.12500098894E+03 0.  0.
          2    1    1    2  501    0  0.39390299223E+02 -0.77434378919E+02  0.48592020280E+03  0.49362548779E+03  0.00000000000E+00 0. -1.
          1    1    1    2  502    0  0.20188564079E+02  0.21612558050E+01  0.24375739564E+03  0.24460154757E+03  0.00000000000E+00 0. -1.
         22    1    3    3    0    0 -0.62065265079E+02  0.85605366418E+02  0.24904910198E+03  0.27056576111E+03  0.00000000000E+00 0.  1.
         22    1    3    3    0    0  0.24864017773E+01 -0.10332243304E+02  0.31254568732E+03  0.31272630863E+03  0.00000000000E+00 0.  1.
</event>
<event>
 7    1  0.8792454E-005  0.7312596E+02  0.7818608E-02  0.1364752E+00
          2   -1    0    0  502    0  0.00000000000E+00  0.00000000000E+00  0.13069250622E+04  0.13069250622E+04  0.00000000000E+00 0. -1.
          1   -1    0    0  501    0 -0.00000000000E+00 -0.00000000000E+00 -0.37281554276E+03  0.37281554276E+03  0.00000000000E+00 0. -1.
         25    2    1    2    0    0  0.10252308166E+02  0.13111458176E+03  0.75028243008E+03  0.77190458324E+03  0.12496726518E+03 0.  0.
          2    1    1    2  501    0 -0.25105348435E+02 -0.68405213015E+02 -0.35640307953E+03  0.36377562698E+03  0.00000000000E+00 0. -1.
          1    1    1    2  502    0  0.14853040269E+02 -0.62709368743E+02  0.54023016886E+03  0.54406039470E+03  0.00000000000E+00 0. -1.
         22    1    3    3    0    0  0.66627661888E+02  0.56509099458E+02  0.33260052297E+03  0.34388316552E+03  0.00000000000E+00 0. -1.
         22    1    3    3    0    0 -0.56375353723E+02  0.74605482300E+02  0.41768190711E+03  0.42802141772E+03  0.00000000000E+00 0. -1.
</event>
<event>
 7    1  0.8792454E-005  0.1396274E+03  0.7818608E-02  0.1389404E+00
          2   -1    0    0  502    0  0.00000000000E+00  0.00000000000E+00  0.24704336036E+02  0.24704336036E+02  0.00000000000E+00 0. -1.
          1   -1    0    0  501    0 -0.00000000000E+00 -0.00000000000E+00 -0.26571136905E+04  0.26571136905E+04  0.00000000000E+00 0. -1.
         25    2    1    2    0    0  0.79058588473E+02 -0.10315600917E+03 -0.45668520314E+03  0.49099706949E+03  0.12500129936E+03 0.  0.
          2    1    1    2  501    0 -0.63663929358E+02  0.12603904999E+03 -0.21445678601E+04  0.21492115402E+04  0.00000000000E+00 0. -1.
          1    1    1    2  502    0 -0.15394659115E+02 -0.22883040822E+02 -0.31156291242E+02  0.41609416849E+02  0.00000000000E+00 0. -1.
         22    1    3    3    0    0 -0.13421856269E+02  0.17367057531E+02 -0.24522052958E+02  0.32910363023E+02  0.00000000000E+00 0.  1.
         22    1    3    3    0    0  0.92480444742E+02 -0.12052306670E+03 -0.43216315018E+03  0.45808670647E+03  0.00000000000E+00 0.  1.
</event>
<event>
 7    1  0.8792454E-005  0.7780231E+02  0.7818608E-02  0.1336656E+00
          2   -1    0    0  502    0  0.00000000000E+00  0.00000000000E+00  0.16809799465E+04  0.16809799465E+04  0.00000000000E+00 0. -1.
          1   -1    0    0  501    0 -0.00000000000E+00 -0.00000000000E+00 -0.10002258592E+03  0.10002258592E+03  0.00000000000E+00 0. -1.
         25    2    1    2    0    0 -0.24206167805E+02 -0.81401811592E+02  0.18120920926E+03  0.23595335644E+03  0.12500006160E+03 0.  0.
          2    1    1    2  501    0  0.76243962155E+02  0.23563527566E+02 -0.49373172921E+02  0.93840778986E+02  0.00000000000E+00 0. -1.
          1    1    1    2  502    0 -0.52037794350E+02  0.57838284026E+02  0.14491213242E+04  0.14512083969E+04  0.00000000000E+00 0. -1.
         22    1    3    3    0    0 -0.50182447573E+02 -0.34148495313E+02  0.17049355129E+03  0.18097637638E+03  0.00000000000E+00 0. -1.
         22    1    3    3    0    0  0.25976279768E+02 -0.47253316279E+02  0.10715657972E+02  0.54976980053E+02  0.00000000000E+00 0. -1.
</event>
<event>
 7    1  0.8792454E-005  0.1807908E+03  0.7818608E-02  0.1201310E+00
          2   -1    0    0  502    0  0.00000000000E+00  0.00000000000E+00  0.35469111854E+04  0.35469111854E+04  0.00000000000E+00 0. -1.
          1   -1    0    0  501    0 -0.00000000000E+00 -0.00000000000E+00 -0.21078061760E+02  0.21078061760E+02  0.00000000000E+00 0. -1.
         25    2    1    2    0    0  0.19450733843E+03  0.11311526514E+02  0.13922093313E+04  0.14113229404E+04  0.12499825899E+03 0.  0.
          2    1    1    2  501    0 -0.39353996145E+02 -0.11688197305E+03  0.10062888016E+04  0.10138181715E+04  0.00000000000E+00 0. -1.
          1    1    1    2  502    0 -0.15515334228E+03  0.10557044654E+03  0.11273349907E+04  0.11428481352E+04  0.00000000000E+00 0. -1.
         22    1    3    3    0    0  0.12599095789E+03  0.20620104620E+02  0.12051426210E+04  0.12118859877E+04  0.00000000000E+00 0. -1.
         22    1    3    3    0    0  0.68516380533E+02 -0.93085781066E+01  0.18706671028E+03  0.19943695276E+03  0.00000000000E+00 0. -1.
</event>
<event>
 7    1  0.8792454E-005  0.4074174E+02  0.7818608E-02  0.1537176E+00
          2   -1    0    0  502    0  0.00000000000E+00  0.00000000000E+00  0.52923872768E+03  0.52923872768E+03  0.00000000000E+00 0. -1.
          1   -1    0    0  501    0 -0.00000000000E+00 -0.00000000000E+00 -0.12321401685E+04  0.12321401685E+04  0.00000000000E+00 0. -1.
         25    2    1    2    0    0  0.46363973735E+02 -0.53921561073E+02 -0.27468308655E+03  0.31005263520E+03  0.12499874299E+03 0.  0.
          2    1    1    2  501    0 -0.20576785341E+02  0.34339969556E+02 -0.93883294148E+03  0.93968608035E+03  0.00000000000E+00 0. -1.
          1    1    1    2  502    0 -0.25787188394E+02  0.19581591517E+02  0.51061458718E+03  0.51164018065E+03  0.00000000000E+00 0. -1.
         22    1    3    3    0    0 -0.22086638145E+02 -0.39053871966E+02 -0.26355513044E+02  0.52034964859E+02  0.00000000000E+00 0.  1.
         22    1    3    3    0    0  0.68450611880E+02 -0.14867689107E+02 -0.24832757351E+03  0.25801767034E+03  0.00000000000E+00 0.  1.
</event>
<event>
 7    1  0.8792454E-005  0.1046257E+03  0.7818608E-02  0.1286967E+00
          2   -1    0    0  502    0  0.00000000000E+00  0.00000000000E+00  0.55895935534E+03  0.55895935534E+03  0.00000000000E+00 0. -1.
          1   -1    0    0  501    0 -0.00000000000E+00 -0.00000000000E+00 -0.26785866289E+03  0.26785866289E+03  0.00000000000E+00 0. -1.
         25    2    1    2    0    0  0.81517624109E+02 -0.18767175788E+01 -0.12763645841E+02  0.14978798204E+03  0.12499953519E+03 0.  0.
          2    1    1    2  501    0 -0.74507945044E+02  0.91335810917E+02 -0.16326052274E+03  0.20136450163E+03  0.00000000000E+00 0. -1.
          1    1    1    2  502    0 -0.70096790659E+01 -0.89459093338E+02  0.46712486103E+03  0.47566553457E+03  0.00000000000E+00 0. -1.
         22    1    3    3    0    0  0.88700450822E+02 -0.31691454933E+02  0.28469534628E+02  0.98400369378E+02  0.00000000000E+00 0.  1.
         22    1    3    3    0    0 -0.71828267128E+01  0.29814737355E+02 -0.41233180469E+02  0.51387612658E+02  0.00000000000E+00 0.  1.
</event>
<event>
 7    1  0.8792454E-005  0.1869009E+04  0.7818608E-02  0.1054724E+00
          2   -1    0    0  502    0  0.00000000000E+00  0.00000000000E+00  0.26424866711E+04  0.26424866711E+04  0.00000000000E+00 0. -1.
          1   -1    0    0  501    0 -0.00000000000E+00 -0.00000000000E+00 -0.22815939457E+04  0.22815939457E+04  0.00000000000E+00 0. -1.
         25    2    1    2    0    0 -0.18245202155E+04  0.49933403102E+03  0.79141912273E+03  0.20543075296E+04  0.12500682784E+03 0.  0.
          2    1    1    2  501    0  0.17764381619E+04 -0.55454748196E+03 -0.11229171761E+04  0.21735221271E+04  0.00000000000E+00 0. -1.
          1    1    1    2  502    0  0.48082053594E+02  0.55213450935E+02  0.69239077871E+03  0.69625096013E+03  0.00000000000E+00 0. -1.
         22    1    3    3    0    0 -0.48493882569E+03  0.86096728469E+02  0.17205426832E+03  0.52170967267E+03  0.00000000000E+00 0.  1.
         22    1    3    3    0    0 -0.13395813898E+04  0.41323730255E+03  0.61936485442E+03  0.15325978569E+04  0.00000000000E+00 0.  1.
</event>
<event>
 7    1  0.8792454E-005  0.1741242E+03  0.7818608E-02  0.1195779E+00
          2   -1    0    0  502    0  0.00000000000E+00  0.00000000000E+00  0.39232170537E+03  0.39232170537E+03  0.00000000000E+00 0. -1.
          1   -1    0    0  501    0 -0.00000000000E+00 -0.00000000000E+00 -0.19238923067E+03  0.19238923067E+03  0.00000000000E+00 0. -1.
         25    2    1    2    0    0 -0.17537216878E+03 -0.45204871843E+02  0.10664675030E+03  0.24453493439E+03  0.12499970707E+03 0.  0.
          2    1    1    2  501    0  0.16786872105E+03 -0.90586072999E+02  0.62591252724E+02  0.20075708966E+03  0.00000000000E+00 0. -1.
          1    1    1    2  502    0  0.75034477298E+01  0.13579094484E+03  0.30694471670E+02  0.13941891199E+03  0.00000000000E+00 0. -1.
         22    1    3    3    0    0 -0.64525826869E+02 -0.15552069335E+02 -0.24067825590E+02  0.70602474620E+02  0.00000000000E+00 0. -1.
         22    1    3    3    0    0 -0.11084634191E+03 -0.29652802508E+02  0.13071457589E+03  0.17393245977E+03  0.00000000000E+00 0. -1.
</event>
<event>
 7    1  0.8792454E-005  0.1826742E+03  0.7818608E-02  0.1345544E+00
          2   -1    0    0  502    0  0.00000000000E+00  0.00000000000E+00  0.29664378972E+03  0.29664378972E+03  0.00000000000E+00 0. -1.
          1   -1    0    0  501    0 -0.00000000000E+00 -0.00000000000E+00 -0.45088955860E+03  0.45088955860E+03  0.00000000000E+00 0. -1.
         25    2    1    2    0    0  0.11958107234E+03  0.17115620128E+03  0.53538042117E+02  0.24916742973E+03  0.12499603187E+03 0.  0.
          2    1    1    2  501    0 -0.10566886576E+03 -0.14417955532E+03 -0.32844901761E+03  0.37394172076E+03  0.00000000000E+00 0. -1.
          1    1    1    2  502    0 -0.13912206577E+02 -0.26976645967E+02  0.12066520661E+03  0.12442419783E+03  0.00000000000E+00 0. -1.
         22    1    3    3    0    0  0.11220213351E+03  0.51529599834E+02  0.25395344705E+02  0.12605372647E+03  0.00000000000E+00 0.  1.
         22    1    3    3    0    0  0.73789388267E+01  0.11962660145E+03  0.28142697412E+02  0.12311370326E+03  0.00000000000E+00 0.  1.
</event>
<event>
 7    1  0.8792454E-005  0.9528605E+02  0.7818608E-02  0.1395022E+00
          2   -1    0    0  502    0  0.00000000000E+00  0.00000000000E+00  0.28136883895E+04  0.28136883895E+04  0.00000000000E+00 0. -1.
          1   -1    0    0  501    0 -0.00000000000E+00 -0.00000000000E+00 -0.39280479811E+02  0.39280479811E+02  0.00000000000E+00 0. -1.
         25    2    1    2    0    0  0.41573707506E+02  0.11997204954E+03  0.54143967494E+03  0.57000288836E+03  0.12499882122E+03 0.  0.
          2    1    1    2  501    0 -0.40037958528E+02 -0.81367111262E+02  0.57981142844E+02  0.10763576471E+03  0.00000000000E+00 0. -1.
          1    1    1    2  502    0 -0.15357489779E+01 -0.38604938280E+02  0.21749870919E+04  0.21753302163E+04  0.00000000000E+00 0. -1.
         22    1    3    3    0    0  0.57050317806E+02  0.32008988023E-01  0.16146318772E+03  0.17124573214E+03  0.00000000000E+00 0.  1.
         22    1    3    3    0    0 -0.15476610301E+02  0.11994004055E+03  0.37997648723E+03  0.39875715622E+03  0.00000000000E+00 0.  1.
</event>
<event>
 7    1  0.8792454E-005  0.1168886E+03  0.7818608E-02  0.1342909E+00
          2   -1    0    0  502    0  0.00000000000E+00  0.00000000000E+00  0.25880301665E+03  0.25880301665E+03  0.00000000000E+00 0. -1.
          1   -1    0    0  501    0 -0.00000000000E+00 -0.00000000000E+00 -0.28945741936E+03  0.28945741936E+03  0.00000000000E+00 0. -1.
         25    2    1    2    0    0  0.75279259682E+02  0.13709147632E+03 -0.19422480573E+03  0.27894303757E+03  0.12499961292E+03 0.  0.
          2    1    1    2  501    0 -0.31102830791E+01 -0.48423418106E+02 -0.20465033100E+02  0.52662309688E+02  0.00000000000E+00 0. -1.
          1    1    1    2  502    0 -0.72168976603E+02 -0.88668058212E+02  0.18403543612E+03  0.21665508874E+03  0.00000000000E+00 0. -1.
         22    1    3    3    0    0 -0.47891345838E+01 -0.13736685011E+02 -0.60009536457E+02  0.61747686523E+02  0.00000000000E+00 0.  1.
         22    1    3    3    0    0  0.80068394266E+02  0.15082816133E+03 -0.13421526927E+03  0.21719535105E+03  0.00000000000E+00 0.  1.
</event>
<event>
 7    1  0.8792454E-005  0.1092048E+04  0.7818608E-02  0.1052076E+00
          2   -1    0    0  502    0  0.00000000000E+00  0.00000000000E+00  0.15572011531E+04  0.15572011531E+04  0.00000000000E+00 0. -1.
          1   -1    0    0  501    0 -0.00000000000E+00 -0.00000000000E+00 -0.19163464441E+04  0.19163464441E+04  0.00000000000E+00 0. -1.
         25    2    1    2    0    0 -0.94064696699E+03  0.72342395717E+03  0.67086470537E+03  0.13688838653E+04  0.12499858148E+03 0.  0.
          2    1    1    2  501    0  0.81188915285E+03 -0.70479496038E+03 -0.13694994463E+04  0.17410998438E+04  0.00000000000E+00 0. -1.
          1    1    1    2  502    0  0.12875781414E+03 -0.18628996795E+02  0.33948944985E+03  0.36356388818E+03  0.00000000000E+00 0. -1.
         22    1    3    3    0    0 -0.30055788964E+03  0.26037901980E+03  0.28791855340E+03  0.49094742322E+03  0.00000000000E+00 0. -1.
         22    1    3    3    0    0 -0.64008907735E+03  0.46304493737E+03  0.38294615197E+03  0.87793644205E+03  0.00000000000E+00 0. -1.
</event>
<event>
 7    1  0.8792454E-005  0.3379337E+03  0.7818608E-02  0.1131780E+00
          2   -1    0    0  502    0  0.00000000000E+00  0.00000000000E+00  0.46323380363E+04  0.46323380363E+04  0.00000000000E+00 0. -1.
          1   -1    0    0  501    0 -0.00000000000E+00 -0.00000000000E+00 -0.13049226341E+03  0.13049226341E+03  0.00000000000E+00 0. -1.
         25    2    1    2    0    0 -0.93060426831E+02  0.26038398782E+03  0.16008350640E+04  0.16293433483E+04  0.12500712122E+03 0.  0.
          2    1    1    2  501    0 -0.12646374165E+03  0.74842145510E+02 -0.50130363045E+02  0.15526583009E+03  0.00000000000E+00 0. -1.
          1    1    1    2  502    0  0.21952416848E+03 -0.33522613333E+03  0.29511410720E+04  0.29782211214E+04  0.00000000000E+00 0. -1.
         22    1    3    3    0    0 -0.69801464974E+02  0.22441356324E+03  0.10110875318E+04  0.10380422385E+04  0.00000000000E+00 0. -1.
         22    1    3    3    0    0 -0.23258961857E+02  0.35970424574E+02  0.58974753221E+03  0.59130110984E+03  0.00000000000E+00 0. -1.
</event>
<event>
 7    1  0.8792454E-005  0.5992243E+03  0.7818608E-02  0.1164329E+00
          2   -1    0    0  502    0  0.00000000000E+00  0.00000000000E+00  0.22739360389E+04  0.22739360389E+04  0.00000000000E+00 0. -1.
          1   -1    0    0  501    0 -0.00000000000E+00 -0.00000000000E+00 -0.13989669065E+04  0.13989669065E+04  0.00000000000E+00 0. -1.
         25    2    1    2    0    0 -0.49764595892E+03 -0.23376864079E+03 -0.73119954999E+03  0.92335045406E+03  0.12499600499E+03 0.  0.
          2    1    1    2  501    0 -0.36928648386E+02 -0.42465825903E+02 -0.52860655262E+03  0.53159379127E+03  0.00000000000E+00 0. -1.
          1    1    1    2  502    0  0.53457460731E+03  0.27623446669E+03  0.21347752350E+04  0.22179587001E+04  0.00000000000E+00 0. -1.
         22    1    3    3    0    0 -0.20936159881E+03 -0.10445744124E+03 -0.41460525163E+03  0.47606843076E+03  0.00000000000E+00 0.  1.
         22    1    3    3    0    0 -0.28828436011E+03 -0.12931119955E+03 -0.31659429836E+03  0.44728202330E+03  0.00000000000E+00 0.  1.
</event>
<event>
 7    1  0.8792454E-005  0.3753197E+03  0.7818608E-02  0.1118251E+00
          2   -1    0    0  502    0  0.00000000000E+00  0.00000000000E+00  0.60935632739E+03  0.60935632739E+03  0.00000000000E+00 0. -1.
          1   -1    0    0  501    0 -0.00000000000E+00 -0.00000000000E+00 -0.87620279512E+03  0.87620279512E+03  0.00000000000E+00 0. -1.
         25    2    1    2    0    0 -0.44778800749E+03  0.10032945354E+03 -0.45647201253E+03  0.65922092833E+03  0.12500174086E+03 0.  0.
          2    1    1    2  501    0  0.31015137354E+03 -0.25923058719E+02 -0.22442704538E+03  0.38371001835E+03  0.00000000000E+00 0. -1.
          1    1    1    2  502    0  0.13763663395E+03 -0.74406394820E+02  0.41405259018E+03  0.44262817582E+03  0.00000000000E+00 0. -1.
         22    1    3    3    0    0 -0.29532224345E+03  0.14598337284E+02 -0.33173897993E+03  0.44438619435E+03  0.00000000000E+00 0.  1.
         22    1    3    3    0    0 -0.15246576404E+03  0.85731116254E+02 -0.12473303260E+03  0.21483473397E+03  0.00000000000E+00 0.  1.
</event>
<event>
 7    1  0.8792454E-005  0.2194888E+03  0.7818608E-02  0.1198125E+00
          2   -1    0    0  502    0  0.00000000000E+00  0.00000000000E+00  0.73974972186E+03  0.73974972186E+03  0.00000000000E+00 0. -1.
          1   -1    0    0  501    0 -0.00000000000E+00 -0.00000000000E+00 -0.52134763183E+03  0.52134763183E+03  0.00000000000E+00 0. -1.
         25    2    1    2    0    0 -0.65276469049E+02  0.23898205752E+03 -0.35591344714E+03  0.45130419666E+03  0.12501061890E+03 0.  0.
          2    1    1    2  501    0 -0.23836912428E+02 -0.18314517984E+03 -0.37961402775E+02  0.18855085095E+03  0.00000000000E+00 0. -1.
          1    1    1    2  502    0  0.89113381478E+02 -0.55836877678E+02  0.61227693995E+03  0.62124230608E+03  0.00000000000E+00 0. -1.
         22    1    3    3    0    0 -0.35602391159E+02  0.24462264344E+03 -0.32056395294E+03  0.40480738119E+03  0.00000000000E+00 0. -1.
         22    1    3    3    0    0 -0.29674077890E+02 -0.56405859257E+01 -0.35349494201E+02  0.46496815466E+02  0.00000000000E+00 0. -1.
</event>
<event>
 7    1  0.8792454E-005  0.2167099E+03  0.7818608E-02  0.1243272E+00
          2   -1    0    0  502    0  0.00000000000E+00  0.00000000000E+00  0.17904545028E+04  0.17904545028E+04  0.00000000000E+00 0. -1.
          1   -1    0    0  501    0 -0.00000000000E+00 -0.00000000000E+00 -0.18275481001E+03  0.18275481001E+03  0.00000000000E+00 0. -1.
         25    2    1    2    0    0 -0.18023536737E+03 -0.80661455462E+02  0.33012964194E+03  0.40446716699E+03  0.12496819850E+03 0.  0.
          2    1    1    2  501    0  0.22102757523E+03  0.28356585925E+02 -0.59007768658E+02  0.23051941728E+03  0.00000000000E+00 0. -1.
          1    1    1    2  502    0 -0.40792207864E+02  0.52304869537E+02  0.13365778195E+04  0.13382227285E+04  0.00000000000E+00 0. -1.
         22    1    3    3    0    0  0.12498979879E+02 -0.24431525591E+02  0.74680472384E+02  0.79563162935E+02  0.00000000000E+00 0. -1.
         22    1    3    3    0    0 -0.19273434725E+03 -0.56229929871E+02  0.25544916955E+03  0.32490400405E+03  0.00000000000E+00 0. -1.
</event>
<event>
 7    1  0.8792454E-005  0.1297467E+03  0.7818608E-02  0.1248953E+00
          2   -1    0    0  502    0  0.00000000000E+00  0.00000000000E+00  0.64755359346E+03  0.64755359346E+03  0.00000000000E+00 0. -1.
          1   -1    0    0  501    0 -0.00000000000E+00 -0.00000000000E+00 -0.28937025762E+03  0.28937025762E+03  0.00000000000E+00 0. -1.
         25    2    1    2    0    0 -0.10824821836E+03  0.11134541298E+02  0.24985996100E+03  0.29982922747E+03  0.12500364292E+03 0.  0.
          2    1    1    2  501    0 -0.19342137652E+02 -0.10283673830E+03 -0.23625032704E+03  0.25838678383E+03  0.00000000000E+00 0. -1.
          1    1    1    2  502    0  0.12759035602E+03  0.91702197000E+02  0.34457370188E+03  0.37870783978E+03  0.00000000000E+00 0. -1.
         22    1    3    3    0    0  0.22006009451E+02 -0.17882418402E+02  0.72687064040E+02  0.78022141849E+02  0.00000000000E+00 0.  1.
         22    1    3    3    0    0 -0.13025422781E+03  0.29016959701E+02  0.17717289696E+03  0.22180708562E+03  0.00000000000E+00 0.  1.
</event>
<event>
 7    1  0.8792454E-005  0.1140131E+03  0.7818608E-02  0.1281250E+00
          2   -1    0    0  502    0  0.00000000000E+00  0.00000000000E+00  0.10019680094E+04  0.10019680094E+04  0.00000000000E+00 0. -1.
          1   -1    0    0  501    0 -0.00000000000E+00 -0.00000000000E+00 -0.56192920609E+03  0.56192920609E+03  0.00000000000E+00 0. -1.
         25    2    1    2    0    0 -0.10556518766E+03  0.30084592510E+02  0.31915594690E+02  0.16938870797E+03  0.12499935061E+03 0.  0.
          2    1    1    2  501    0  0.44517683827E+01 -0.86803647850E+02 -0.48558968847E+03  0.49330724409E+03  0.00000000000E+00 0. -1.
          1    1    1    2  502    0  0.10111341928E+03  0.56719055340E+02  0.89371289712E+03  0.90120126347E+03  0.00000000000E+00 0. -1.
         22    1    3    3    0    0 -0.62588036762E+02 -0.23608562494E+02 -0.33200034442E+02  0.74678436350E+02  0.00000000000E+00 0.  1.
         22    1    3    3    0    0 -0.42977150897E+02  0.53693155004E+02  0.65115629131E+02  0.94710271621E+02  0.00000000000E+00 0.  1.
</event>
<event>
 7    1  0.8792454E-005  0.8480859E+02  0.7818608E-02  0.1323766E+00
          2   -1    0    0  502    0  0.00000000000E+00  0.00000000000E+00  0.28914481119E+03  0.28914481119E+03  0.00000000000E+00 0. -1.
          1   -1    0    0  501    0 -0.00000000000E+00 -0.00000000000E+00 -0.25186287864E+03  0.25186287864E+03  0.00000000000E+00 0. -1.
         25    2    1    2    0    0 -0.12838605300E+02 -0.85310871780E+01  0.10782258224E+03  0.16579562167E+03  0.12499947875E+03 0.  0.
          2    1    1    2  501    0  0.89017707313E+02 -0.12676016462E+02 -0.20239193161E+03  0.22146631254E+03  0.00000000000E+00 0. -1.
          1    1    1    2  502    0 -0.76179102014E+02  0.21207103640E+02  0.13185128192E+03  0.15374575562E+03  0.00000000000E+00 0. -1.
         22    1    3    3    0    0  0.48660256270E+02 -0.33966853995E+02  0.48445745584E+02  0.76606513925E+02  0.00000000000E+00 0. -1.
         22    1    3    3    0    0 -0.61498861570E+02  0.25435766817E+02  0.59376836661E+02  0.89189107742E+02  0.00000000000E+00 0. -1.
</event>
<event>
 7    1  0.8792454E-005  0.1238232E+03  0.7818608E-02  0.1241348E+00
          2   -1    0    0  502    0  0.00000000000E+00  0.00000000000E+00  0.66437567786E+03  0.66437567786E+03  0.00000000000E+00 0. -1.
          1   -1    0    0  501    0 -0.00000000000E+00 -0.00000000000E+00 -0.10989565993E+04  0.10989565993E+04  0.00000000000E+00 0. -1.
         25    2    1    2    0    0 -0.71544767710E+02  0.10117509837E+03 -0.13159798756E+03  0.21976818641E+03  0.12499988444E+03 0.  0.
          2    1    1    2  501    0 -0.45186735407E+02 -0.12080685268E+03 -0.91305214257E+03  0.92211731995E+03  0.00000000000E+00 0. -1.
          1    1    1    2  502    0  0.11673150312E+03  0.19631754311E+02  0.61006920867E+03  0.62144677082E+03  0.00000000000E+00 0. -1.
         22    1    3    3    0    0 -0.90556739744E+02  0.73254257299E+02 -0.14270961473E+03  0.18420842397E+03  0.00000000000E+00 0. -1.
         22    1    3    3    0    0  0.19011972034E+02  0.27920841069E+02  0.11111627165E+02  0.35559762441E+02  0.00000000000E+00 0. -1.
</event>
<event>
 7    1  0.8792454E-005  0.1882086E+03  0.7818608E-02  0.1234645E+00
          2   -1    0    0  502    0  0.00000000000E+00  0.00000000000E+00  0.12561710466E+03  0.12561710466E+03  0.00000000000E+00 0. -1.
          1   -1    0    0  501    0 -0.00000000000E+00 -0.00000000000E+00 -0.19289508895E+04  0.19289508895E+04  0.00000000000E+00 0. -1.
         25    2    1    2    0    0 -0.15428094255E+03 -0.96779693441E+02 -0.31844670600E+01  0.22091474753E+03  0.12499706617E+03 0.  0.
          2    1    1    2  501    0 -0.74798121153E+02 -0.36846263875E+02 -0.39710942174E+03  0.40576877519E+03  0.00000000000E+00 0. -1.
          1    1    1    2  502    0  0.22907906370E+03  0.13362595732E+03 -0.14030398960E+04  0.14278844714E+04  0.00000000000E+00 0. -1.
         22    1    3    3    0    0 -0.12580050691E+03 -0.12327264564E+02  0.21991237887E+02  0.12830176746E+03  0.00000000000E+00 0.  1.
         22    1    3    3    0    0 -0.28480435635E+02 -0.84452428877E+02 -0.25175704947E+02  0.92612980067E+02  0.00000000000E+00 0.  1.
</event>
<event>
 7    1  0.8792454E-005  0.1113981E+03  0.7818608E-02  0.1258661E+00
          2   -1    0    0  502    0  0.00000000000E+00  0.00000000000E+00  0.14297180149E+04  0.14297180149E+04  0.00000000000E+00 0. -1.
          1   -1    0    0  501    0 -0.00000000000E+00 -0.00000000000E+00 -0.75397425256E+02  0.75397425256E+02  0.00000000000E+00 0. -1.
         25    2    1    2    0    0 -0.64940618996E+01 -0.10450341839E+03  0.35603290047E+02  0.16689406959E+03  0.12499159535E+03 0.  0.
          2    1    1    2  501    0 -0.96788057765E+02  0.55150798512E+02  0.56711205710E+03  0.57794949953E+03  0.00000000000E+00 0. -1.
          1    1    1    2  502    0  0.10328211967E+03  0.49352619880E+02  0.75160524249E+03  0.76027187102E+03  0.00000000000E+00 0. -1.
         22    1    3    3    0    0  0.35273712583E+02 -0.34328279736E+02  0.63727468361E+02  0.80522393238E+02  0.00000000000E+00 0. -1.
         22    1    3    3    0    0 -0.41767774482E+02 -0.70175138656E+02 -0.28124178314E+02  0.86371676355E+02  0.00000000000E+00 0. -1.
</event>
<event>
 7    1  0.8792454E-005  0.2057638E+03  0.7818608E-02  0.1160259E+00
          2   -1    0    0  502    0  0.00000000000E+00  0.00000000000E+00  0.15325353183E+04  0.15325353183E+04  0.00000000000E+00 0. -1.
          1   -1    0    0  501    0 -0.00000000000E+00 -0.00000000000E+00 -0.20762084916E+04  0.20762084916E+04  0.00000000000E+00 0. -1.
         25    2    1    2    0    0 -0.22821933114E+02  0.22045501324E+03 -0.19420550318E+04  0.19586534092E+04  0.12499670969E+03 0.  0.
          2    1    1    2  501    0  0.15874693395E+03 -0.65705913103E+02 -0.56378683855E+02  0.18082149222E+03  0.00000000000E+00 0. -1.
          1    1    1    2  502    0 -0.13592500084E+03 -0.15474910014E+03  0.14547605424E+04  0.14692689085E+04  0.00000000000E+00 0. -1.
         22    1    3    3    0    0  0.27501957043E+02  0.12910515639E+03 -0.70809212377E+03  0.72029088207E+03  0.00000000000E+00 0. -1.
         22    1    3    3    0    0 -0.50323890157E+02  0.91349856849E+02 -0.12339629080E+04  0.12383625271E+04  0.00000000000E+00 0. -1.
</event>
<event>
 7    1  0.8792454E-005  0.2912450E+03  0.7818608E-02  0.1104903E+00
          2   -1    0    0  502    0  0.00000000000E+00  0.00000000000E+00  0.74511925767E+03  0.74511925767E+03  0.00000000000E+00 0. -1.
          1   -1    0    0  501    0 -0.00000000000E+00 -0.00000000000E+00 -0.33562737571E+03  0.33562737571E+03  0.00000000000E+00 0. -1.
         25    2    1    2    0    0 -0.22319969457E+02  0.16885810902E+03  0.15642457780E+03  0.26287889115E+03  0.12500168340E+03 0.  0.
          2    1    1    2  501    0  0.30309538818E+03 -0.91470826037E+02 -0.12521293189E+03  0.34045852121E+03  0.00000000000E+00 0. -1.
          1    1    1    2  502    0 -0.28077541872E+03 -0.77387282987E+02  0.37828023606E+03  0.47740922102E+03  0.00000000000E+00 0. -1.
         22    1    3    3    0    0  0.21696150620E+02  0.14054076665E+03  0.62452976807E+02  0.15531517748E+03  0.00000000000E+00 0. -1.
         22    1    3    3    0    0 -0.44016120077E+02  0.28317342372E+02  0.93971600990E+02  0.10756371367E+03  0.00000000000E+00 0. -1.
</event>
<event>
 7    1  0.8792454E-005  0.2351123E+03  0.7818608E-02  0.1157353E+00
          2   -1    0    0  502    0  0.00000000000E+00  0.00000000000E+00  0.10769724952E+04  0.10769724952E+04  0.00000000000E+00 0. -1.
          1   -1    0    0  501    0 -0.00000000000E+00 -0.00000000000E+00 -0.15144503169E+04  0.15144503169E+04  0.00000000000E+00 0. -1.
         25    2    1    2    0    0  0.10612711047E+03 -0.31280267544E+03  0.21806543379E+03  0.41507420496E+03  0.12500233947E+03 0.  0.
          2    1    1    2  501    0  0.26551166035E+02  0.23161918643E+03 -0.13982378399E+04  0.14175406410E+04  0.00000000000E+00 0. -1.
          1    1    1    2  502    0 -0.13267827651E+03  0.81183489007E+02  0.74269458431E+03  0.75880796616E+03  0.00000000000E+00 0. -1.
         22    1    3    3    0    0  0.15192319734E+02 -0.50975476832E+02 -0.12387411142E+02  0.54614593031E+02  0.00000000000E+00 0. -1.
         22    1    3    3    0    0  0.90934790738E+02 -0.26182719861E+03  0.23045284493E+03  0.36045961193E+03  0.00000000000E+00 0. -1.
</event>
<event>
 7    1  0.8792454E-005  0.1346897E+03  0.7818608E-02  0.1298474E+00
          2   -1    0    0  502    0  0.00000000000E+00  0.00000000000E+00  0.66103504691E+03  0.66103504691E+03  0.00000000000E+00 0. -1.
          1   -1    0    0  501    0 -0.00000000000E+00 -0.00000000000E+00 -0.50875850642E+03  0.50875850642E+03  0.00000000000E+00 0. -1.
         25    2    1    2    0    0  0.47427066564E+02  0.66783014721E+02  0.30808971524E+03  0.34242423287E+03  0.12500313965E+03 0.  0.
          2    1    1    2  501    0 -0.10776342895E+03 -0.83510471187E+02 -0.47907680061E+03  0.49809791838E+03  0.00000000000E+00 0. -1.
          1    1    1    2  502    0  0.60336362383E+02  0.16727456466E+02  0.32326362586E+03  0.32927140208E+03  0.00000000000E+00 0. -1.
         22    1    3    3    0    0 -0.17461947821E+02 -0.17191354837E+02  0.10833546221E+02  0.26792312826E+02  0.00000000000E+00 0. -1.
         22    1    3    3    0    0  0.64889014385E+02  0.83974369558E+02  0.29725616902E+03  0.31563192004E+03  0.00000000000E+00 0. -1.
</event>
<event>
 7    1  0.8792454E-005  0.1442621E+03  0.7818608E-02  0.1282925E+00
          2   -1    0    0  502    0  0.00000000000E+00  0.00000000000E+00  0.96635004520E+03  0.96635004520E+03  0.00000000000E+00 0. -1.
          1   -1    0    0  501    0 -0.00000000000E+00 -0.00000000000E+00 -0.19794235669E+03  0.19794235669E+03  0.00000000000E+00 0. -1.
         25    2    1    2    0    0 -0.13250767497E+03  0.66984962729E+02 -0.13473701358E+03  0.23627179358E+03  0.12500011381E+03 0.  0.
          2    1    1    2  501    0 -0.12216161113E+02 -0.66496902155E+02  0.24548755264E+03  0.25462759295E+03  0.00000000000E+00 0. -1.
          1    1    1    2  502    0  0.14472383609E+03 -0.48806057452E+00  0.65765714944E+03  0.67339301537E+03  0.00000000000E+00 0. -1.
         22    1    3    3    0    0 -0.12307215065E+03  0.47414501062E+02 -0.15707981441E+03  0.20510718483E+03  0.00000000000E+00 0.  1.
         22    1    3    3    0    0 -0.94355243295E+01  0.19570461668E+02  0.22342800829E+02  0.31164608744E+02  0.00000000000E+00 0.  1.
</event>
<event>
 7    1  0.8792454E-005  0.1489373E+03  0.7818608E-02  0.1243542E+00
          2   -1    0    0  502    0  0.00000000000E+00  0.00000000000E+00  0.50110730708E+03  0.50110730708E+03  0.00000000000E+00 0. -1.
          1   -1    0    0  501    0 -0.00000000000E+00 -0.00000000000E+00 -0.15919204554E+04  0.15919204554E+04  0.00000000000E+00 0. -1.
         25    2    1    2    0    0  0.22531770197E+02  0.66655866407E+02  0.17613845655E+03  0.22715817571E+03  0.12500158288E+03 0.  0.
          2    1    1    2  501    0  0.29565291621E+02 -0.14758996479E+03 -0.15549470524E+04  0.15622154909E+04  0.00000000000E+00 0. -1.
          1    1    1    2  502    0 -0.52097061818E+02  0.80934098384E+02  0.28799544755E+03  0.30365409587E+03  0.00000000000E+00 0. -1.
         22    1    3    3    0    0 -0.11183049161E+02  0.49214910630E+01  0.15244549563E+03  0.15293433493E+03  0.00000000000E+00 0. -1.
         22    1    3    3    0    0  0.33714819359E+02  0.61734375344E+02  0.23692960925E+02  0.74223840785E+02  0.00000000000E+00 0. -1.
</event>
<event>
 7    1  0.8792454E-005  0.2509203E+03  0.7818608E-02  0.1238957E+00
          2   -1    0    0  502    0  0.00000000000E+00  0.00000000000E+00  0.30855435988E+04  0.30855435988E+04  0.00000000000E+00 0. -1.
          1   -1    0    0  501    0 -0.00000000000E+00 -0.00000000000E+00 -0.70038856340E+03  0.70038856340E+03  0.00000000000E+00 0. -1.
         25    2    1    2    0    0  0.65227702619E+02  0.26248740199E+03  0.22437887742E+03  0.37299454162E+03  0.12499903221E+03 0.  0.
          2    1    1    2  501    0 -0.11089525044E+03 -0.22380459253E+03 -0.60083218026E+03  0.65068084422E+03  0.00000000000E+00 0. -1.
          1    1    1    2  502    0  0.45667547816E+02 -0.38682809467E+02  0.27616083382E+04  0.27622567763E+04  0.00000000000E+00 0. -1.
         22    1    3    3    0    0  0.14151979851E+01  0.21905721587E+03  0.18283115553E+03  0.28533366090E+03  0.00000000000E+00 0.  1.
         22    1    3    3    0    0  0.63812504634E+02  0.43430186124E+02  0.41547721885E+02  0.87660880718E+02  0.00000000000E+00 0.  1.
</event>
<event>
 7    1  0.8792454E-005  0.1997605E+03  0.7818608E-02  0.1191237E+00
          2   -1    0    0  502    0  0.00000000000E+00  0.00000000000E+00  0.48030588472E+03  0.48030588472E+03  0.00000000000E+00 0. -1.
          1   -1    0    0  501    0 -0.00000000000E+00 -0.00000000000E+00 -0.38448407420E+03  0.38448407420E+03  0.00000000000E+00 0. -1.
         25    2    1    2    0    0 -0.14362558066E+03  0.26289340849E+03 -0.19946342989E+03  0.38098836055E+03  0.12500087744E+03 0.  0.
          2    1    1    2  501    0  0.12380517589E+02 -0.12399104879E+03 -0.85118389575E+01  0.12489799357E+03  0.00000000000E+00 0. -1.
          1    1    1    2  502    0  0.13124506307E+03 -0.13890235970E+03  0.30379707937E+03  0.35890360481E+03  0.00000000000E+00 0. -1.
         22    1    3    3    0    0 -0.11412519011E+03  0.11563823263E+03 -0.52193189107E+02  0.17064843642E+03  0.00000000000E+00 0. -1.
         22    1    3    3    0    0 -0.29500390546E+02  0.14725517586E+03 -0.14727024079E+03  0.21033992412E+03  0.00000000000E+00 0. -1.
</event>
<event>
 7    1  0.8792454E-005  0.2480472E+03  0.7818608E-02  0.1286412E+00
          2   -1    0    0  502    0  0.00000000000E+00  0.00000000000E+00  0.41784011654E+03  0.41784011654E+03  0.00000000000E+00 0. -1.
          1   -1    0    0  501    0 -0.00000000000E+00 -0.00000000000E+00 -0.59352983626E+03  0.59352983626E+03  0.00000000000E+00 0. -1.
         25    2    1    2    0    0  0.24157249750E+03 -0.55160565218E+02  0.25294578403E+03  0.37550714776E+03  0.12499635538E+03 0.  0.
          2    1    1    2  501    0  0.85329568481E+01  0.37078287182E+02 -0.37816707026E+03  0.38007623414E+03  0.00000000000E+00 0. -1.
          1    1    1    2  502    0 -0.25010545435E+03  0.18082278036E+02 -0.50468433496E+02  0.25578657090E+03  0.00000000000E+00 0. -1.
         22    1    3    3    0    0  0.95548779258E+02 -0.27996721681E+02  0.23695211435E+02  0.10234670824E+03  0.00000000000E+00 0.  1.
         22    1    3    3    0    0  0.14602371824E+03 -0.27163843537E+02  0.22925057259E+03  0.27316043952E+03  0.00000000000E+00 0.  1.
</event>
<event>
 7    1  0.8792454E-005  0.4707665E+03  0.7818608E-02  0.1142252E+00
          2   -1    0    0  502    0  0.00000000000E+00  0.00000000000E+00  0.10783034326E+04  0.10783034326E+04  0.00000000000E+00 0. -1.
          1   -1    0    0  501    0 -0.00000000000E+00 -0.00000000000E+00 -0.75476090176E+03  0.75476090176E+03  0.00000000000E+00 0. -1.
         25    2    1    2    0    0  0.21870878241E+03 -0.35579264644E+03  0.82117819731E+03  0.92971753340E+03  0.12497648343E+03 0.  0.
          2    1    1    2  501    0 -0.18082651003E+03  0.44062614744E+03 -0.59937332676E+03  0.76557038434E+03  0.00000000000E+00 0. -1.
          1    1    1    2  502    0 -0.37882272384E+02 -0.84833501007E+02  0.10173766029E+03  0.13777641662E+03  0.00000000000E+00 0. -1.
         22    1    3    3    0    0 -0.15532814468E+02 -0.21017563800E+02  0.68026329557E+02  0.72873780102E+02  0.00000000000E+00 0.  1.
         22    1    3    3    0    0  0.23424159688E+03 -0.33477508264E+03  0.75315186775E+03  0.85684375329E+03  0.00000000000E+00 0.  1.
</event>
<event>
 7    1  0.8792454E-005  0.1352672E+03  0.7818608E-02  0.1358807E+00
          2   -1    0    0  502    0  0.00000000000E+00  0.00000000000E+00  0.38188187742E+04  0.38188187742E+04  0.00000000000E+00 0. -1.
          1   -1    0    0  501    0 -0.00000000000E+00 -0.00000000000E+00 -0.13437995081E+02  0.13437995081E+02  0.00000000000E+00 0. -1.
         25    2    1    2    0    0  0.69111652274E+02  0.14958530839E+03  0.30392259338E+04  0.30462553530E+04  0.12500085692E+03 0.  0.
          2    1    1    2  501    0 -0.65252464342E+02 -0.11317083179E+03  0.47801314650E+03  0.49554221767E+03  0.00000000000E+00 0. -1.
          1    1    1    2  502    0 -0.38591879326E+01 -0.36414476610E+02  0.28814169882E+03  0.29045919857E+03  0.00000000000E+00 0. -1.
         22    1    3    3    0    0  0.76403101562E+02  0.12656834118E+03  0.29533996835E+04  0.29570976767E+04  0.00000000000E+00 0.  1.
         22    1    3    3    0    0 -0.72914492877E+01  0.23016967211E+02  0.85826250292E+02  0.89157676346E+02  0.00000000000E+00 0.  1.
</event>
<event>
 7    1  0.8792454E-005  0.9939161E+02  0.7818608E-02  0.1297841E+00
          2   -1    0    0  502    0  0.00000000000E+00  0.00000000000E+00  0.14164385489E+04  0.14164385489E+04  0.00000000000E+00 0. -1.
          1   -1    0    0  501    0 -0.00000000000E+00 -0.00000000000E+00 -0.97537124535E+03  0.97537124535E+03  0.00000000000E+00 0. -1.
         25    2    1    2    0    0 -0.46042282379E+02 -0.13619357815E+03  0.35430563143E+03  0.40227569742E+03  0.12499869511E+03 0.  0.
          2    1    1    2  501    0  0.73808670614E+02  0.42851404578E+02 -0.94717951918E+03  0.95101682650E+03  0.00000000000E+00 0. -1.
          1    1    1    2  502    0 -0.27766388235E+02  0.93342173569E+02  0.10339411913E+04  0.10385172703E+04  0.00000000000E+00 0. -1.
         22    1    3    3    0    0  0.24158823581E+02 -0.10288290005E+03  0.14830022677E+03  0.18210298498E+03  0.00000000000E+00 0.  1.
         22    1    3    3    0    0 -0.70201105961E+02 -0.33310678094E+02  0.20600540466E+03  0.22017271244E+03  0.00000000000E+00 0.  1.
</event>
<event>
 7    1  0.8792454E-005  0.2151856E+03  0.7818608E-02  0.1170048E+00
          2   -1    0    0  502    0  0.00000000000E+00  0.00000000000E+00  0.12687454732E+04  0.12687454732E+04  0.00000000000E+00 0. -1.
          1   -1    0    0  501    0 -0.00000000000E+00 -0.00000000000E+00 -0.20120680960E+04  0.20120680960E+04  0.00000000000E+00 0. -1.
         25    2    1    2    0    0  0.34365376883E+03 -0.64632795294E+02  0.54180078231E+02  0.37528114787E+03  0.12500059205E+03 0.  0.
          2    1    1    2  501    0 -0.19736263442E+03  0.76157885173E+02 -0.18403210060E+04  0.18524398609E+04  0.00000000000E+00 0. -1.
          1    1    1    2  502    0 -0.14629113441E+03 -0.11525089879E+02  0.10428183049E+04  0.10530925604E+04  0.00000000000E+00 0. -1.
         22    1    3    3    0    0  0.29418276379E+03 -0.79572927748E+01  0.27970298904E+02  0.29561656692E+03  0.00000000000E+00 0.  1.
         22    1    3    3    0    0  0.49471005038E+02 -0.56675502519E+02  0.26209779327E+02  0.79664580948E+02  0.00000000000E+00 0.  1.
</event>
<event>
 7    1  0.1021744E-004  0.1327535E+03  0.7818608E-02  0.1322569E+00
          2   -1    0    0  502    0  0.00000000000E+00  0.00000000000E+00  0.64065610670E+03  0.64065610670E+03  0.00000000000E+00 0. -1.
          1   -1    0    0  501    0 -0.00000000000E+00 -0.00000000000E+00 -0.15413271129E+04  0.15413271129E+04  0.00000000000E+00 0. -1.
         25    2    1    2    0    0 -0.91994896543E+02 -0.66591087691E+02 -0.10142068348E+04  0.10281734366E+04  0.12501071136E+03 0.  0.
          2    1    1    2  501    0  0.21673128637E+02 -0.46229074643E+02 -0.51188029088E+03  0.51442033789E+03  0.00000000000E+00 0. -1.
          1    1    1    2  502    0  0.70321767907E+02  0.11282016233E+03  0.62541611948E+03  0.63938944515E+03  0.00000000000E+00 0. -1.
         22    1    3    3    0    0 -0.94781659309E+02 -0.98071237936E+02 -0.86167441110E+03  0.87240146801E+03  0.00000000000E+00 0.  1.
         22    1    3    3    0    0  0.27867627656E+01  0.31480150244E+02 -0.15253242370E+03  0.15577196855E+03  0.00000000000E+00 0.  1.
</event>
<event>
 7    1  0.8792454E-005  0.2291894E+03  0.7818608E-02  0.1147550E+00
          2   -1    0    0  502    0  0.00000000000E+00  0.00000000000E+00  0.24817661478E+04  0.24817661478E+04  0.00000000000E+00 0. -1.
          1   -1    0    0  501    0 -0.00000000000E+00 -0.00000000000E+00 -0.41130932472E+03  0.41130932472E+03  0.00000000000E+00 0. -1.
         25    2    1    2    0    0  0.11098040169E+03 -0.34226086362E+03  0.15737739444E+04  0.16192123523E+04  0.12500026116E+03 0.  0.
          2    1    1    2  501    0  0.25017751962E+02  0.22568281511E+03 -0.34517260866E+03  0.41316189408E+03  0.00000000000E+00 0. -1.
          1    1    1    2  502    0 -0.13599815365E+03  0.11657804852E+03  0.84185548739E+03  0.86070122624E+03  0.00000000000E+00 0. -1.
         22    1    3    3    0    0  0.13835427276E+03 -0.26663283471E+03  0.12278119195E+04  0.12640241624E+04  0.00000000000E+00 0. -1.
         22    1    3    3    0    0 -0.27373871070E+02 -0.75628028916E+02  0.34596202485E+03  0.35518818986E+03  0.00000000000E+00 0. -1.
</event>
<event>
 7    1  0.8792454E-005  0.1285652E+04  0.7818608E-02  0.1049967E+00
          2   -1    0    0  502    0  0.00000000000E+00  0.00000000000E+00  0.39305002637E+04  0.39305002637E+04  0.00000000000E+00 0. -1.
          1   -1    0    0  501    0 -0.00000000000E+00 -0.00000000000E+00 -0.10694356023E+04  0.10694356023E+04  0.00000000000E+00 0. -1.
         25    2    1    2    0    0  0.14913175018E+03  0.11898588067E+04  0.32093484984E+03  0.12476486363E+04  0.12499473248E+03 0.  0.
          2    1    1    2  501    0 -0.70025052748E+01  0.11366019978E+03 -0.46224608923E+03  0.47606630116E+03  0.00000000000E+00 0. -1.
          1    1    1    2  502    0 -0.14212924490E+03 -0.13035190064E+04  0.30023759008E+04  0.32762209285E+04  0.00000000000E+00 0. -1.
         22    1    3    3    0    0  0.28430880284E+02  0.38070274967E+02  0.10354268217E+02  0.48629946125E+02  0.00000000000E+00 0. -1.
         22    1    3    3    0    0  0.12070086990E+03  0.11517885317E+04  0.31058058162E+03  0.11990186902E+04  0.00000000000E+00 0. -1.
</event>
<event>
 7    1  0.8792454E-005  0.2208547E+03  0.7818608E-02  0.1258157E+00
          2   -1    0    0  502    0  0.00000000000E+00  0.00000000000E+00  0.82025449986E+03  0.82025449986E+03  0.00000000000E+00 0. -1.
          1   -1    0    0  501    0 -0.00000000000E+00 -0.00000000000E+00 -0.46614569652E+03  0.46614569652E+03  0.00000000000E+00 0. -1.
         25    2    1    2    0    0  0.98797861508E+02 -0.22240914008E+03  0.55526577518E+02  0.27917357401E+03  0.12501136183E+03 0.  0.
          2    1    1    2  501    0  0.30617335465E+02  0.47012310875E+02 -0.33372253106E+03  0.33840553533E+03  0.00000000000E+00 0. -1.
          1    1    1    2  502    0 -0.12941519697E+03  0.17539682920E+03  0.63230475688E+03  0.66882108704E+03  0.00000000000E+00 0. -1.
         22    1    3    3    0    0 -0.12726635074E+02  0.37022179587E+01  0.20814229285E+02  0.24676016673E+02  0.00000000000E+00 0. -1.
         22    1    3    3    0    0  0.11152449658E+03 -0.22611135804E+03  0.34712348233E+02  0.25449755734E+03  0.00000000000E+00 0. -1.
</event>
<event>
 7    1  0.8792454E-005  0.4436335E+03  0.7818608E-02  0.1043420E+00
          2   -1    0    0  502    0  0.00000000000E+00  0.00000000000E+00  0.10430583185E+04  0.10430583185E+04  0.00000000000E+00 0. -1.
          1   -1    0    0  501    0 -0.00000000000E+00 -0.00000000000E+00 -0.13431851752E+04  0.13431851752E+04  0.00000000000E+00 0. -1.
         25    2    1    2    0    0 -0.96471044481E+02  0.57776121085E+03 -0.58189189216E+03  0.83506742922E+03  0.12499903196E+03 0.  0.
          2    1    1    2  501    0 -0.19087722108E+03 -0.35670841105E+03 -0.52728721422E+03  0.66461026949E+03  0.00000000000E+00 0. -1.
          1    1    1    2  502    0  0.28734826556E+03 -0.22105279980E+03  0.80905224970E+03  0.88656579494E+03  0.00000000000E+00 0. -1.
         22    1    3    3    0    0 -0.37507918444E+02  0.10028532077E+03 -0.50943119391E+02  0.11857145913E+03  0.00000000000E+00 0.  1.
         22    1    3    3    0    0 -0.58963126037E+02  0.47747589008E+03 -0.53094877277E+03  0.71649597009E+03  0.00000000000E+00 0.  1.
</event>
<event>
 7    1  0.8792454E-005  0.3019538E+03  0.7818608E-02  0.1086961E+00
          2   -1    0    0  502    0  0.00000000000E+00  0.00000000000E+00  0.10914555393E+04  0.10914555393E+04  0.00000000000E+00 0. -1.
          1   -1    0    0  501    0 -0.00000000000E+00 -0.00000000000E+00 -0.11179590303E+04  0.11179590303E+04  0.00000000000E+00 0. -1.
         25    2    1    2    0    0 -0.24438117065E+03  0.14079766241E+03 -0.45091537083E+03  0.54634896616E+03  0.12500553133E+03 0.  0.
          2    1    1    2  501    0  0.86424040872E+02 -0.38556540861E+03 -0.53233312053E+03  0.66295425964E+03  0.00000000000E+00 0. -1.
          1    1    1    2  502    0  0.15795712978E+03  0.24476774621E+03  0.95674500028E+03  0.10001113438E+04  0.00000000000E+00 0. -1.
         22    1    3    3    0    0 -0.39804661903E+02 -0.17123171304E+02 -0.31004193498E+02  0.53281085942E+02  0.00000000000E+00 0. -1.
         22    1    3    3    0    0 -0.20457650875E+03  0.15792083371E+03 -0.41991117734E+03  0.49306788022E+03  0.00000000000E+00 0. -1.
</event>
<event>
 7    1  0.8792454E-005  0.1388721E+03  0.7818608E-02  0.1245575E+00
          2   -1    0    0  502    0  0.00000000000E+00  0.00000000000E+00  0.13156649380E+04  0.13156649380E+04  0.00000000000E+00 0. -1.
          1   -1    0    0  501    0 -0.00000000000E+00 -0.00000000000E+00 -0.30007395460E+03  0.30007395460E+03  0.00000000000E+00 0. -1.
         25    2    1    2    0    0  0.15561981809E+03 -0.12232626284E+02  0.43443641697E+03  0.47825447297E+03  0.12500070239E+03 0.  0.
          2    1    1    2  501    0 -0.39287583087E+02  0.93191292647E+02 -0.26286433115E+03  0.28164834067E+03  0.00000000000E+00 0. -1.
          1    1    1    2  502    0 -0.11633223501E+03 -0.80958666363E+02  0.84401889762E+03  0.85583607899E+03  0.00000000000E+00 0. -1.
         22    1    3    3    0    0  0.88637983926E+02 -0.25852430397E+02  0.37947372346E+03  0.39054493615E+03  0.00000000000E+00 0.  1.
         22    1    3    3    0    0  0.66981834168E+02  0.13619804113E+02  0.54962693510E+02  0.87709536827E+02  0.00000000000E+00 0.  1.
</event>
<event>
 7    1  0.8792454E-005  0.6035586E+02  0.7818608E-02  0.1407926E+00
          2   -1    0    0  502    0  0.00000000000E+00  0.00000000000E+00  0.38761931610E+03  0.38761931610E+03  0.00000000000E+00 0. -1.
          1   -1    0    0  501    0 -0.00000000000E+00 -0.00000000000E+00 -0.56066053635E+03  0.56066053635E+03  0.00000000000E+00 0. -1.
         25    2    1    2    0    0  0.35145526376E+02  0.19853158481E+02  0.26213664177E+03  0.29318053707E+03  0.12493939503E+03 0.  0.
          2    1    1    2  501    0 -0.21383387698E+02  0.56440949209E+02 -0.52954354915E+03  0.53297204473E+03  0.00000000000E+00 0. -1.
          1    1    1    2  502    0 -0.13762138678E+02 -0.76294107690E+02  0.94365687124E+02  0.12212727065E+03  0.00000000000E+00 0. -1.
         22    1    3    3    0    0  0.34913051773E+02  0.23796889151E+02  0.13275846739E+02  0.44288387011E+02  0.00000000000E+00 0.  1.
         22    1    3    3    0    0  0.23247460348E+00 -0.39437306699E+01  0.24886079503E+03  0.24889215006E+03  0.00000000000E+00 0.  1.
</event>
<event>
 7    1  0.8792454E-005  0.4753998E+02  0.7818608E-02  0.1475934E+00
          2   -1    0    0  502    0  0.00000000000E+00  0.00000000000E+00  0.11493881349E+03  0.11493881349E+03  0.00000000000E+00 0. -1.
          1   -1    0    0  501    0 -0.00000000000E+00 -0.00000000000E+00 -0.17928070018E+03  0.17928070018E+03  0.00000000000E+00 0. -1.
         25    2    1    2    0    0  0.49955469478E+02 -0.17245868938E+02  0.31735268019E+02  0.13936921904E+03  0.12499473211E+03 0.  0.
          2    1    1    2  501    0 -0.75674385414E+01  0.41430780330E+02  0.51924036489E+01  0.42435088553E+02  0.00000000000E+00 0. -1.
          1    1    1    2  502    0 -0.42388030937E+02 -0.24184911392E+02 -0.10126955836E+03  0.11241520607E+03  0.00000000000E+00 0. -1.
         22    1    3    3    0    0  0.53645792781E+02  0.17976882558E+02 -0.33058742137E+02  0.65528007915E+02  0.00000000000E+00 0. -1.
         22    1    3    3    0    0 -0.36903233028E+01 -0.35222751496E+02  0.64794010156E+02  0.73841211130E+02  0.00000000000E+00 0. -1.
</event>
<event>
 7    1  0.8792454E-005  0.4172641E+03  0.7818608E-02  0.1123469E+00
          2   -1    0    0  502    0  0.00000000000E+00  0.00000000000E+00  0.80239889573E+03  0.80239889573E+03  0.00000000000E+00 0. -1.
          1   -1    0    0  501    0 -0.00000000000E+00 -0.00000000000E+00 -0.64955207704E+03  0.64955207704E+03  0.00000000000E+00 0. -1.
         25    2    1    2    0    0  0.18419967230E+03  0.25798897009E+03  0.51442765917E+03  0.61704376249E+03  0.12497743934E+03 0.  0.
          2    1    1    2  501    0 -0.30792351841E+03 -0.30358300942E+03 -0.48815446612E+03  0.65213060010E+03  0.00000000000E+00 0. -1.
          1    1    1    2  502    0  0.12372384611E+03  0.45594039332E+02  0.12657362564E+03  0.18277661017E+03  0.00000000000E+00 0. -1.
         22    1    3    3    0    0  0.80230917961E+02  0.20184248503E+03  0.27854200125E+03  0.35321811310E+03  0.00000000000E+00 0. -1.
         22    1    3    3    0    0  0.10396875434E+03  0.56146485059E+02  0.23588565792E+03  0.26382564939E+03  0.00000000000E+00 0. -1.
</event>
<event>
 7    1  0.8792454E-005  0.3007298E+03  0.7818608E-02  0.1164916E+00
          2   -1    0    0  502    0  0.00000000000E+00  0.00000000000E+00  0.25539679868E+03  0.25539679868E+03  0.00000000000E+00 0. -1.
          1   -1    0    0  501    0 -0.00000000000E+00 -0.00000000000E+00 -0.77236264076E+03  0.77236264076E+03  0.00000000000E+00 0. -1.
         25    2    1    2    0    0  0.28956965003E+03  0.14491791824E+03 -0.13197479153E+03  0.37133955928E+03  0.12499574969E+03 0.  0.
          2    1    1    2  501    0 -0.29537337143E+03 -0.33690961007E+02 -0.44092534213E+03  0.53178535777E+03  0.00000000000E+00 0. -1.
          1    1    1    2  502    0  0.58037214069E+01 -0.11122695723E+03  0.55934291591E+02  0.12463452240E+03  0.00000000000E+00 0. -1.
         22    1    3    3    0    0  0.11220207057E+03  0.10197025677E+03 -0.10221747261E+02  0.15195960655E+03  0.00000000000E+00 0.  1.
         22    1    3    3    0    0  0.17736757946E+03  0.42947661470E+02 -0.12175304427E+03  0.21937995273E+03  0.00000000000E+00 0.  1.
</event>
<event>
 7    1  0.8792454E-005  0.8955801E+02  0.7818608E-02  0.1317036E+00
          2   -1    0    0  502    0  0.00000000000E+00  0.00000000000E+00  0.10649074027E+04  0.10649074027E+04  0.00000000000E+00 0. -1.
          1   -1    0    0  501    0 -0.00000000000E+00 -0.00000000000E+00 -0.10284592557E+03  0.10284592557E+03  0.00000000000E+00 0. -1.
         25    2    1    2    0    0 -0.27095291845E+02  0.16721589823E+02  0.22564231957E+03  0.25990937940E+03  0.12499865084E+03 0.  0.
          2    1    1    2  501    0 -0.73731890823E+02 -0.29782429844E+02 -0.63330977495E+02  0.10165725533E+03  0.00000000000E+00 0. -1.
          1    1    1    2  502    0  0.10082718267E+03  0.13060840021E+02  0.79975013501E+03  0.80618669349E+03  0.00000000000E+00 0. -1.
         22    1    3    3    0    0 -0.26953990475E+02  0.21385665730E+02  0.24121295929E+03  0.24365458344E+03  0.00000000000E+00 0.  1.
         22    1    3    3    0    0 -0.14130137085E+00 -0.46640759071E+01 -0.15570639725E+02  0.16254795956E+02  0.00000000000E+00 0.  1.
</event>
<event>
 7    1  0.8792454E-005  0.4301809E+03  0.7818608E-02  0.1202299E+00
          2   -1    0    0  502    0  0.00000000000E+00  0.00000000000E+00  0.15108980707E+04  0.15108980707E+04  0.00000000000E+00 0. -1.
          1   -1    0    0  501    0 -0.00000000000E+00 -0.00000000000E+00 -0.65869056892E+03  0.65869056892E+03  0.00000000000E+00 0. -1.
         25    2    1    2    0    0 -0.46833100731E+03 -0.76390075755E+02 -0.31483317187E+03  0.58302020410E+03  0.12499302460E+03 0.  0.
          2    1    1    2  501    0  0.50263047507E+02 -0.10156933801E+02 -0.17285443569E+03  0.18030028615E+03  0.00000000000E+00 0. -1.
          1    1    1    2  502    0  0.41806795981E+03  0.86547009556E+02  0.13398951093E+04  0.14062681494E+04  0.00000000000E+00 0. -1.
         22    1    3    3    0    0 -0.97740561293E+02 -0.35057141744E+02 -0.13134262615E+03  0.16743089904E+03  0.00000000000E+00 0. -1.
         22    1    3    3    0    0 -0.37059044602E+03 -0.41332934011E+02 -0.18349054572E+03  0.41558930507E+03  0.00000000000E+00 0. -1.
</event>
<event>
 7    1  0.8792454E-005  0.2066932E+03  0.7818608E-02  0.1249769E+00
          2   -1    0    0  502    0  0.00000000000E+00  0.00000000000E+00  0.12354951145E+04  0.12354951145E+04  0.00000000000E+00 0. -1.
          1   -1    0    0  501    0 -0.00000000000E+00 -0.00000000000E+00 -0.33168176182E+03  0.33168176182E+03  0.00000000000E+00 0. -1.
         25    2    1    2    0    0 -0.13786652848E+03  0.15539702519E+03  0.65507072845E+02  0.25114295783E+03  0.12500477415E+03 0.  0.
          2    1    1    2  501    0 -0.41228528300E+02 -0.50446571072E+02 -0.22418237762E+03  0.23345746189E+03  0.00000000000E+00 0. -1.
          1    1    1    2  502    0  0.17909505678E+03 -0.10495045412E+03  0.10624886574E+04  0.10825764566E+04  0.00000000000E+00 0. -1.
         22    1    3    3    0    0 -0.67280544822E+02  0.62340777031E+02 -0.33881989550E+02  0.97780536960E+02  0.00000000000E+00 0.  1.
         22    1    3    3    0    0 -0.70585983658E+02  0.93056248158E+02  0.99389062394E+02  0.15336242087E+03  0.00000000000E+00 0.  1.
</event>
<event>
 7    1  0.8792454E-005  0.1619512E+03  0.7818608E-02  0.1202964E+00
          2   -1    0    0  502    0  0.00000000000E+00  0.00000000000E+00  0.10454637823E+04  0.10454637823E+04  0.00000000000E+00 0. -1.
          1   -1    0    0  501    0 -0.00000000000E+00 -0.00000000000E+00 -0.96812901654E+03  0.96812901654E+03  0.00000000000E+00 0. -1.
         25    2    1    2    0    0 -0.56665630903E+02 -0.13982175171E+03  0.22213345770E+03  0.29619122409E+03  0.12499940887E+03 0.  0.
          2    1    1    2  501    0  0.13397001810E+03 -0.18443260739E+02 -0.91621037723E+03  0.92613690940E+03  0.00000000000E+00 0. -1.
          1    1    1    2  502    0 -0.77304387195E+02  0.15826501245E+03  0.77141168531E+03  0.79126466538E+03  0.00000000000E+00 0. -1.
         22    1    3    3    0    0 -0.92885441863E+02 -0.11438933032E+03  0.14194051838E+03  0.20459651746E+03  0.00000000000E+00 0.  1.
         22    1    3    3    0    0  0.36219810960E+02 -0.25432421390E+02  0.80192939328E+02  0.91594706626E+02  0.00000000000E+00 0.  1.
</event>
<event>
 7    1  0.8792454E-005  0.2656810E+03  0.7818608E-02  0.1206477E+00
          2   -1    0    0  502    0  0.00000000000E+00  0.00000000000E+00  0.76969664367E+03  0.76969664367E+03  0.00000000000E+00 0. -1.
          1   -1    0    0  501    0 -0.00000000000E+00 -0.00000000000E+00 -0.28568311866E+03  0.28568311866E+03  0.00000000000E+00 0. -1.
         25    2    1    2    0    0  0.25953465358E+03  0.29794726020E+02  0.59374782674E+03  0.66060947620E+03  0.12498974428E+03 0.  0.
          2    1    1    2  501    0  0.20784651418E+02  0.76603333181E+02 -0.23939603443E+02  0.82904625939E+02  0.00000000000E+00 0. -1.
          1    1    1    2  502    0 -0.28031930499E+03 -0.10639805920E+03 -0.85794698283E+02  0.31186566019E+03  0.00000000000E+00 0. -1.
         22    1    3    3    0    0  0.15776033215E+03 -0.36828121397E+02  0.27139710550E+03  0.31607122899E+03  0.00000000000E+00 0.  1.
         22    1    3    3    0    0  0.10177432143E+03  0.66622847416E+02  0.32235072124E+03  0.34453824720E+03  0.00000000000E+00 0.  1.
</event>
<event>
 7    1  0.8792454E-005  0.2047301E+03  0.7818608E-02  0.1240543E+00
          2   -1    0    0  502    0  0.00000000000E+00  0.00000000000E+00  0.11415505358E+04  0.11415505358E+04  0.00000000000E+00 0. -1.
          1   -1    0    0  501    0 -0.00000000000E+00 -0.00000000000E+00 -0.21044155206E+03  0.21044155206E+03  0.00000000000E+00 0. -1.
         25    2    1    2    0    0  0.82936794243E+02 -0.23433710963E+03  0.46699990416E+02  0.28213207951E+03  0.12500091358E+03 0.  0.
          2    1    1    2  501    0 -0.39022808688E+02  0.17705410989E+03 -0.12070937524E+01  0.18130745848E+03  0.00000000000E+00 0. -1.
          1    1    1    2  502    0 -0.43913985555E+02  0.57282999748E+02  0.88561608705E+03  0.88855254984E+03  0.00000000000E+00 0. -1.
         22    1    3    3    0    0  0.10608998237E+03 -0.11591363978E+03  0.34273900678E+02  0.16082834487E+03  0.00000000000E+00 0.  1.
         22    1    3    3    0    0 -0.23153188124E+02 -0.11842346985E+03  0.12426089738E+02  0.12130373464E+03  0.00000000000E+00 0.  1.
</event>
<event>
 7    1  0.8792454E-005  0.3068940E+03  0.7818608E-02  0.1118278E+00
          2   -1    0    0  502    0  0.00000000000E+00  0.00000000000E+00  0.23462534496E+04  0.23462534496E+04  0.00000000000E+00 0. -1.
          1   -1    0    0  501    0 -0.00000000000E+00 -0.00000000000E+00 -0.22333480474E+03  0.22333480474E+03  0.00000000000E+00 0. -1.
         25    2    1    2    0    0  0.21843389270E+03  0.27128468814E+03  0.11238005257E+04  0.11831572005E+04  0.12499836836E+03 0.  0.
          2    1    1    2  501    0 -0.18915701372E+03  0.28435163778E+02 -0.12113122500E+03  0.22641048573E+03  0.00000000000E+00 0. -1.
          1    1    1    2  502    0 -0.29276878981E+02 -0.29971985192E+03  0.11202493442E+04  0.11600205681E+04  0.00000000000E+00 0. -1.
         22    1    3    3    0    0  0.15304455991E+03  0.91187315094E+02  0.56503049970E+03  0.59245019144E+03  0.00000000000E+00 0.  1.
         22    1    3    3    0    0  0.65389332791E+02  0.18009737304E+03  0.55877002600E+03  0.59070700908E+03  0.00000000000E+00 0.  1.
</event>
<event>
 7    1  0.8792454E-005  0.2064342E+03  0.7818608E-02  0.1163554E+00
          2   -1    0    0  502    0  0.00000000000E+00  0.00000000000E+00  0.14598687235E+04  0.14598687235E+04  0.00000000000E+00 0. -1.
          1   -1    0    0  501    0 -0.00000000000E+00 -0.00000000000E+00 -0.85453332507E+03  0.85453332507E+03  0.00000000000E+00 0. -1.
         25    2    1    2    0    0  0.20796107987E+03  0.91079887646E+02 -0.35683117768E+03  0.44101798252E+03  0.12500005947E+03 0.  0.
          2    1    1    2  501    0 -0.13022227936E+03  0.10104507811E+03 -0.43279014567E+03  0.46311473745E+03  0.00000000000E+00 0. -1.
          1    1    1    2  502    0 -0.77738800511E+02 -0.19212496575E+03  0.13949567218E+04  0.14102693286E+04  0.00000000000E+00 0. -1.
         22    1    3    3    0    0  0.13255708787E+03  0.58895237041E+02 -0.11330011526E+03  0.18405691133E+03  0.00000000000E+00 0. -1.
         22    1    3    3    0    0  0.75403992003E+02  0.32184650605E+02 -0.24353106242E+03  0.25696107119E+03  0.00000000000E+00 0. -1.
</event>
<event>
 7    1  0.8792454E-005  0.2157417E+03  0.7818608E-02  0.1190389E+00
          2   -1    0    0  502    0  0.00000000000E+00  0.00000000000E+00  0.16645635231E+04  0.16645635231E+04  0.00000000000E+00 0. -1.
          1   -1    0    0  501    0 -0.00000000000E+00 -0.00000000000E+00 -0.18673201686E+03  0.18673201686E+03  0.00000000000E+00 0. -1.
         25    2    1    2    0    0 -0.19402049183E+03  0.98110176853E+02  0.59732386288E+02  0.25780308658E+03  0.12499966170E+03 0.  0.
          2    1    1    2  501    0 -0.23366659842E+02 -0.11409262115E+03 -0.36969482130E+02  0.12218784556E+03  0.00000000000E+00 0. -1.
          1    1    1    2  502    0  0.21738715168E+03  0.15982444295E+02  0.14550686021E+04  0.14713046078E+04  0.00000000000E+00 0. -1.
         22    1    3    3    0    0 -0.98767685084E+02  0.77237371183E+02  0.91530112318E+02  0.15523668569E+03  0.00000000000E+00 0.  1.
         22    1    3    3    0    0 -0.95252806751E+02  0.20872805670E+02 -0.31797726030E+02  0.10256640089E+03  0.00000000000E+00 0.  1.
</event>
<event>
 7    1  0.8792454E-005  0.3004613E+03  0.7818608E-02  0.1247214E+00
          2   -1    0    0  502    0  0.00000000000E+00  0.00000000000E+00  0.19056632276E+04  0.19056632276E+04  0.00000000000E+00 0. -1.
          1   -1    0    0  501    0 -0.00000000000E+00 -0.00000000000E+00 -0.65542403748E+02  0.65542403748E+02  0.00000000000E+00 0. -1.
         25    2    1    2    0    0  0.12458739598E+03  0.24933064891E+03  0.87507963314E+03  0.92686398439E+03  0.12499875798E+03 0.  0.
          2    1    1    2  501    0  0.30462474508E+02  0.34441647691E+02  0.29845311615E+02  0.54817260732E+02  0.00000000000E+00 0. -1.
          1    1    1    2  502    0 -0.15504987048E+03 -0.28377229660E+03  0.93519587907E+03  0.98952438620E+03  0.00000000000E+00 0. -1.
         22    1    3    3    0    0  0.10432800813E+03  0.26147464556E+03  0.81809813358E+03  0.86518083642E+03  0.00000000000E+00 0. -1.
         22    1    3    3    0    0  0.20259387848E+02 -0.12143996648E+02  0.56981499562E+02  0.61683147965E+02  0.00000000000E+00 0. -1.
</event>
<event>
 7    1  0.8792454E-005  0.1068536E+03  0.7818608E-02  0.1299833E+00
          2   -1    0    0  502    0  0.00000000000E+00  0.00000000000E+00  0.28546944622E+04  0.28546944622E+04  0.00000000000E+00 0. -1.
          1   -1    0    0  501    0 -0.00000000000E+00 -0.00000000000E+00 -0.38712962573E+02  0.38712962573E+02  0.00000000000E+00 0. -1.
         25    2    1    2    0    0 -0.63902413363E+02  0.97777464862E+02  0.25369395971E+04  0.25427015805E+04  0.12499942812E+03 0.  0.
          2    1    1    2  501    0  0.77877220798E+02 -0.31028402340E+01  0.29315205388E+02  0.83269864919E+02  0.00000000000E+00 0. -1.
          1    1    1    2  502    0 -0.13974807435E+02 -0.94674624628E+02  0.24972669707E+03  0.26743597930E+03  0.00000000000E+00 0. -1.
         22    1    3    3    0    0 -0.95642069958E+02  0.66163219786E+02  0.13788134222E+04  0.13837093013E+04  0.00000000000E+00 0.  1.
         22    1    3    3    0    0  0.31739656595E+02  0.31614245076E+02  0.11581261749E+04  0.11589922792E+04  0.00000000000E+00 0.  1.
</event>
<event>
 7    1  0.8792454E-005  0.2894990E+03  0.7818608E-02  0.1123002E+00
          2   -1    0    0  502    0  0.00000000000E+00  0.00000000000E+00  0.34760653954E+03  0.34760653954E+03  0.00000000000E+00 0. -1.
          1   -1    0    0  501    0 -0.00000000000E+00 -0.00000000000E+00 -0.51726194003E+03  0.51726194003E+03  0.00000000000E+00 0. -1.
         25    2    1    2    0    0  0.16276116059E+03 -0.35544882079E+03 -0.64369220568E+02  0.41545656606E+03  0.12500280848E+03 0.  0.
          2    1    1    2  501    0 -0.18118139375E+03  0.16518100046E+03 -0.70540945267E+02  0.25512249080E+03  0.00000000000E+00 0. -1.
          1    1    1    2  502    0  0.18420233160E+02  0.19026782033E+03 -0.34745234655E+02  0.19428942270E+03  0.00000000000E+00 0. -1.
         22    1    3    3    0    0  0.71619864261E+02 -0.45764377804E+02 -0.32787702486E+02  0.91097841176E+02  0.00000000000E+00 0.  1.
         22    1    3    3    0    0  0.91141296332E+02 -0.30968444298E+03 -0.31581518082E+02  0.32435872488E+03  0.00000000000E+00 0.  1.
</event>
<event>
 7    1  0.8792454E-005  0.4400810E+03  0.7818608E-02  0.1071368E+00
          2   -1    0    0  502    0  0.00000000000E+00  0.00000000000E+00  0.15861644221E+04  0.15861644221E+04  0.00000000000E+00 0. -1.
          1   -1    0    0  501    0 -0.00000000000E+00 -0.00000000000E+00 -0.91069169885E+03  0.91069169885E+03  0.00000000000E+00 0. -1.
         25    2    1    2    0    0  0.14051685604E+03  0.52455605448E+03 -0.16365663284E+03  0.58078616459E+03  0.12500013753E+03 0.  0.
          2    1    1    2  501    0 -0.22638999340E+03 -0.97953729573E+02 -0.47311256933E+03  0.53355680626E+03  0.00000000000E+00 0. -1.
          1    1    1    2  502    0  0.85873137351E+02 -0.42660232490E+03  0.13122419254E+04  0.13825131501E+04  0.00000000000E+00 0. -1.
         22    1    3    3    0    0  0.13870432654E+03  0.50638497385E+03 -0.18123664551E+03  0.55543798359E+03  0.00000000000E+00 0.  1.
         22    1    3    3    0    0  0.18125295077E+01  0.18171080629E+02  0.17580012669E+02  0.25348180998E+02  0.00000000000E+00 0.  1.
</event>
<event>
 7    1  0.8792454E-005  0.3325681E+03  0.7818608E-02  0.1087358E+00
          2   -1    0    0  502    0  0.00000000000E+00  0.00000000000E+00  0.72728602993E+03  0.72728602993E+03  0.00000000000E+00 0. -1.
          1   -1    0    0  501    0 -0.00000000000E+00 -0.00000000000E+00 -0.20541893362E+04  0.20541893362E+04  0.00000000000E+00 0. -1.
         25    2    1    2    0    0  0.71814345669E+02 -0.38961768737E+03 -0.10551151122E+03  0.42862305747E+03  0.12500321533E+03 0.  0.
          2    1    1    2  501    0  0.17093270947E+03  0.28814778369E+03 -0.17396591067E+04  0.17716266379E+04  0.00000000000E+00 0. -1.
          1    1    1    2  502    0 -0.24274705514E+03  0.10146990367E+03  0.51826731162E+03  0.58122567083E+03  0.00000000000E+00 0. -1.
         22    1    3    3    0    0  0.44292377796E+02 -0.35921502714E+03 -0.12540220028E+03  0.38304433463E+03  0.00000000000E+00 0.  1.
         22    1    3    3    0    0  0.27521967873E+02 -0.30402660227E+02  0.19890689065E+02  0.45578722842E+02  0.00000000000E+00 0.  1.
</event>
<event>
 7    1  0.8792454E-005  0.2925131E+03  0.7818608E-02  0.1179469E+00
          2   -1    0    0  502    0  0.00000000000E+00  0.00000000000E+00  0.18619118595E+04  0.18619118595E+04  0.00000000000E+00 0. -1.
          1   -1    0    0  501    0 -0.00000000000E+00 -0.00000000000E+00 -0.65724690804E+03  0.65724690804E+03  0.00000000000E+00 0. -1.
         25    2    1    2    0    0  0.32766973927E+03  0.17516183148E+03  0.77161857872E+03  0.86548213785E+03  0.12495989227E+03 0.  0.
          2    1    1    2  501    0 -0.27342568770E+03 -0.94733537148E+02 -0.57355127542E+03  0.64241506465E+03  0.00000000000E+00 0. -1.
          1    1    1    2  502    0 -0.54244051571E+02 -0.80428294331E+02  0.10065976481E+04  0.10112615650E+04  0.00000000000E+00 0. -1.
         22    1    3    3    0    0  0.35671882286E+02  0.53319437475E+02  0.65324372447E+02  0.91557191056E+02  0.00000000000E+00 0.  1.
         22    1    3    3    0    0  0.29199785699E+03  0.12184239400E+03  0.70629420627E+03  0.77392494680E+03  0.00000000000E+00 0.  1.
</event>
<event>
 7    1  0.8792454E-005  0.2796990E+03  0.7818608E-02  0.1167233E+00
          2   -1    0    0  502    0  0.00000000000E+00  0.00000000000E+00  0.29417811195E+04  0.29417811195E+04  0.00000000000E+00 0. -1.
          1   -1    0    0  501    0 -0.00000000000E+00 -0.00000000000E+00 -0.28517769292E+03  0.28517769292E+03  0.00000000000E+00 0. -1.
         25    2    1    2    0    0  0.19441443205E+03  0.10650483960E+03  0.10165900555E+03  0.27404381676E+03  0.12500083138E+03 0.  0.
          2    1    1    2  501    0 -0.30992157581E+03 -0.90579692325E+02 -0.65845531439E+02  0.32953254441E+03  0.00000000000E+00 0. -1.
          1    1    1    2  502    0  0.11550714375E+03 -0.15925147272E+02  0.26207899524E+04  0.26233824512E+04  0.00000000000E+00 0. -1.
         22    1    3    3    0    0  0.19429840844E+02  0.44106498212E+02 -0.19778959436E+02  0.52097112551E+02  0.00000000000E+00 0. -1.
         22    1    3    3    0    0  0.17498459121E+03  0.62398341386E+02  0.12143796498E+03  0.22194670421E+03  0.00000000000E+00 0. -1.
</event>
<event>
 7    1  0.8792454E-005  0.4412533E+03  0.7818608E-02  0.1071645E+00
          2   -1    0    0  502    0  0.00000000000E+00  0.00000000000E+00  0.65267142641E+03  0.65267142641E+03  0.00000000000E+00 0. -1.
          1   -1    0    0  501    0 -0.00000000000E+00 -0.00000000000E+00 -0.23912694042E+04  0.23912694042E+04  0.00000000000E+00 0. -1.
         25    2    1    2    0    0  0.17839315845E+03  0.24099675263E+03  0.10918196871E+03  0.34270881534E+03  0.12500030423E+03 0.  0.
          2    1    1    2  501    0 -0.41827597026E+03 -0.19075635458E+03 -0.22136368585E+04  0.22608695043E+04  0.00000000000E+00 0. -1.
          1    1    1    2  502    0  0.23988281181E+03 -0.50240398045E+02  0.36585691201E+03  0.44036251097E+03  0.00000000000E+00 0. -1.
         22    1    3    3    0    0  0.82499929388E+01  0.69020403045E+02 -0.14498803682E+02  0.71007701894E+02  0.00000000000E+00 0.  1.
         22    1    3    3    0    0  0.17014316551E+03  0.17197634958E+03  0.12368077239E+03  0.27170111344E+03  0.00000000000E+00 0.  1.
</event>
<event>
 7    1  0.8792454E-005  0.6520204E+02  0.7818608E-02  0.1378601E+00
          2   -1    0    0  502    0  0.00000000000E+00  0.00000000000E+00  0.92487171772E+02  0.92487171772E+02  0.00000000000E+00 0. -1.
          1   -1    0    0  501    0 -0.00000000000E+00 -0.00000000000E+00 -0.90906971498E+03  0.90906971498E+03  0.00000000000E+00 0. -1.
         25    2    1    2    0    0 -0.62503297546E+02 -0.36325374324E+02 -0.13463699907E+03  0.19743084418E+03  0.12500248674E+03 0.  0.
          2    1    1    2  501    0  0.56522637054E+02 -0.31000666550E+02 -0.72245477252E+03  0.72532527060E+03  0.00000000000E+00 0. -1.
          1    1    1    2  502    0  0.59806604926E+01  0.67326040874E+02  0.40509228382E+02  0.78800771975E+02  0.00000000000E+00 0. -1.
         22    1    3    3    0    0 -0.50591731795E+02 -0.53875659899E+02 -0.14347832453E+02  0.75285923994E+02  0.00000000000E+00 0.  1.
         22    1    3    3    0    0 -0.11911565751E+02  0.17550285575E+02 -0.12028916662E+03  0.12214492019E+03  0.00000000000E+00 0.  1.
</event>
<event>
 7    1  0.8792454E-005  0.2090090E+03  0.7818608E-02  0.1177134E+00
          2   -1    0    0  502    0  0.00000000000E+00  0.00000000000E+00  0.30322380088E+04  0.30322380088E+04  0.00000000000E+00 0. -1.
          1   -1    0    0  501    0 -0.00000000000E+00 -0.00000000000E+00 -0.77351248488E+02  0.77351248488E+02  0.00000000000E+00 0. -1.
         25    2    1    2    0    0  0.28861762229E+03  0.12248257401E+03  0.64074073805E+03  0.72420664951E+03  0.12499785982E+03 0.  0.
          2    1    1    2  501    0 -0.16108259253E+03 -0.66228956947E+02  0.19420095903E+03  0.26085990271E+03  0.00000000000E+00 0. -1.
          1    1    1    2  502    0 -0.12753502976E+03 -0.56253617061E+02  0.21199450632E+04  0.21245227051E+04  0.00000000000E+00 0. -1.
         22    1    3    3    0    0  0.53638717270E+01 -0.52452716752E+01 -0.39976752398E+01  0.85009059619E+01  0.00000000000E+00 0.  1.
         22    1    3    3    0    0  0.28325375056E+03  0.12772784568E+03  0.64473841329E+03  0.71570574354E+03  0.00000000000E+00 0.  1.
</event>
<event>
 7    1  0.8792454E-005  0.9620871E+02  0.7818608E-02  0.1398876E+00
          2   -1    0    0  502    0  0.00000000000E+00  0.00000000000E+00  0.41674483662E+03  0.41674483662E+03  0.00000000000E+00 0. -1.
          1   -1    0    0  501    0 -0.00000000000E+00 -0.00000000000E+00 -0.27972950868E+03  0.27972950868E+03  0.00000000000E+00 0. -1.
         25    2    1    2    0    0 -0.96855978364E+02 -0.34374952417E+02  0.26552562572E+03  0.31095288176E+03  0.12500047546E+03 0.  0.
          2    1    1    2  501    0  0.96174661300E+02 -0.27286670458E+01 -0.24502590935E+03  0.26323887888E+03  0.00000000000E+00 0. -1.
          1    1    1    2  502    0  0.68131706415E+00  0.37103619463E+02  0.11651561158E+03  0.12228258466E+03  0.00000000000E+00 0. -1.
         22    1    3    3    0    0 -0.10917798380E+03  0.14288184436E+02  0.20119225640E+03  0.22935193131E+03  0.00000000000E+00 0. -1.
         22    1    3    3    0    0  0.12322005437E+02 -0.48663136854E+02  0.64333369316E+02  0.81600950448E+02  0.00000000000E+00 0. -1.
</event>
<event>
 7    1  0.1118321E-004  0.1426403E+03  0.7818608E-02  0.1261334E+00
          2   -1    0    0  502    0  0.00000000000E+00  0.00000000000E+00  0.22782572330E+04  0.22782572330E+04  0.00000000000E+00 0. -1.
          1   -1    0    0  501    0 -0.00000000000E+00 -0.00000000000E+00 -0.29533766546E+04  0.29533766546E+04  0.00000000000E+00 0. -1.
         25    2    1    2    0    0 -0.15750194104E+03 -0.11781097020E+02 -0.40466519160E+03  0.45202203136E+03  0.12499737543E+03 0.  0.
          2    1    1    2  501    0  0.12678610382E+03 -0.66611182659E+02 -0.25222148138E+04  0.25262777624E+04  0.00000000000E+00 0. -1.
          1    1    1    2  502    0  0.30715837215E+02  0.78392279679E+02  0.22517605837E+04  0.22533340939E+04  0.00000000000E+00 0. -1.
         22    1    3    3    0    0 -0.47930143422E+02  0.55054389142E+02 -0.15279169950E+03  0.16933277251E+03  0.00000000000E+00 0. -1.
         22    1    3    3    0    0 -0.10957179761E+03 -0.66835486161E+02 -0.25187349210E+03  0.28268925884E+03  0.00000000000E+00 0. -1.
</event>
<event>
 7    1  0.8792454E-005  0.1437795E+03  0.7818608E-02  0.1272325E+00
          2   -1    0    0  502    0  0.00000000000E+00  0.00000000000E+00  0.55624993111E+03  0.55624993111E+03  0.00000000000E+00 0. -1.
          1   -1    0    0  501    0 -0.00000000000E+00 -0.00000000000E+00 -0.13247968011E+04  0.13247968011E+04  0.00000000000E+00 0. -1.
         25    2    1    2    0    0 -0.16312611453E+03 -0.81540106317E+02 -0.54816785685E+01  0.22116251717E+03  0.12499556801E+03 0.  0.
          2    1    1    2  501    0  0.70702885415E+02 -0.25217363754E+02 -0.11991553041E+04  0.12015024997E+04  0.00000000000E+00 0. -1.
          1    1    1    2  502    0  0.92423229116E+02  0.10675747007E+03  0.43609011261E+03  0.45838171540E+03  0.00000000000E+00 0. -1.
         22    1    3    3    0    0 -0.48966317373E+02  0.33160260308E+02 -0.47944790760E+01  0.59332032919E+02  0.00000000000E+00 0. -1.
         22    1    3    3    0    0 -0.11415979716E+03 -0.11470036663E+03 -0.68719949255E+00  0.16183048426E+03  0.00000000000E+00 0. -1.
</event>
<event>
 7    1  0.8792454E-005  0.2170053E+03  0.7818608E-02  0.1140564E+00
          2   -1    0    0  502    0  0.00000000000E+00  0.00000000000E+00  0.94429810375E+03  0.94429810375E+03  0.00000000000E+00 0. -1.
          1   -1    0    0  501    0 -0.00000000000E+00 -0.00000000000E+00 -0.99466445582E+03  0.99466445582E+03  0.00000000000E+00 0. -1.
         25    2    1    2    0    0 -0.56809933416E+02 -0.18175214090E+03 -0.64506816939E+03  0.68410432608E+03  0.12499830620E+03 0.  0.
          2    1    1    2  501    0  0.20129760749E+03  0.32814352403E+03 -0.20010541199E+03  0.43386757778E+03  0.00000000000E+00 0. -1.
          1    1    1    2  502    0 -0.14448767408E+03 -0.14639138313E+03  0.79480722930E+03  0.82099065571E+03  0.00000000000E+00 0. -1.
         22    1    3    3    0    0  0.39721667090E+02 -0.46322201202E+02 -0.15464862786E+03  0.16625208347E+03  0.00000000000E+00 0. -1.
         22    1    3    3    0    0 -0.96531600506E+02 -0.13542993969E+03 -0.49041954153E+03  0.51785224261E+03  0.00000000000E+00 0. -1.
</event>
<event>
 7    1  0.8792454E-005  0.1275730E+03  0.7818608E-02  0.1279264E+00
          2   -1    0    0  502    0  0.00000000000E+00  0.00000000000E+00  0.13340896653E+03  0.13340896653E+03  0.00000000000E+00 0. -1.
          1   -1    0    0  501    0 -0.00000000000E+00 -0.00000000000E+00 -0.36603759034E+03  0.36603759034E+03  0.00000000000E+00 0. -1.
         25    2    1    2    0    0 -0.15904342558E+03 -0.40686009856E+02 -0.96630805529E+00  0.20633981073E+03  0.12500008448E+03 0.  0.
          2    1    1    2  501    0  0.78869682821E+02 -0.67727778013E+01 -0.14822699262E+03  0.16804028901E+03  0.00000000000E+00 0. -1.
          1    1    1    2  502    0  0.80173742762E+02  0.47458787657E+02 -0.83435323130E+02  0.12506645713E+03  0.00000000000E+00 0. -1.
         22    1    3    3    0    0 -0.18038436260E+02 -0.59014848981E+02 -0.14851893691E+02  0.63472169722E+02  0.00000000000E+00 0. -1.
         22    1    3    3    0    0 -0.14100498932E+03  0.18328839125E+02  0.13885585635E+02  0.14286764100E+03  0.00000000000E+00 0. -1.
</event>
<event>
 7    1  0.8792454E-005  0.2525874E+03  0.7818608E-02  0.1187958E+00
          2   -1    0    0  502    0  0.00000000000E+00  0.00000000000E+00  0.17274771554E+04  0.17274771554E+04  0.00000000000E+00 0. -1.
          1   -1    0    0  501    0 -0.00000000000E+00 -0.00000000000E+00 -0.93759327507E+02  0.93759327507E+02  0.00000000000E+00 0. -1.
         25    2    1    2    0    0 -0.23010525756E+03  0.21224673836E+03  0.41466151721E+03  0.53438302103E+03  0.12499572718E+03 0.  0.
          2    1    1    2  501    0  0.10189387037E+03 -0.76989780246E+01  0.10338092318E+03  0.14535903949E+03  0.00000000000E+00 0. -1.
          1    1    1    2  502    0  0.12821138719E+03 -0.20454776033E+03  0.11156753875E+04  0.11414944224E+04  0.00000000000E+00 0. -1.
         22    1    3    3    0    0 -0.42781483585E+02 -0.59185364208E+01  0.24335857605E+02  0.49573363579E+02  0.00000000000E+00 0. -1.
         22    1    3    3    0    0 -0.18732377398E+03  0.21816527478E+03  0.39032565960E+03  0.48480965745E+03  0.00000000000E+00 0. -1.
</event>
<event>
 7    1  0.8792454E-005  0.3340261E+03  0.7818608E-02  0.1092588E+00
          2   -1    0    0  502    0  0.00000000000E+00  0.00000000000E+00  0.13488430770E+04  0.13488430770E+04  0.00000000000E+00 0. -1.
          1   -1    0    0  501    0 -0.00000000000E+00 -0.00000000000E+00 -0.59925861330E+03  0.59925861330E+03  0.00000000000E+00 0. -1.
         25    2    1    2    0    0 -0.16085843324E+03 -0.37321143974E+03 -0.25862925332E+03  0.49767238154E+03  0.12500597739E+03 0.  0.
          2    1    1    2  501    0  0.26153640821E+03  0.15045043573E+03 -0.98224067208E+02  0.31730835761E+03  0.00000000000E+00 0. -1.
          1    1    1    2  502    0 -0.10067797497E+03  0.22276100401E+03  0.11064377843E+04  0.11331209512E+04  0.00000000000E+00 0. -1.
         22    1    3    3    0    0 -0.24821700172E+02 -0.90553630677E+01 -0.49849593595E+02  0.56418954096E+02  0.00000000000E+00 0. -1.
         22    1    3    3    0    0 -0.13603673306E+03 -0.36415607667E+03 -0.20877965972E+03  0.44125342745E+03  0.00000000000E+00 0. -1.
</event>
<event>
 7    1  0.8792454E-005  0.9811749E+02  0.7818608E-02  0.1303983E+00
          2   -1    0    0  502    0  0.00000000000E+00  0.00000000000E+00  0.50704525422E+02  0.50704525422E+02  0.00000000000E+00 0. -1.
          1   -1    0    0  501    0 -0.00000000000E+00 -0.00000000000E+00 -0.22228666878E+04  0.22228666878E+04  0.00000000000E+00 0. -1.
         25    2    1    2    0    0  0.51496846875E+02  0.12968980671E+03 -0.11974325719E+04  0.12119983201E+04  0.12499516963E+03 0.  0.
          2    1    1    2  501    0 -0.74996980880E+02 -0.51440456760E+02 -0.97563642517E+03  0.97986585911E+03  0.00000000000E+00 0. -1.
          1    1    1    2  502    0  0.23500134005E+02 -0.78249349949E+02  0.90683466192E+00  0.81707034059E+02  0.00000000000E+00 0. -1.
         22    1    3    3    0    0  0.63338816176E+02  0.84722530032E+02 -0.41790398879E+03  0.43108404816E+03  0.00000000000E+00 0.  1.
         22    1    3    3    0    0 -0.11841969302E+02  0.44967276677E+02 -0.77952858310E+03  0.78091427192E+03  0.00000000000E+00 0.  1.
</event>
<event>
 7    1  0.8792454E-005  0.2269546E+03  0.7818608E-02  0.1138916E+00
          2   -1    0    0  502    0  0.00000000000E+00  0.00000000000E+00  0.11470159772E+04  0.11470159772E+04  0.00000000000E+00 0. -1.
          1   -1    0    0  501    0 -0.00000000000E+00 -0.00000000000E+00 -0.11707682961E+03  0.11707682961E+03  0.00000000000E+00 0. -1.
         25    2    1    2    0    0  0.21950559783E+03 -0.16034602431E+03  0.33805245747E+03  0.45144027806E+03  0.12500122263E+03 0.  0.
          2    1    1    2  501    0 -0.28650005781E+02  0.22216815452E+03  0.32937596675E+03  0.39833156941E+03  0.00000000000E+00 0. -1.
          1    1    1    2  502    0 -0.19085559205E+03 -0.61822130207E+02  0.36251072338E+03  0.41432095936E+03  0.00000000000E+00 0. -1.
         22    1    3    3    0    0  0.45442864079E+02  0.18646823150E+01  0.12144178685E+03  0.12967898261E+03  0.00000000000E+00 0. -1.
         22    1    3    3    0    0  0.17406273375E+03 -0.16221070662E+03  0.21661067062E+03  0.32176129545E+03  0.00000000000E+00 0. -1.
</event>
<event>
 7    1  0.8792454E-005  0.1339321E+03  0.7818608E-02  0.1383121E+00
          2   -1    0    0  502    0  0.00000000000E+00  0.00000000000E+00  0.15953147515E+03  0.15953147515E+03  0.00000000000E+00 0. -1.
          1   -1    0    0  501    0 -0.00000000000E+00 -0.00000000000E+00 -0.28972252865E+04  0.28972252865E+04  0.00000000000E+00 0. -1.
         25    2    1    2    0    0 -0.11246444899E+03  0.15545855996E+02 -0.25185410774E+03  0.30322445860E+03  0.12499861913E+03 0.  0.
          2    1    1    2  501    0  0.12913981132E+03 -0.40784013468E+02 -0.26162028243E+04  0.26197056408E+04  0.00000000000E+00 0. -1.
          1    1    1    2  502    0 -0.16675362333E+02  0.25238157471E+02  0.13036312067E+03  0.13382666226E+03  0.00000000000E+00 0. -1.
         22    1    3    3    0    0 -0.12002334218E+03  0.48444430575E+02 -0.16276094967E+03  0.20795093714E+03  0.00000000000E+00 0.  1.
         22    1    3    3    0    0  0.75588931914E+01 -0.32898574578E+02 -0.89093158073E+02  0.95273521458E+02  0.00000000000E+00 0.  1.
</event>
<event>
 7    1  0.8792454E-005  0.5288656E+02  0.7818608E-02  0.1485626E+00
          2   -1    0    0  502    0  0.00000000000E+00  0.00000000000E+00  0.81317292278E+03  0.81317292278E+03  0.00000000000E+00 0. -1.
          1   -1    0    0  501    0 -0.00000000000E+00 -0.00000000000E+00 -0.10303429049E+04  0.10303429049E+04  0.00000000000E+00 0. -1.
         25    2    1    2    0    0  0.31319725665E+02  0.22125279789E+02 -0.27262427676E+03  0.30235570931E+03  0.12499810178E+03 0.  0.
          2    1    1    2  501    0 -0.13604079510E+02 -0.52722469146E+02 -0.74146268035E+03  0.74345923633E+03  0.00000000000E+00 0. -1.
          1    1    1    2  502    0 -0.17715646155E+02  0.30597189357E+02  0.79691697501E+03  0.79770088202E+03  0.00000000000E+00 0. -1.
         22    1    3    3    0    0  0.67697705750E+02 -0.97978979021E+00 -0.23688062457E+03  0.24636633222E+03  0.00000000000E+00 0. -1.
         22    1    3    3    0    0 -0.36377980085E+02  0.23105069579E+02 -0.35743652192E+02  0.55989377094E+02  0.00000000000E+00 0. -1.
</event>
<event>
 7    1  0.8792454E-005  0.2210450E+03  0.7818608E-02  0.1222085E+00
          2   -1    0    0  502    0  0.00000000000E+00  0.00000000000E+00  0.19656633044E+04  0.19656633044E+04  0.00000000000E+00 0. -1.
          1   -1    0    0  501    0 -0.00000000000E+00 -0.00000000000E+00 -0.18041124488E+03  0.18041124488E+03  0.00000000000E+00 0. -1.
         25    2    1    2    0    0  0.14871400669E+03  0.12242608877E+03  0.45558800970E+03  0.51018520522E+03  0.12499802415E+03 0.  0.
          2    1    1    2  501    0 -0.26390071756E+02  0.76425692587E+02 -0.13249078006E+03  0.15521317333E+03  0.00000000000E+00 0. -1.
          1    1    1    2  502    0 -0.12232393493E+03 -0.19885178135E+03  0.14621548299E+04  0.14806761707E+04  0.00000000000E+00 0. -1.
         22    1    3    3    0    0  0.11765019538E+03  0.46385092835E+02  0.37235782293E+03  0.39324736949E+03  0.00000000000E+00 0. -1.
         22    1    3    3    0    0  0.31063811309E+02  0.76040995931E+02  0.83230186768E+02  0.11693783573E+03  0.00000000000E+00 0. -1.
</event>
<event>
 7    1  0.8792454E-005  0.6324594E+03  0.7818608E-02  0.1039619E+00
          2   -1    0    0  502    0  0.00000000000E+00  0.00000000000E+00  0.24894675071E+04  0.24894675071E+04  0.00000000000E+00 0. -1.
          1   -1    0    0  501    0 -0.00000000000E+00 -0.00000000000E+00 -0.56397322378E+03  0.56397322378E+03  0.00000000000E+00 0. -1.
         25    2    1    2    0    0  0.16195438590E+02  0.61723036989E+03  0.90555667325E+03  0.11031288957E+04  0.12499940125E+03 0.  0.
          2    1    1    2  501    0 -0.26870897136E+03  0.14390776104E+01 -0.34101485497E+03  0.43416323376E+03  0.00000000000E+00 0. -1.
          1    1    1    2  502    0  0.25251353276E+03 -0.61866944750E+03  0.13609524650E+04  0.15161486014E+04  0.00000000000E+00 0. -1.
         22    1    3    3    0    0  0.58027376458E+02  0.29487624835E+03  0.50015304127E+03  0.58349999396E+03  0.00000000000E+00 0.  1.
         22    1    3    3    0    0 -0.41831937868E+02  0.32235412154E+03  0.40540363198E+03  0.51962890174E+03  0.00000000000E+00 0.  1.
</event>
<event>
 7    1  0.8792454E-005  0.5455703E+02  0.7818608E-02  0.1449921E+00
          2   -1    0    0  502    0  0.00000000000E+00  0.00000000000E+00  0.13800922145E+04  0.13800922145E+04  0.00000000000E+00 0. -1.
          1   -1    0    0  501    0 -0.00000000000E+00 -0.00000000000E+00 -0.12910469071E+04  0.12910469071E+04  0.00000000000E+00 0. -1.
         25    2    1    2    0    0 -0.25994381954E+02  0.80379978088E+02  0.35531151173E+03  0.38600731595E+03  0.12497491280E+03 0.  0.
          2    1    1    2  501    0 -0.12029446808E+02 -0.42633664267E+02 -0.12746030155E+04  0.12753725668E+04  0.00000000000E+00 0. -1.
          1    1    1    2  502    0  0.38023828762E+02 -0.37746313821E+02  0.10083368112E+04  0.10097592389E+04  0.00000000000E+00 0. -1.
         22    1    3    3    0    0  0.21851540925E+02  0.85689455857E+02  0.29960019558E+03  0.31237869626E+03  0.00000000000E+00 0. -1.
         22    1    3    3    0    0 -0.47845922878E+02 -0.53094777692E+01  0.55711316142E+02  0.73628619684E+02  0.00000000000E+00 0. -1.
</event>
<event>
 7    1  0.8792454E-005  0.2964945E+03  0.7818608E-02  0.1224369E+00
          2   -1    0    0  502    0  0.00000000000E+00  0.00000000000E+00  0.32429885234E+03  0.32429885234E+03  0.00000000000E+00 0. -1.
          1   -1    0    0  501    0 -0.00000000000E+00 -0.00000000000E+00 -0.10356075786E+04  0.10356075786E+04  0.00000000000E+00 0. -1.
         25    2    1    2    0    0  0.24693974103E+03 -0.11733399748E+03 -0.53280938027E+03  0.61176462771E+03  0.12499448527E+03 0.  0.
          2    1    1    2  501    0 -0.29512775569E+03  0.15112965008E+03 -0.39965242932E+03  0.51929050403E+03  0.00000000000E+00 0. -1.
          1    1    1    2  502    0  0.48188014652E+02 -0.33795652600E+02  0.22115308332E+03  0.22885129921E+03  0.00000000000E+00 0. -1.
         22    1    3    3    0    0  0.21199561440E+03 -0.14187103239E+03 -0.48248645617E+03  0.54576800084E+03  0.00000000000E+00 0. -1.
         22    1    3    3    0    0  0.34944126638E+02  0.24537034902E+02 -0.50322924097E+02  0.65996626868E+02  0.00000000000E+00 0. -1.
</event>
<event>
 7    1  0.8792454E-005  0.2043239E+03  0.7818608E-02  0.1178456E+00
          2   -1    0    0  502    0  0.00000000000E+00  0.00000000000E+00  0.78124158501E+03  0.78124158501E+03  0.00000000000E+00 0. -1.
          1   -1    0    0  501    0 -0.00000000000E+00 -0.00000000000E+00 -0.95268409114E+03  0.95268409114E+03  0.00000000000E+00 0. -1.
         25    2    1    2    0    0 -0.24169787338E+03  0.13492936467E+02  0.65128671253E+02  0.28011919805E+03  0.12500039987E+03 0.  0.
          2    1    1    2  501    0  0.15987177214E+03 -0.12767723440E+03 -0.82440847254E+03  0.84941732341E+03  0.00000000000E+00 0. -1.
          1    1    1    2  502    0  0.81826101240E+02  0.11418429793E+03  0.58783729516E+03  0.60438915470E+03  0.00000000000E+00 0. -1.
         22    1    3    3    0    0 -0.10296033112E+03  0.18630142451E+02 -0.33448907370E+02  0.10984872050E+03  0.00000000000E+00 0.  1.
         22    1    3    3    0    0 -0.13873754226E+03 -0.51372059839E+01  0.98577578623E+02  0.17027047755E+03  0.00000000000E+00 0.  1.
</event>
<event>
 7    1  0.8792454E-005  0.2088062E+03  0.7818608E-02  0.1197152E+00
          2   -1    0    0  502    0  0.00000000000E+00  0.00000000000E+00  0.32962466326E+03  0.32962466326E+03  0.00000000000E+00 0. -1.
          1   -1    0    0  501    0 -0.00000000000E+00 -0.00000000000E+00 -0.14966763079E+04  0.14966763079E+04  0.00000000000E+00 0. -1.
         25    2    1    2    0    0 -0.32185339464E+02 -0.12559511621E+03 -0.22438001086E+03  0.28771831304E+03  0.12500163636E+03 0.  0.
          2    1    1    2  501    0 -0.96150075367E+02 -0.56891627897E+02 -0.11958946927E+04  0.12011018318E+04  0.00000000000E+00 0. -1.
          1    1    1    2  502    0  0.12833541483E+03  0.18248674410E+03  0.25322305901E+03  0.33748082625E+03  0.00000000000E+00 0. -1.
         22    1    3    3    0    0 -0.72116471483E+02 -0.33685072974E+02 -0.10752146706E+03  0.13377718595E+03  0.00000000000E+00 0.  1.
         22    1    3    3    0    0  0.39931132019E+02 -0.91910043232E+02 -0.11685854380E+03  0.15394112709E+03  0.00000000000E+00 0.  1.
</event>
<event>
 7    1  0.8792454E-005  0.9860671E+02  0.7818608E-02  0.1371089E+00
          2   -1    0    0  502    0  0.00000000000E+00  0.00000000000E+00  0.48345343396E+02  0.48345343396E+02  0.00000000000E+00 0. -1.
          1   -1    0    0  501    0 -0.00000000000E+00 -0.00000000000E+00 -0.10743959968E+04  0.10743959968E+04  0.00000000000E+00 0. -1.
         25    2    1    2    0    0 -0.42947250586E+02 -0.84695389338E+02 -0.29114760882E+03  0.33077101549E+03  0.12499903702E+03 0.  0.
          2    1    1    2  501    0  0.41895107315E+02 -0.17339443065E+02 -0.66892011967E+03  0.67045505651E+03  0.00000000000E+00 0. -1.
          1    1    1    2  502    0  0.10521432713E+01  0.10203483240E+03 -0.65982924946E+02  0.12151526823E+03  0.00000000000E+00 0. -1.
         22    1    3    3    0    0 -0.80580253245E+02 -0.22483948875E+02 -0.17025178799E+03  0.18969548356E+03  0.00000000000E+00 0.  1.
         22    1    3    3    0    0  0.37633002659E+02 -0.62211440463E+02 -0.12089582084E+03  0.14107553193E+03  0.00000000000E+00 0.  1.
</event>
<event>
 7    1  0.8792454E-005  0.5374900E+02  0.7818608E-02  0.1526070E+00
          2   -1    0    0  502    0  0.00000000000E+00  0.00000000000E+00  0.24464489355E+03  0.24464489355E+03  0.00000000000E+00 0. -1.
          1   -1    0    0  501    0 -0.00000000000E+00 -0.00000000000E+00 -0.93332706484E+02  0.93332706484E+02  0.00000000000E+00 0. -1.
         25    2    1    2    0    0 -0.46028625926E+02 -0.22267923030E+02  0.14674110789E+03  0.19944326270E+03  0.12502066826E+03 0.  0.
          2    1    1    2  501    0  0.54246699199E+02 -0.28256116688E+01 -0.52566500432E+02  0.75590511461E+02  0.00000000000E+00 0. -1.
          1    1    1    2  502    0 -0.82180732726E+01  0.25093534699E+02  0.57137579599E+02  0.62943825865E+02  0.00000000000E+00 0. -1.
         22    1    3    3    0    0 -0.10519419523E+02 -0.72120017051E+02  0.91637323398E+02  0.11708695096E+03  0.00000000000E+00 0. -1.
         22    1    3    3    0    0 -0.35509206404E+02  0.49852094020E+02  0.55103784496E+02  0.82356311740E+02  0.00000000000E+00 0. -1.
</event>
<event>
 7    1  0.8792454E-005  0.7418593E+03  0.7818608E-02  0.1137519E+00
          2   -1    0    0  502    0  0.00000000000E+00  0.00000000000E+00  0.17677996425E+04  0.17677996425E+04  0.00000000000E+00 0. -1.
          1   -1    0    0  501    0 -0.00000000000E+00 -0.00000000000E+00 -0.18723915150E+04  0.18723915150E+04  0.00000000000E+00 0. -1.
         25    2    1    2    0    0 -0.25771323795E+03  0.65083142160E+03  0.18949485419E+02  0.71132406336E+03  0.12500075102E+03 0.  0.
          2    1    1    2  501    0  0.24449734753E+03 -0.71183755442E+03 -0.14326210884E+04  0.16182999845E+04  0.00000000000E+00 0. -1.
          1    1    1    2  502    0  0.13215890422E+02  0.61006132815E+02  0.13090797305E+04  0.13105671097E+04  0.00000000000E+00 0. -1.
         22    1    3    3    0    0 -0.80558152831E+02  0.34507031064E+03  0.43959824522E+02  0.35706526216E+03  0.00000000000E+00 0.  1.
         22    1    3    3    0    0 -0.17715508512E+03  0.30576111096E+03 -0.25010339103E+02  0.35425880120E+03  0.00000000000E+00 0.  1.
</event>
<event>
 7    1  0.8792454E-005  0.9789118E+02  0.7818608E-02  0.1335434E+00
          2   -1    0    0  502    0  0.00000000000E+00  0.00000000000E+00  0.23195650729E+04  0.23195650729E+04  0.00000000000E+00 0. -1.
          1   -1    0    0  501    0 -0.00000000000E+00 -0.00000000000E+00 -0.15494732818E+03  0.15494732818E+03  0.00000000000E+00 0. -1.
         25    2    1    2    0    0 -0.36483685140E+02  0.14886633654E+03 -0.86725692514E+02  0.21596500792E+03  0.12500917352E+03 0.  0.
          2    1    1    2  501    0 -0.66166833100E+01 -0.61465810462E+02  0.41076820461E+03  0.41539420347E+03  0.00000000000E+00 0. -1.
          1    1    1    2  502    0  0.43100368450E+02 -0.87400526082E+02  0.18405752326E+04  0.18431531897E+04  0.00000000000E+00 0. -1.
         22    1    3    3    0    0  0.44971321302E+02  0.75714945368E+02 -0.43985504616E+02  0.98437276009E+02  0.00000000000E+00 0.  1.
         22    1    3    3    0    0 -0.81455006441E+02  0.73151391176E+02 -0.42740187898E+02  0.11752773191E+03  0.00000000000E+00 0.  1.
</event>
<event>
 7    1  0.8792454E-005  0.5229222E+02  0.7818608E-02  0.1443255E+00
          2   -1    0    0  502    0  0.00000000000E+00  0.00000000000E+00  0.76477052863E+02  0.76477052863E+02  0.00000000000E+00 0. -1.
          1   -1    0    0  501    0 -0.00000000000E+00 -0.00000000000E+00 -0.17202993901E+04  0.17202993901E+04  0.00000000000E+00 0. -1.
         25    2    1    2    0    0  0.79470417429E+02 -0.60322039133E+02 -0.91779328190E+03  0.93162398504E+03  0.12499778222E+03 0.  0.
          2    1    1    2  501    0 -0.35178287574E+02  0.33467414843E+02 -0.78509325527E+03  0.78659328706E+03  0.00000000000E+00 0. -1.
          1    1    1    2  502    0 -0.44292129855E+02  0.26854624290E+02  0.59064199932E+02  0.78559170862E+02  0.00000000000E+00 0. -1.
         22    1    3    3    0    0  0.12072090040E+02 -0.16239075536E+02 -0.68490849979E+03  0.68520733797E+03  0.00000000000E+00 0.  1.
         22    1    3    3    0    0  0.67398327390E+02 -0.44082963597E+02 -0.23288478211E+03  0.24641664707E+03  0.00000000000E+00 0.  1.
</event>
<event>
 7    1  0.8792454E-005  0.4491550E+03  0.7818608E-02  0.1160967E+00
          2   -1    0    0  502    0  0.00000000000E+00  0.00000000000E+00  0.11536672288E+04  0.11536672288E+04  0.00000000000E+00 0. -1.
          1   -1    0    0  501    0 -0.00000000000E+00 -0.00000000000E+00 -0.10278503735E+04  0.10278503735E+04  0.00000000000E+00 0. -1.
         25    2    1    2    0    0  0.13778052830E+03 -0.43562471772E+03 -0.22740809628E+03  0.52544469999E+03  0.12500128730E+03 0.  0.
          2    1    1    2  501    0 -0.60104452676E+02  0.44337307822E+03 -0.57275883796E+03  0.72680459422E+03  0.00000000000E+00 0. -1.
          1    1    1    2  502    0 -0.77676075627E+02 -0.77483604996E+01  0.92598378957E+03  0.92926830806E+03  0.00000000000E+00 0. -1.
         22    1    3    3    0    0  0.26892522044E+02 -0.56263783258E+02  0.11787704179E+02  0.63464722628E+02  0.00000000000E+00 0.  1.
         22    1    3    3    0    0  0.11088800626E+03 -0.37936093446E+03 -0.23919580046E+03  0.46197997736E+03  0.00000000000E+00 0.  1.
</event>
<event>
 7    1  0.8792454E-005  0.1391621E+03  0.7818608E-02  0.1262650E+00
          2   -1    0    0  502    0  0.00000000000E+00  0.00000000000E+00  0.64652851731E+03  0.64652851731E+03  0.00000000000E+00 0. -1.
          1   -1    0    0  501    0 -0.00000000000E+00 -0.00000000000E+00 -0.43448712721E+03  0.43448712721E+03  0.00000000000E+00 0. -1.
         25    2    1    2    0    0  0.28976028947E+02 -0.12291228794E+03  0.19302167713E+03  0.26235392587E+03  0.12500069518E+03 0.  0.
          2    1    1    2  501    0  0.82523263661E+02  0.21166359837E+02 -0.38136699741E+03  0.39076705407E+03  0.00000000000E+00 0. -1.
          1    1    1    2  502    0 -0.11149929261E+03  0.10174592810E+03  0.40038671037E+03  0.42789466458E+03  0.00000000000E+00 0. -1.
         22    1    3    3    0    0  0.42950919054E+02 -0.38599401108E+01  0.10537937924E+03  0.11386173262E+03  0.00000000000E+00 0. -1.
         22    1    3    3    0    0 -0.13974890106E+02 -0.11905234783E+03  0.87642297888E+02  0.14849219325E+03  0.00000000000E+00 0. -1.
</event>
<event>
 7    1  0.8814929E-005  0.2042001E+03  0.7818608E-02  0.1204073E+00
          2   -1    0    0  502    0  0.00000000000E+00  0.00000000000E+00  0.14619949268E+04  0.14619949268E+04  0.00000000000E+00 0. -1.
          1   -1    0    0  501    0 -0.00000000000E+00 -0.00000000000E+00 -0.14302975420E+04  0.14302975420E+04  0.00000000000E+00 0. -1.
         25    2    1    2    0    0 -0.16662408227E+03  0.28161701073E+02 -0.44984410863E+03  0.49652929266E+03  0.12499980083E+03 0.  0.
          2    1    1    2  501    0  0.10960575954E+02  0.10540937859E+03 -0.94682844776E+03  0.95274098307E+03  0.00000000000E+00 0. -1.
          1    1    1    2  502    0  0.15566350632E+03 -0.13357107967E+03  0.14283699412E+04  0.14430221930E+04  0.00000000000E+00 0. -1.
         22    1    3    3    0    0 -0.16046458894E+03 -0.87758427266E+01 -0.41634937536E+03  0.44628768982E+03  0.00000000000E+00 0.  1.
         22    1    3    3    0    0 -0.61594933306E+01  0.36937543800E+02 -0.33494733268E+02  0.50241602848E+02  0.00000000000E+00 0.  1.
</event>
<event>
 7    1  0.8792454E-005  0.1648244E+03  0.7818608E-02  0.1264055E+00
          2   -1    0    0  502    0  0.00000000000E+00  0.00000000000E+00  0.68949740018E+02  0.68949740018E+02  0.00000000000E+00 0. -1.
          1   -1    0    0  501    0 -0.00000000000E+00 -0.00000000000E+00 -0.97653326967E+03  0.97653326967E+03  0.00000000000E+00 0. -1.
         25    2    1    2    0    0 -0.11046720756E+03  0.15065144771E+03 -0.22937918032E+03  0.32115207911E+03  0.12499994762E+03 0.  0.
          2    1    1    2  501    0  0.39818034206E+02 -0.15716392394E+03 -0.58585137202E+03  0.60787153654E+03  0.00000000000E+00 0. -1.
          1    1    1    2  502    0  0.70649173358E+02  0.65124762345E+01 -0.92352977316E+02  0.11645939405E+03  0.00000000000E+00 0. -1.
         22    1    3    3    0    0 -0.12026340759E+03  0.69467940305E+02 -0.11370662680E+03  0.17949450943E+03  0.00000000000E+00 0.  1.
         22    1    3    3    0    0  0.97962000283E+01  0.81183507405E+02 -0.11567255352E+03  0.14165756968E+03  0.00000000000E+00 0.  1.
</event>
<event>
 7    1  0.8792454E-005  0.2363306E+03  0.7818608E-02  0.1248695E+00
          2   -1    0    0  502    0  0.00000000000E+00  0.00000000000E+00  0.75531891265E+03  0.75531891265E+03  0.00000000000E+00 0. -1.
          1   -1    0    0  501    0 -0.00000000000E+00 -0.00000000000E+00 -0.17921931761E+03  0.17921931761E+03  0.00000000000E+00 0. -1.
         25    2    1    2    0    0  0.23294086726E+03 -0.16312240443E+03  0.54607933621E+02  0.31539437795E+03  0.12498488212E+03 0.  0.
          2    1    1    2  501    0 -0.42145680196E+02  0.39256330205E+02  0.88149052959E+01  0.58266803376E+02  0.00000000000E+00 0. -1.
          1    1    1    2  502    0 -0.19079518707E+03  0.12386607423E+03  0.51267675613E+03  0.56087704894E+03  0.00000000000E+00 0. -1.
         22    1    3    3    0    0  0.35373988112E+02  0.95247537728E+01  0.37561237236E+02  0.52467957003E+02  0.00000000000E+00 0.  1.
         22    1    3    3    0    0  0.19756687915E+03 -0.17264715820E+03  0.17046696385E+02  0.26292642094E+03  0.00000000000E+00 0.  1.
</event>
<event>
 7    1  0.8792454E-005  0.2884616E+03  0.7818608E-02  0.1258782E+00
          2   -1    0    0  502    0  0.00000000000E+00  0.00000000000E+00  0.95024292864E+03  0.95024292864E+03  0.00000000000E+00 0. -1.
          1   -1    0    0  501    0 -0.00000000000E+00 -0.00000000000E+00 -0.14630305715E+03  0.14630305715E+03  0.00000000000E+00 0. -1.
         25    2    1    2    0    0  0.10345117875E+03  0.25818837016E+03  0.34192127135E+03  0.45815072064E+03  0.12501418379E+03 0.  0.
          2    1    1    2  501    0 -0.72032606242E+02 -0.28709073747E+03  0.16609321669E+03  0.33940645918E+03  0.00000000000E+00 0. -1.
          1    1    1    2  502    0 -0.31418572503E+02  0.28902367303E+02  0.29592538344E+03  0.29898880597E+03  0.00000000000E+00 0. -1.
         22    1    3    3    0    0  0.46843323324E+01  0.63014402179E+02  0.16542895117E+03  0.17708612519E+03  0.00000000000E+00 0. -1.
         22    1    3    3    0    0  0.98766846413E+02  0.19517396799E+03  0.17649232018E+03  0.28106459545E+03  0.00000000000E+00 0. -1.
</event>
<event>
 7    1  0.8792454E-005  0.1211981E+03  0.7818608E-02  0.1284340E+00
          2   -1    0    0  502    0  0.00000000000E+00  0.00000000000E+00  0.92684101408E+03  0.92684101408E+03  0.00000000000E+00 0. -1.
          1   -1    0    0  501    0 -0.00000000000E+00 -0.00000000000E+00 -0.23374910071E+03  0.23374910071E+03  0.00000000000E+00 0. -1.
         25    2    1    2    0    0 -0.14240269345E+03  0.47055657869E+02 -0.24437490479E+01  0.19525121075E+03  0.12499720538E+03 0.  0.
          2    1    1    2  501    0  0.24905196457E+02 -0.75399283160E+02 -0.11835384681E+03  0.14252352005E+03  0.00000000000E+00 0. -1.
          1    1    1    2  502    0  0.11749749699E+03  0.28343625291E+02  0.81388950924E+03  0.82281538399E+03  0.00000000000E+00 0. -1.
         22    1    3    3    0    0 -0.13804997193E+03  0.38230392200E+02 -0.46114475679E+02  0.15048555580E+03  0.00000000000E+00 0. -1.
         22    1    3    3    0    0 -0.43527215198E+01  0.88252656687E+01  0.43670726631E+02  0.44765654952E+02  0.00000000000E+00 0. -1.
</event>
<event>
 7    1  0.8792454E-005  0.4437243E+03  0.7818608E-02  0.1160501E+00
          2   -1    0    0  502    0  0.00000000000E+00  0.00000000000E+00  0.34565785499E+03  0.34565785499E+03  0.00000000000E+00 0. -1.
          1   -1    0    0  501    0 -0.00000000000E+00 -0.00000000000E+00 -0.15782393522E+04  0.15782393522E+04  0.00000000000E+00 0. -1.
         25    2    1    2    0    0  0.22578003073E+03 -0.35904750782E+03 -0.35786628017E+03  0.56884538768E+03  0.12500026184E+03 0.  0.
          2    1    1    2  501    0  0.76980950892E+02  0.19639304946E+02 -0.89620876181E+03  0.89972324292E+03  0.00000000000E+00 0. -1.
          1    1    1    2  502    0 -0.30276098163E+03  0.33940820287E+03  0.21493544796E+02  0.45532857657E+03  0.00000000000E+00 0. -1.
         22    1    3    3    0    0  0.21441461391E+03 -0.36875325923E+03 -0.35095758426E+03  0.55238013976E+03  0.00000000000E+00 0. -1.
         22    1    3    3    0    0  0.11365416827E+02  0.97057514110E+01 -0.69086959060E+01  0.16465247925E+02  0.00000000000E+00 0. -1.
</event>
<event>
 7    1  0.8792454E-005  0.8998131E+02  0.7818608E-02  0.1349075E+00
          2   -1    0    0  502    0  0.00000000000E+00  0.00000000000E+00  0.86834375552E+03  0.86834375552E+03  0.00000000000E+00 0. -1.
          1   -1    0    0  501    0 -0.00000000000E+00 -0.00000000000E+00 -0.61911277340E+02  0.61911277340E+02  0.00000000000E+00 0. -1.
         25    2    1    2    0    0 -0.81532302171E+02  0.95570765343E+02  0.15388348725E+03  0.23470560106E+03  0.12500121613E+03 0.  0.
          2    1    1    2  501    0  0.10325357531E+01 -0.59775313528E+02  0.30169148306E+02  0.66965153229E+02  0.00000000000E+00 0. -1.
          1    1    1    2  502    0  0.80499766418E+02 -0.35795451814E+02  0.62237984262E+03  0.62858427857E+03  0.00000000000E+00 0. -1.
         22    1    3    3    0    0 -0.21370284722E+02  0.91057239193E+02  0.32256085896E+02  0.98937176814E+02  0.00000000000E+00 0. -1.
         22    1    3    3    0    0 -0.60162017449E+02  0.45135261498E+01  0.12162740136E+03  0.13576842425E+03  0.00000000000E+00 0. -1.
</event>
<event>
 7    1  0.8792454E-005  0.4318899E+02  0.7818608E-02  0.1578479E+00
          2   -1    0    0  502    0  0.00000000000E+00  0.00000000000E+00  0.51968681444E+03  0.51968681444E+03  0.00000000000E+00 0. -1.
          1   -1    0    0  501    0 -0.00000000000E+00 -0.00000000000E+00 -0.25023647881E+03  0.25023647881E+03  0.00000000000E+00 0. -1.
         25    2    1    2    0    0 -0.25973368920E+02  0.69231913621E+01  0.10938623901E+03  0.16826485425E+03  0.12500066168E+03 0.  0.
          2    1    1    2  501    0  0.31783983036E+02 -0.29683668958E+02 -0.21828788153E+03  0.22257794366E+03  0.00000000000E+00 0. -1.
          1    1    1    2  502    0 -0.58106141158E+01  0.22760477596E+02  0.37835197815E+03  0.37908049534E+03  0.00000000000E+00 0. -1.
         22    1    3    3    0    0  0.15712205306E+02  0.25565609204E+02  0.11803416690E+03  0.12178890888E+03  0.00000000000E+00 0. -1.
         22    1    3    3    0    0 -0.41685574226E+02 -0.18642417842E+02 -0.86479278927E+01  0.46475945374E+02  0.00000000000E+00 0. -1.
</event>
<event>
 7    1  0.8792454E-005  0.9108199E+02  0.7818608E-02  0.1440845E+00
          2   -1    0    0  502    0  0.00000000000E+00  0.00000000000E+00  0.58046554326E+03  0.58046554326E+03  0.00000000000E+00 0. -1.
          1   -1    0    0  501    0 -0.00000000000E+00 -0.00000000000E+00 -0.39819552255E+02  0.39819552255E+02  0.00000000000E+00 0. -1.
         25    2    1    2    0    0  0.10912398563E+03 -0.22521322084E+01  0.19767344522E+03  0.25809556824E+03  0.12500166023E+03 0.  0.
          2    1    1    2  501    0 -0.22963916685E+02  0.16678460100E+02  0.68398762271E+02  0.74053380618E+02  0.00000000000E+00 0. -1.
          1    1    1    2  502    0 -0.86160068947E+02 -0.14426327891E+02  0.27457378351E+03  0.28813614665E+03  0.00000000000E+00 0. -1.
         22    1    3    3    0    0  0.11425818225E+03  0.67063188234E-01  0.21303074512E+03  0.24173753344E+03  0.00000000000E+00 0. -1.
         22    1    3    3    0    0 -0.51341966135E+01 -0.23191953967E+01 -0.15357299901E+02  0.16358034797E+02  0.00000000000E+00 0. -1.
</event>
<event>
 7    1  0.8792454E-005  0.2183519E+03  0.7818608E-02  0.1251086E+00
          2   -1    0    0  502    0  0.00000000000E+00  0.00000000000E+00  0.26601967449E+03  0.26601967449E+03  0.00000000000E+00 0. -1.
          1   -1    0    0  501    0 -0.00000000000E+00 -0.00000000000E+00 -0.34964509902E+04  0.34964509902E+04  0.00000000000E+00 0. -1.
         25    2    1    2    0    0 -0.26838699297E+03  0.23800455627E+02 -0.24860148115E+03  0.38734589151E+03  0.12504440634E+03 0.  0.
          2    1    1    2  501    0  0.59192701628E+02 -0.14178336599E+02 -0.31223433590E+04  0.31229365751E+04  0.00000000000E+00 0. -1.
          1    1    1    2  502    0  0.20919429134E+03 -0.96221190287E+01  0.14051352438E+03  0.25218819805E+03  0.00000000000E+00 0. -1.
         22    1    3    3    0    0 -0.19728996108E+02  0.37974234703E+02 -0.13561672293E+02  0.44890920509E+02  0.00000000000E+00 0.  1.
         22    1    3    3    0    0 -0.24865799686E+03 -0.14173779076E+02 -0.23503980886E+03  0.34245497100E+03  0.00000000000E+00 0.  1.
</event>
<event>
 7    1  0.8792454E-005  0.2277298E+03  0.7818608E-02  0.1131144E+00
          2   -1    0    0  502    0  0.00000000000E+00  0.00000000000E+00  0.27816727271E+04  0.27816727271E+04  0.00000000000E+00 0. -1.
          1   -1    0    0  501    0 -0.00000000000E+00 -0.00000000000E+00 -0.58687414984E+03  0.58687414984E+03  0.00000000000E+00 0. -1.
         25    2    1    2    0    0  0.24398464125E+03  0.20407335423E+02 -0.25474231757E+03  0.37478225262E+03  0.12499249582E+03 0.  0.
          2    1    1    2  501    0 -0.12915696653E+03  0.17781012460E+03 -0.22202307132E+03  0.31239751377E+03  0.00000000000E+00 0. -1.
          1    1    1    2  502    0 -0.11482767472E+03 -0.19821746002E+03  0.26715639662E+04  0.26813671106E+04  0.00000000000E+00 0. -1.
         22    1    3    3    0    0  0.21120537556E+03 -0.27334732900E+02 -0.22452321885E+03  0.30946013328E+03  0.00000000000E+00 0. -1.
         22    1    3    3    0    0  0.32779265683E+02  0.47742068323E+02 -0.30219098723E+02  0.65322119333E+02  0.00000000000E+00 0. -1.
</event>
<event>
 7    1  0.8792454E-005  0.5001320E+03  0.7818608E-02  0.1253328E+00
          2   -1    0    0  502    0  0.00000000000E+00  0.00000000000E+00  0.78565732895E+03  0.78565732895E+03  0.00000000000E+00 0. -1.
          1   -1    0    0  501    0 -0.00000000000E+00 -0.00000000000E+00 -0.73724924817E+03  0.73724924817E+03  0.00000000000E+00 0. -1.
         25    2    1    2    0    0 -0.73855823022E+02  0.47571988795E+03  0.49724885018E+03  0.70331031601E+03  0.12499954882E+03 0.  0.
          2    1    1    2  501    0  0.62987224957E+02 -0.49932540050E+03 -0.53207983405E+03  0.73239483606E+03  0.00000000000E+00 0. -1.
          1    1    1    2  502    0  0.10868598065E+02  0.23605512544E+02  0.83239064645E+02  0.87201425041E+02  0.00000000000E+00 0. -1.
         22    1    3    3    0    0  0.17313294306E+02  0.55161564407E+02  0.21170021284E+02  0.61568808244E+02  0.00000000000E+00 0.  1.
         22    1    3    3    0    0 -0.91169117327E+02  0.42055832355E+03  0.47607882890E+03  0.64174150776E+03  0.00000000000E+00 0.  1.
</event>
<event>
 7    1  0.8792454E-005  0.1362822E+03  0.7818608E-02  0.1257404E+00
          2   -1    0    0  502    0  0.00000000000E+00  0.00000000000E+00  0.37110324852E+03  0.37110324852E+03  0.00000000000E+00 0. -1.
          1   -1    0    0  501    0 -0.00000000000E+00 -0.00000000000E+00 -0.22032835523E+03  0.22032835523E+03  0.00000000000E+00 0. -1.
         25    2    1    2    0    0 -0.31462468066E+02  0.13404400765E+03  0.13545583171E+03  0.23006870995E+03  0.12500258426E+03 0.  0.
          2    1    1    2  501    0 -0.59865554601E+02 -0.12702880921E+03 -0.12883161643E+03  0.19057226553E+03  0.00000000000E+00 0. -1.
          1    1    1    2  502    0  0.91328022667E+02 -0.70151984422E+01  0.14415067801E+03  0.17079062827E+03  0.00000000000E+00 0. -1.
         22    1    3    3    0    0  0.40959547444E+02  0.35659179878E+02  0.10493860096E+02  0.55311687157E+02  0.00000000000E+00 0.  1.
         22    1    3    3    0    0 -0.72422015511E+02  0.98384827775E+02  0.12496197161E+03  0.17475702280E+03  0.00000000000E+00 0.  1.
</event>
<event>
 7    1  0.8792454E-005  0.4081419E+03  0.7818608E-02  0.1042567E+00
          2   -1    0    0  502    0  0.00000000000E+00  0.00000000000E+00  0.19394884333E+04  0.19394884333E+04  0.00000000000E+00 0. -1.
          1   -1    0    0  501    0 -0.00000000000E+00 -0.00000000000E+00 -0.10184570931E+04  0.10184570931E+04  0.00000000000E+00 0. -1.
         25    2    1    2    0    0  0.15625900666E+03 -0.11443902439E+03 -0.30845452333E+03  0.38507410964E+03  0.12499883794E+03 0.  0.
          2    1    1    2  501    0 -0.25562383889E+03 -0.30630116225E+03 -0.58472603048E+03  0.70786190724E+03  0.00000000000E+00 0. -1.
          1    1    1    2  502    0  0.99364832231E+02  0.42074018664E+03  0.18142118939E+04  0.18650095095E+04  0.00000000000E+00 0. -1.
         22    1    3    3    0    0  0.17337898665E+03 -0.10931478063E+03 -0.24643404334E+03  0.32053039168E+03  0.00000000000E+00 0. -1.
         22    1    3    3    0    0 -0.17119979993E+02 -0.51242437593E+01 -0.62020479991E+02  0.64543717954E+02  0.00000000000E+00 0. -1.
</event>
<event>
 7    1  0.8792454E-005  0.8202428E+02  0.7818608E-02  0.1369321E+00
          2   -1    0    0  502    0  0.00000000000E+00  0.00000000000E+00  0.10209399616E+04  0.10209399616E+04  0.00000000000E+00 0. -1.
          1   -1    0    0  501    0 -0.00000000000E+00 -0.00000000000E+00 -0.52880344826E+03  0.52880344826E+03  0.00000000000E+00 0. -1.
         25    2    1    2    0    0 -0.48499995020E+02 -0.26518828662E+02  0.40946874962E+03  0.43167635832E+03  0.12499729450E+03 0.  0.
          2    1    1    2  501    0  0.37407621385E+01 -0.55184901094E+02 -0.51258887835E+03  0.51556447203E+03  0.00000000000E+00 0. -1.
          1    1    1    2  502    0  0.44759232882E+02  0.81703729756E+02  0.59525664203E+03  0.60250257947E+03  0.00000000000E+00 0. -1.
         22    1    3    3    0    0  0.22039138167E+02 -0.31629880246E+02  0.29219667782E+03  0.29472881004E+03  0.00000000000E+00 0.  1.
         22    1    3    3    0    0 -0.70539133187E+02  0.51110515842E+01  0.11727207179E+03  0.13694754829E+03  0.00000000000E+00 0.  1.
</event>
<event>
 7    1  0.8792454E-005  0.1073354E+03  0.7818608E-02  0.1310031E+00
          2   -1    0    0  502    0  0.00000000000E+00  0.00000000000E+00  0.65700243087E+02  0.65700243087E+02  0.00000000000E+00 0. -1.
          1   -1    0    0  501    0 -0.00000000000E+00 -0.00000000000E+00 -0.26605573520E+04  0.26605573520E+04  0.00000000000E+00 0. -1.
         25    2    1    2    0    0  0.14116911883E+03 -0.66185953267E+02 -0.27549113625E+03  0.34033775503E+03  0.12500048331E+03 0.  0.
          2    1    1    2  501    0 -0.71511612300E+02  0.78158724786E+02 -0.23124810608E+04  0.23149063379E+04  0.00000000000E+00 0. -1.
          1    1    1    2  502    0 -0.69657506529E+02 -0.11972771520E+02 -0.68849118999E+01  0.71013502136E+02  0.00000000000E+00 0. -1.
         22    1    3    3    0    0  0.15488475215E+03 -0.62901704344E+02 -0.27949796524E+03  0.32567625556E+03  0.00000000000E+00 0.  1.
         22    1    3    3    0    0 -0.13715633320E+02 -0.32842489227E+01  0.40068289922E+01  0.14661499477E+02  0.00000000000E+00 0.  1.
</event>
<event>
 7    1  0.8792454E-005  0.1294353E+04  0.7818608E-02  0.1131814E+00
          2   -1    0    0  502    0  0.00000000000E+00  0.00000000000E+00  0.33843483269E+04  0.33843483269E+04  0.00000000000E+00 0. -1.
          1   -1    0    0  501    0 -0.00000000000E+00 -0.00000000000E+00 -0.23676896839E+04  0.23676896839E+04  0.00000000000E+00 0. -1.
         25    2    1    2    0    0  0.56433756782E+03 -0.11549498219E+04  0.14902237551E+04  0.19719968370E+04  0.12497481011E+03 0.  0.
          2    1    1    2  501    0  0.38320311843E+02 -0.15249269850E+01 -0.18694092855E+04  0.18698026229E+04  0.00000000000E+00 0. -1.
          1    1    1    2  502    0 -0.60265787966E+03  0.11564747489E+04  0.13958441735E+04  0.19102385509E+04  0.00000000000E+00 0. -1.
         22    1    3    3    0    0  0.64345439602E+02 -0.74544500383E+02  0.83288472595E+02  0.12897359343E+03  0.00000000000E+00 0. -1.
         22    1    3    3    0    0  0.49999212821E+03 -0.10804053215E+04  0.14069352825E+04  0.18430232435E+04  0.00000000000E+00 0. -1.
</event>
<event>
 7    1  0.8792454E-005  0.2558818E+03  0.7818608E-02  0.1182208E+00
          2   -1    0    0  502    0  0.00000000000E+00  0.00000000000E+00  0.15044061569E+04  0.15044061569E+04  0.00000000000E+00 0. -1.
          1   -1    0    0  501    0 -0.00000000000E+00 -0.00000000000E+00 -0.28309057995E+03  0.28309057995E+03  0.00000000000E+00 0. -1.
         25    2    1    2    0    0  0.10978828259E+03  0.24559382009E+03 -0.52892998600E+02  0.30131733558E+03  0.12499870384E+03 0.  0.
          2    1    1    2  501    0  0.79403620284E+02 -0.72527401040E+02 -0.62982178390E+02  0.12462709822E+03  0.00000000000E+00 0. -1.
          1    1    1    2  502    0 -0.18919190288E+03 -0.17306641905E+03  0.13371907540E+04  0.13615523031E+04  0.00000000000E+00 0. -1.
         22    1    3    3    0    0  0.10163087532E+03  0.17888557558E+03 -0.89982670248E+02  0.22455681889E+03  0.00000000000E+00 0.  1.
         22    1    3    3    0    0  0.81574072786E+01  0.66708244514E+02  0.37089671648E+02  0.76760516691E+02  0.00000000000E+00 0.  1.
</event>
<event>
 7    1  0.8792454E-005  0.3606135E+03  0.7818608E-02  0.1150478E+00
          2   -1    0    0  502    0  0.00000000000E+00  0.00000000000E+00  0.12584699369E+04  0.12584699369E+04  0.00000000000E+00 0. -1.
          1   -1    0    0  501    0 -0.00000000000E+00 -0.00000000000E+00 -0.12353657309E+04  0.12353657309E+04  0.00000000000E+00 0. -1.
         25    2    1    2    0    0 -0.13801724502E+03  0.29949251493E+03 -0.42112388581E+03  0.54928466248E+03  0.12499514717E+03 0.  0.
          2    1    1    2  501    0 -0.10571907113E+03 -0.30226776122E+02 -0.71827004289E+03  0.72663748493E+03  0.00000000000E+00 0. -1.
          1    1    1    2  502    0  0.24373631615E+03 -0.26926573880E+03  0.11624981347E+04  0.12179135204E+04  0.00000000000E+00 0. -1.
         22    1    3    3    0    0 -0.13334354477E+03  0.27418831758E+03 -0.42521632646E+03  0.52322906907E+03  0.00000000000E+00 0. -1.
         22    1    3    3    0    0 -0.46737002476E+01  0.25304197341E+02  0.40924406566E+01  0.26055593403E+02  0.00000000000E+00 0. -1.
</event>
<event>
 7    1  0.8792454E-005  0.4896528E+03  0.7818608E-02  0.1042681E+00
          2   -1    0    0  502    0  0.00000000000E+00  0.00000000000E+00  0.16613492701E+04  0.16613492701E+04  0.00000000000E+00 0. -1.
          1   -1    0    0  501    0 -0.00000000000E+00 -0.00000000000E+00 -0.48933196798E+03  0.48933196798E+03  0.00000000000E+00 0. -1.
         25    2    1    2    0    0  0.32333913191E+01 -0.40879622978E+03  0.48250970696E+03  0.64464359728E+03  0.12499975160E+03 0.  0.
          2    1    1    2  501    0 -0.33481704542E+03  0.42526912259E+03 -0.18391440166E+03  0.57164743301E+03  0.00000000000E+00 0. -1.
          1    1    1    2  502    0  0.33158365410E+03 -0.16472892807E+02  0.87342199682E+03  0.93439020778E+03  0.00000000000E+00 0. -1.
         22    1    3    3    0    0 -0.33947400161E+02 -0.85955242528E+02  0.54665864981E+02  0.10737358376E+03  0.00000000000E+00 0.  1.
         22    1    3    3    0    0  0.37180791480E+02 -0.32284098725E+03  0.42784384198E+03  0.53727001352E+03  0.00000000000E+00 0.  1.
</event>
<event>
 7    1  0.8792454E-005  0.5006942E+03  0.7818608E-02  0.1021372E+00
          2   -1    0    0  502    0  0.00000000000E+00  0.00000000000E+00  0.41073072192E+04  0.41073072192E+04  0.00000000000E+00 0. -1.
          1   -1    0    0  501    0 -0.00000000000E+00 -0.00000000000E+00 -0.24679946608E+03  0.24679946608E+03  0.00000000000E+00 0. -1.
         25    2    1    2    0    0 -0.31963953923E+03  0.44782902777E+03  0.87415227453E+03  0.10404266818E+04  0.12500083178E+03 0.  0.
          2    1    1    2  501    0  0.53663086300E+03 -0.59491130967E+02  0.35772120036E+03  0.64766992749E+03  0.00000000000E+00 0. -1.
          1    1    1    2  502    0 -0.21699132377E+03 -0.38833789680E+03  0.26286342782E+04  0.26660100760E+04  0.00000000000E+00 0. -1.
         22    1    3    3    0    0 -0.90246183699E+02  0.22473924762E+03  0.33309819855E+03  0.41183311300E+03  0.00000000000E+00 0.  1.
         22    1    3    3    0    0 -0.22939335554E+03  0.22308978015E+03  0.54105407599E+03  0.62859356878E+03  0.00000000000E+00 0.  1.
</event>
<event>
 7    1  0.8792454E-005  0.8372059E+02  0.7818608E-02  0.1326070E+00
          2   -1    0    0  502    0  0.00000000000E+00  0.00000000000E+00  0.28364063887E+03  0.28364063887E+03  0.00000000000E+00 0. -1.
          1   -1    0    0  501    0 -0.00000000000E+00 -0.00000000000E+00 -0.37153515769E+03  0.37153515769E+03  0.00000000000E+00 0. -1.
         25    2    1    2    0    0 -0.31488208707E+02 -0.90895756506E+02 -0.52312827362E+02  0.16617942122E+03  0.12500168915E+03 0.  0.
          2    1    1    2  501    0  0.80804549407E+02  0.29841350302E+02 -0.24800482853E+03  0.26253814269E+03  0.00000000000E+00 0. -1.
          1    1    1    2  502    0 -0.49316340700E+02  0.61054406204E+02  0.21242313707E+03  0.22645823266E+03  0.00000000000E+00 0. -1.
         22    1    3    3    0    0 -0.59679873014E+02 -0.37347246030E+02  0.18734395695E+02  0.72852464688E+02  0.00000000000E+00 0. -1.
         22    1    3    3    0    0  0.28191664307E+02 -0.53548510476E+02 -0.71047223057E+02  0.93326956528E+02  0.00000000000E+00 0. -1.
</event>
<event>
 7    1  0.8792454E-005  0.1157973E+03  0.7818608E-02  0.1284782E+00
          2   -1    0    0  502    0  0.00000000000E+00  0.00000000000E+00  0.52423175633E+03  0.52423175633E+03  0.00000000000E+00 0. -1.
          1   -1    0    0  501    0 -0.00000000000E+00 -0.00000000000E+00 -0.27359412674E+03  0.27359412674E+03  0.00000000000E+00 0. -1.
         25    2    1    2    0    0  0.23779391996E+02  0.37476450991E+02 -0.22340609659E+03  0.25981765535E+03  0.12499994470E+03 0.  0.
          2    1    1    2  501    0 -0.18101955316E+02  0.80759551103E+02  0.47675137642E+02  0.95512850600E+02  0.00000000000E+00 0. -1.
          1    1    1    2  502    0 -0.56774366794E+01 -0.11823600209E+03  0.42636858854E+03  0.44249537712E+03  0.00000000000E+00 0. -1.
         22    1    3    3    0    0 -0.26783985595E+02  0.67796548429E+02 -0.10926441703E+03  0.13134864557E+03  0.00000000000E+00 0. -1.
         22    1    3    3    0    0  0.50563377591E+02 -0.30320097438E+02 -0.11414167956E+03  0.12846900978E+03  0.00000000000E+00 0. -1.
</event>
<event>
 7    1  0.8792454E-005  0.2294896E+03  0.7818608E-02  0.1143125E+00
          2   -1    0    0  502    0  0.00000000000E+00  0.00000000000E+00  0.44218351447E+03  0.44218351447E+03  0.00000000000E+00 0. -1.
          1   -1    0    0  501    0 -0.00000000000E+00 -0.00000000000E+00 -0.79690081177E+03  0.79690081177E+03  0.00000000000E+00 0. -1.
         25    2    1    2    0    0  0.19305589639E+03 -0.69841527534E+01 -0.19887871365E+03  0.30413420673E+03  0.12500206176E+03 0.  0.
          2    1    1    2  501    0 -0.20084221454E+03  0.19542453790E+03 -0.48237218543E+03  0.55786312876E+03  0.00000000000E+00 0. -1.
          1    1    1    2  502    0  0.77863181519E+01 -0.18844038514E+03  0.32653360178E+03  0.37708699075E+03  0.00000000000E+00 0. -1.
         22    1    3    3    0    0  0.68554750988E+01 -0.34437387478E+02 -0.78859493385E+01  0.35987767257E+02  0.00000000000E+00 0. -1.
         22    1    3    3    0    0  0.18620042129E+03  0.27453234725E+02 -0.19099276431E+03  0.26814643948E+03  0.00000000000E+00 0. -1.
</event>
<event>
 7    1  0.8792454E-005  0.1932913E+03  0.7818608E-02  0.1332181E+00
          2   -1    0    0  502    0  0.00000000000E+00  0.00000000000E+00  0.12266478012E+03  0.12266478012E+03  0.00000000000E+00 0. -1.
          1   -1    0    0  501    0 -0.00000000000E+00 -0.00000000000E+00 -0.15191283640E+04  0.15191283640E+04  0.00000000000E+00 0. -1.
         25    2    1    2    0    0 -0.13017699109E+03  0.15326277061E+03 -0.83242422926E+03  0.86544217580E+03  0.12499814532E+03 0.  0.
          2    1    1    2  501    0  0.14197564433E+03 -0.12328907273E+03 -0.65415882550E+03  0.68064752113E+03  0.00000000000E+00 0. -1.
          1    1    1    2  502    0 -0.11798653245E+02 -0.29973697878E+02  0.90119470850E+02  0.95703447217E+02  0.00000000000E+00 0. -1.
         22    1    3    3    0    0 -0.12791814700E+03  0.16936777221E+03 -0.81228469220E+03  0.83955638035E+03  0.00000000000E+00 0. -1.
         22    1    3    3    0    0 -0.22588440887E+01 -0.16105001607E+02 -0.20139537058E+02  0.25885795454E+02  0.00000000000E+00 0. -1.
</event>
<event>
 7    1  0.8792454E-005  0.8093131E+02  0.7818608E-02  0.1464683E+00
          2   -1    0    0  502    0  0.00000000000E+00  0.00000000000E+00  0.30495617687E+03  0.30495617687E+03  0.00000000000E+00 0. -1.
          1   -1    0    0  501    0 -0.00000000000E+00 -0.00000000000E+00 -0.66234668804E+02  0.66234668804E+02  0.00000000000E+00 0. -1.
         25    2    1    2    0    0 -0.46916186899E+02 -0.81844433825E+02  0.22149936816E+03  0.27126707809E+03  0.12499687045E+03 0.  0.
          2    1    1    2  501    0  0.91753042687E+01  0.25196216501E+02 -0.69317833610E+01  0.27696302189E+02  0.00000000000E+00 0. -1.
          1    1    1    2  502    0  0.37740882630E+02  0.56648217324E+02  0.24153923276E+02  0.72227465395E+02  0.00000000000E+00 0. -1.
         22    1    3    3    0    0 -0.43166564154E+02  0.16860672180E+02  0.12442270647E+03  0.13277290541E+03  0.00000000000E+00 0. -1.
         22    1    3    3    0    0 -0.37496227453E+01 -0.98705106005E+02  0.97076661689E+02  0.13849417268E+03  0.00000000000E+00 0. -1.
</event>
<event>
 7    1  0.8792454E-005  0.1170151E+03  0.7818608E-02  0.1303744E+00
          2   -1    0    0  502    0  0.00000000000E+00  0.00000000000E+00  0.77992855141E+03  0.77992855141E+03  0.00000000000E+00 0. -1.
          1   -1    0    0  501    0 -0.00000000000E+00 -0.00000000000E+00 -0.63638001544E+03  0.63638001544E+03  0.00000000000E+00 0. -1.
         25    2    1    2    0    0  0.79191273732E+02 -0.40020837948E+02 -0.26355892922E+02  0.15554075018E+03  0.12500146627E+03 0.  0.
          2    1    1    2  501    0  0.39079597115E+02  0.56450353267E+02 -0.53825291997E+03  0.54261410150E+03  0.00000000000E+00 0. -1.
          1    1    1    2  502    0 -0.11827087085E+03 -0.16429515320E+02  0.70815734886E+03  0.71815371517E+03  0.00000000000E+00 0. -1.
         22    1    3    3    0    0 -0.65093055734E+01 -0.58062085731E+01 -0.57493124222E+02  0.58151031374E+02  0.00000000000E+00 0.  1.
         22    1    3    3    0    0  0.85700579305E+02 -0.34214629374E+02  0.31137231300E+02  0.97389718808E+02  0.00000000000E+00 0.  1.
</event>
<event>
 7    1  0.8792454E-005  0.4032990E+02  0.7818608E-02  0.1552656E+00
          2   -1    0    0  502    0  0.00000000000E+00  0.00000000000E+00  0.16268085562E+04  0.16268085562E+04  0.00000000000E+00 0. -1.
          1   -1    0    0  501    0 -0.00000000000E+00 -0.00000000000E+00 -0.32350736947E+02  0.32350736947E+02  0.00000000000E+00 0. -1.
         25    2    1    2    0    0  0.22659180173E+02 -0.24856339736E+02  0.30618851962E+03  0.33242672193E+03  0.12499935935E+03 0.  0.
          2    1    1    2  501    0 -0.41417085006E+02  0.19662976631E+01  0.34876815919E+01  0.41610157171E+02  0.00000000000E+00 0. -1.
          1    1    1    2  502    0  0.18757904834E+02  0.22890042073E+02  0.12847816181E+04  0.12851224141E+04  0.00000000000E+00 0. -1.
         22    1    3    3    0    0  0.79553558981E+01 -0.65474347206E+02  0.26374550838E+03  0.27186737763E+03  0.00000000000E+00 0. -1.
         22    1    3    3    0    0  0.14703824274E+02  0.40618007471E+02  0.42443011240E+02  0.60559344302E+02  0.00000000000E+00 0. -1.
</event>
<event>
 7    1  0.8792454E-005  0.4274060E+02  0.7818608E-02  0.1527030E+00
          2   -1    0    0  502    0  0.00000000000E+00  0.00000000000E+00  0.55810521630E+03  0.55810521630E+03  0.00000000000E+00 0. -1.
          1   -1    0    0  501    0 -0.00000000000E+00 -0.00000000000E+00 -0.37499811917E+03  0.37499811917E+03  0.00000000000E+00 0. -1.
         25    2    1    2    0    0  0.51931981485E+02  0.17902615434E+02 -0.10373551068E+03  0.17146915629E+03  0.12499272395E+03 0.  0.
          2    1    1    2  501    0 -0.27980668810E+02  0.17486698423E+02 -0.23537231397E+03  0.23767378617E+03  0.00000000000E+00 0. -1.
          1    1    1    2  502    0 -0.23951312675E+02 -0.35389313857E+02  0.52221492178E+03  0.52396039301E+03  0.00000000000E+00 0. -1.
         22    1    3    3    0    0  0.67908543089E+01 -0.50963528462E+02 -0.23608404387E+02  0.56575203873E+02  0.00000000000E+00 0.  1.
         22    1    3    3    0    0  0.45141127176E+02  0.68866143896E+02 -0.80127106295E+02  0.11489395241E+03  0.00000000000E+00 0.  1.
</event>
<event>
 7    1  0.8792454E-005  0.9612274E+02  0.7818608E-02  0.1479246E+00
          2   -1    0    0  502    0  0.00000000000E+00  0.00000000000E+00  0.76040698888E+02  0.76040698888E+02  0.00000000000E+00 0. -1.
          1   -1    0    0  501    0 -0.00000000000E+00 -0.00000000000E+00 -0.58186251938E+03  0.58186251938E+03  0.00000000000E+00 0. -1.
         25    2    1    2    0    0  0.31106469684E+02 -0.89876241829E+02 -0.26632417531E+02  0.15931203133E+03  0.12500274541E+03 0.  0.
          2    1    1    2  501    0  0.20323808288E+02  0.95712992241E+00 -0.21843755425E+02  0.29851682232E+02  0.00000000000E+00 0. -1.
          1    1    1    2  502    0 -0.51430277972E+02  0.88919111907E+02 -0.45734564754E+03  0.46873950471E+03  0.00000000000E+00 0. -1.
         22    1    3    3    0    0  0.58871609948E+02 -0.81725646741E+02 -0.58329708672E+02  0.11639288083E+03  0.00000000000E+00 0.  1.
         22    1    3    3    0    0 -0.27765140264E+02 -0.81505950884E+01  0.31697291141E+02  0.42919150502E+02  0.00000000000E+00 0.  1.
</event>
<event>
 7    1  0.8792454E-005  0.1155773E+03  0.7818608E-02  0.1334558E+00
          2   -1    0    0  502    0  0.00000000000E+00  0.00000000000E+00  0.75875624000E+03  0.75875624000E+03  0.00000000000E+00 0. -1.
          1   -1    0    0  501    0 -0.00000000000E+00 -0.00000000000E+00 -0.66944884233E+03  0.66944884233E+03  0.00000000000E+00 0. -1.
         25    2    1    2    0    0 -0.81954042983E+01 -0.13761208303E+03 -0.38982439838E+03  0.43195919029E+03  0.12498572100E+03 0.  0.
          2    1    1    2  501    0  0.44667013614E+02  0.28085711697E+02 -0.25128416229E+03  0.25676385946E+03  0.00000000000E+00 0. -1.
          1    1    1    2  502    0 -0.36471609316E+02  0.10952637133E+03  0.73041595834E+03  0.73948203258E+03  0.00000000000E+00 0. -1.
         22    1    3    3    0    0  0.46658088251E+02 -0.91031672037E+02 -0.14991247619E+03  0.18148689492E+03  0.00000000000E+00 0.  1.
         22    1    3    3    0    0 -0.54853492550E+02 -0.46580410992E+02 -0.23991192220E+03  0.25047229537E+03  0.00000000000E+00 0.  1.
</event>
<event>
 7    1  0.8792454E-005  0.4729454E+03  0.7818608E-02  0.1021850E+00
          2   -1    0    0  502    0  0.00000000000E+00  0.00000000000E+00  0.10184158623E+04  0.10184158623E+04  0.00000000000E+00 0. -1.
          1   -1    0    0  501    0 -0.00000000000E+00 -0.00000000000E+00 -0.16622613447E+04  0.16622613447E+04  0.00000000000E+00 0. -1.
         25    2    1    2    0    0  0.45976137230E+03 -0.16197579083E+02  0.66127801466E+03  0.81520327214E+03  0.12499952486E+03 0.  0.
          2    1    1    2  501    0  0.78889949115E+01 -0.47287955671E+03 -0.10330181035E+04  0.11361354292E+04  0.00000000000E+00 0. -1.
          1    1    1    2  502    0 -0.46765036721E+03  0.48907713579E+03 -0.27210539355E+03  0.72933850570E+03  0.00000000000E+00 0. -1.
         22    1    3    3    0    0  0.35743662438E+03 -0.64578039036E+02  0.51659123374E+03  0.63150436764E+03  0.00000000000E+00 0. -1.
         22    1    3    3    0    0  0.10232474792E+03  0.48380459953E+02  0.14468678092E+03  0.18369890450E+03  0.00000000000E+00 0. -1.
</event>
<event>
 7    1  0.8792454E-005  0.1014462E+03  0.7818608E-02  0.1288933E+00
          2   -1    0    0  502    0  0.00000000000E+00  0.00000000000E+00  0.46897467409E+03  0.46897467409E+03  0.00000000000E+00 0. -1.
          1   -1    0    0  501    0 -0.00000000000E+00 -0.00000000000E+00 -0.22741594312E+03  0.22741594312E+03  0.00000000000E+00 0. -1.
         25    2    1    2    0    0  0.16073980446E+03  0.66492327233E+02  0.13299240648E+03  0.25213356470E+03  0.12500335974E+03 0.  0.
          2    1    1    2  501    0 -0.90646571577E+02 -0.61066640581E+01 -0.14680488071E+03  0.17264346291E+03  0.00000000000E+00 0. -1.
          1    1    1    2  502    0 -0.70093232880E+02 -0.60385663175E+02  0.25537120520E+03  0.27161358961E+03  0.00000000000E+00 0. -1.
         22    1    3    3    0    0  0.53074785480E+02  0.87866606413E+02  0.80551603357E+02  0.13048384643E+03  0.00000000000E+00 0. -1.
         22    1    3    3    0    0  0.10766501898E+03 -0.21374279179E+02  0.52440803127E+02  0.12164971827E+03  0.00000000000E+00 0. -1.
</event>
<event>
 7    1  0.8792454E-005  0.1385008E+04  0.7818608E-02  0.1071039E+00
          2   -1    0    0  502    0  0.00000000000E+00  0.00000000000E+00  0.22650115761E+04  0.22650115761E+04  0.00000000000E+00 0. -1.
          1   -1    0    0  501    0 -0.00000000000E+00 -0.00000000000E+00 -0.16516318737E+04  0.16516318737E+04  0.00000000000E+00 0. -1.
         25    2    1    2    0    0  0.10124493535E+04 -0.93560522715E+03 -0.86106701896E+03  0.16301742903E+04  0.12498388441E+03 0.  0.
          2    1    1    2  501    0  0.57646094389E+02  0.53627126932E+02 -0.13852875317E+03  0.15933975146E+03  0.00000000000E+00 0. -1.
          1    1    1    2  502    0 -0.10700954479E+04  0.88197810021E+03  0.16129754746E+04  0.21271294080E+04  0.00000000000E+00 0. -1.
         22    1    3    3    0    0  0.10161740231E+03 -0.15040247795E+03 -0.10539151172E+03  0.20989133514E+03  0.00000000000E+00 0.  1.
         22    1    3    3    0    0  0.91083195116E+03 -0.78520274920E+03 -0.75567550724E+03  0.14202829552E+04  0.00000000000E+00 0.  1.
</event>
<event>
 7    1  0.8792454E-005  0.4747806E+03  0.7818608E-02  0.1113511E+00
          2   -1    0    0  502    0  0.00000000000E+00  0.00000000000E+00  0.91768578569E+03  0.91768578569E+03  0.00000000000E+00 0. -1.
          1   -1    0    0  501    0 -0.00000000000E+00 -0.00000000000E+00 -0.66815533066E+03  0.66815533066E+03  0.00000000000E+00 0. -1.
         25    2    1    2    0    0  0.39039902939E+03 -0.93587425676E+02  0.18526446371E+03  0.45947838819E+03  0.12500983684E+03 0.  0.
          2    1    1    2  501    0 -0.46127130348E+03  0.20411276010E+03 -0.40007788438E+03  0.64381328646E+03  0.00000000000E+00 0. -1.
          1    1    1    2  502    0  0.70872274091E+02 -0.11052533443E+03  0.46434387571E+03  0.48254944171E+03  0.00000000000E+00 0. -1.
         22    1    3    3    0    0  0.35762535224E+03 -0.59019256274E+02  0.12665803250E+03  0.38395497441E+03  0.00000000000E+00 0. -1.
         22    1    3    3    0    0  0.32773677145E+02 -0.34568169402E+02  0.58606431212E+02  0.75523413779E+02  0.00000000000E+00 0. -1.
</event>
<event>
 7    1  0.8792454E-005  0.2408274E+03  0.7818608E-02  0.1158730E+00
          2   -1    0    0  502    0  0.00000000000E+00  0.00000000000E+00  0.72128787262E+03  0.72128787262E+03  0.00000000000E+00 0. -1.
          1   -1    0    0  501    0 -0.00000000000E+00 -0.00000000000E+00 -0.13389626938E+04  0.13389626938E+04  0.00000000000E+00 0. -1.
         25    2    1    2    0    0  0.45591348637E+02  0.37115728936E+01 -0.20845430587E+03  0.24732596744E+03  0.12499835876E+03 0.  0.
          2    1    1    2  501    0 -0.39530915035E+02 -0.24446269027E+03 -0.10759258151E+04  0.11040566379E+04  0.00000000000E+00 0. -1.
          1    1    1    2  502    0 -0.60604336021E+01  0.24075111738E+03  0.66670529980E+03  0.70886796102E+03  0.00000000000E+00 0. -1.
         22    1    3    3    0    0  0.83183098084E+02 -0.23748718050E+02 -0.13856544475E+03  0.16335180407E+03  0.00000000000E+00 0.  1.
         22    1    3    3    0    0 -0.37591749446E+02  0.27460290944E+02 -0.69888861120E+02  0.83974163370E+02  0.00000000000E+00 0.  1.
</event>
<event>
 7    1  0.8792454E-005  0.2663555E+03  0.7818608E-02  0.1117272E+00
          2   -1    0    0  502    0  0.00000000000E+00  0.00000000000E+00  0.34120643770E+04  0.34120643770E+04  0.00000000000E+00 0. -1.
          1   -1    0    0  501    0 -0.00000000000E+00 -0.00000000000E+00 -0.74458471320E+03  0.74458471320E+03  0.00000000000E+00 0. -1.
         25    2    1    2    0    0  0.54251163893E+02 -0.21807193853E+03  0.29688956985E+03  0.39276264067E+03  0.12498206297E+03 0.  0.
          2    1    1    2  501    0  0.20090745686E+03  0.97226317928E+02 -0.67206627344E+03  0.70815947287E+03  0.00000000000E+00 0. -1.
          1    1    1    2  502    0 -0.25515862075E+03  0.12084562060E+03  0.30426563674E+04  0.30557269767E+04  0.00000000000E+00 0. -1.
         22    1    3    3    0    0 -0.14419498597E-01 -0.19281550755E+03  0.25506024293E+03  0.31973981248E+03  0.00000000000E+00 0. -1.
         22    1    3    3    0    0  0.54265583391E+02 -0.25256430975E+02  0.41829326912E+02  0.73022828186E+02  0.00000000000E+00 0. -1.
</event>
<event>
 7    1  0.8792454E-005  0.1984574E+03  0.7818608E-02  0.1190508E+00
          2   -1    0    0  502    0  0.00000000000E+00  0.00000000000E+00  0.61760334405E+03  0.61760334405E+03  0.00000000000E+00 0. -1.
          1   -1    0    0  501    0 -0.00000000000E+00 -0.00000000000E+00 -0.66479967659E+03  0.66479967659E+03  0.00000000000E+00 0. -1.
         25    2    1    2    0    0  0.33403082691E+01  0.19442424708E+03  0.50038367972E+03  0.55120558494E+03  0.12502729471E+03 0.  0.
          2    1    1    2  501    0 -0.12402075777E+03 -0.15670681278E+03 -0.56889538342E+03  0.60297606156E+03  0.00000000000E+00 0. -1.
          1    1    1    2  502    0  0.12068044950E+03 -0.37717434302E+02  0.21315371160E+02  0.12822137415E+03  0.00000000000E+00 0. -1.
         22    1    3    3    0    0  0.44602254000E+02  0.40974900926E+02  0.22754850755E+03  0.23547107435E+03  0.00000000000E+00 0. -1.
         22    1    3    3    0    0 -0.41261945731E+02  0.15344934615E+03  0.27283517217E+03  0.31573451058E+03  0.00000000000E+00 0. -1.
</event>
<event>
 7    1  0.8792454E-005  0.9488815E+02  0.7818608E-02  0.1378525E+00
          2   -1    0    0  502    0  0.00000000000E+00  0.00000000000E+00  0.29905961150E+03  0.29905961150E+03  0.00000000000E+00 0. -1.
          1   -1    0    0  501    0 -0.00000000000E+00 -0.00000000000E+00 -0.54090650538E+03  0.54090650538E+03  0.00000000000E+00 0. -1.
         25    2    1    2    0    0 -0.42168735046E+02 -0.11325876416E+03  0.31708811854E+02  0.17673502119E+03  0.12499627632E+03 0.  0.
          2    1    1    2  501    0  0.38728126739E+02  0.21560287955E+02 -0.45645555367E+03  0.45860264532E+03  0.00000000000E+00 0. -1.
          1    1    1    2  502    0  0.34406083069E+01  0.91698476202E+02  0.18289984794E+03  0.20462845036E+03  0.00000000000E+00 0. -1.
         22    1    3    3    0    0  0.43822313808E+02 -0.30077331879E+02  0.18901568131E+02  0.56411969991E+02  0.00000000000E+00 0.  1.
         22    1    3    3    0    0 -0.85991048854E+02 -0.83181432278E+02  0.12807243723E+02  0.12032305120E+03  0.00000000000E+00 0.  1.
</event>
<event>
 7    1  0.8792454E-005  0.6484143E+02  0.7818608E-02  0.1386089E+00
          2   -1    0    0  502    0  0.00000000000E+00  0.00000000000E+00  0.91436605717E+03  0.91436605717E+03  0.00000000000E+00 0. -1.
          1   -1    0    0  501    0 -0.00000000000E+00 -0.00000000000E+00 -0.18504042194E+03  0.18504042194E+03  0.00000000000E+00 0. -1.
         25    2    1    2    0    0 -0.16235909945E+02 -0.63932155036E+02  0.86372528686E+03  0.87520915338E+03  0.12497506067E+03 0.  0.
          2    1    1    2  501    0  0.61030089688E+02  0.22529921108E+02 -0.14803097621E+03  0.16169551358E+03  0.00000000000E+00 0. -1.
          1    1    1    2  502    0 -0.44794179743E+02  0.41402233928E+02  0.13631324588E+02  0.62501812159E+02  0.00000000000E+00 0. -1.
         22    1    3    3    0    0  0.14258752049E+01 -0.60367076246E+02  0.85102598712E+03  0.85316554534E+03  0.00000000000E+00 0.  1.
         22    1    3    3    0    0 -0.17661785150E+02 -0.35650787903E+01  0.12699299739E+02  0.22043608037E+02  0.00000000000E+00 0.  1.
</event>
<event>
 7    1  0.8792454E-005  0.2152765E+03  0.7818608E-02  0.1242322E+00
          2   -1    0    0  502    0  0.00000000000E+00  0.00000000000E+00  0.10644248878E+04  0.10644248878E+04  0.00000000000E+00 0. -1.
          1   -1    0    0  501    0 -0.00000000000E+00 -0.00000000000E+00 -0.17036814449E+03  0.17036814449E+03  0.00000000000E+00 0. -1.
         25    2    1    2    0    0 -0.18615979712E+03  0.18170984188E+03  0.40249762566E+03  0.49528308902E+03  0.12500825136E+03 0.  0.
          2    1    1    2  501    0  0.11998064010E+03 -0.16884921805E+03 -0.33771376149E+02  0.20987119450E+03  0.00000000000E+00 0. -1.
          1    1    1    2  502    0  0.66179157022E+02 -0.12860623829E+02  0.52533049383E+03  0.52963874879E+03  0.00000000000E+00 0. -1.
         22    1    3    3    0    0 -0.91060126336E+01  0.60993718815E+02  0.37931146156E+02  0.72401139836E+02  0.00000000000E+00 0. -1.
         22    1    3    3    0    0 -0.17705378449E+03  0.12071612307E+03  0.36456647951E+03  0.42288194919E+03  0.00000000000E+00 0. -1.
</event>
<event>
 7    1  0.8792454E-005  0.6709629E+02  0.7818608E-02  0.1461214E+00
          2   -1    0    0  502    0  0.00000000000E+00  0.00000000000E+00  0.36160284546E+03  0.36160284546E+03  0.00000000000E+00 0. -1.
          1   -1    0    0  501    0 -0.00000000000E+00 -0.00000000000E+00 -0.91679787546E+02  0.91679787546E+02  0.00000000000E+00 0. -1.
         25    2    1    2    0    0 -0.62138749712E+02 -0.39147159897E+02  0.31231980083E+03  0.34432870493E+03  0.12499949881E+03 0.  0.
          2    1    1    2  501    0  0.23417088949E+02  0.23486468549E+02  0.16266426013E+02  0.36940098470E+02  0.00000000000E+00 0. -1.
          1    1    1    2  502    0  0.38721660763E+02  0.15660691348E+02 -0.58663168930E+02  0.72013829607E+02  0.00000000000E+00 0. -1.
         22    1    3    3    0    0 -0.63054273986E+02  0.33967974246E+02  0.14474164156E+03  0.16149243804E+03  0.00000000000E+00 0.  1.
         22    1    3    3    0    0  0.91552427390E+00 -0.73115134143E+02  0.16757815927E+03  0.18283626689E+03  0.00000000000E+00 0.  1.
</event>
<event>
 7    1  0.8792454E-005  0.5682983E+03  0.7818608E-02  0.1045059E+00
          2   -1    0    0  502    0  0.00000000000E+00  0.00000000000E+00  0.74578829004E+03  0.74578829004E+03  0.00000000000E+00 0. -1.
          1   -1    0    0  501    0 -0.00000000000E+00 -0.00000000000E+00 -0.89740987064E+03  0.89740987064E+03  0.00000000000E+00 0. -1.
         25    2    1    2    0    0  0.57186952665E+03 -0.54471750673E+02 -0.25244415411E+03  0.63980840525E+03  0.12499926944E+03 0.  0.
          2    1    1    2  501    0 -0.30237149128E+02  0.27473618125E+03 -0.20444545438E+03  0.34379092235E+03  0.00000000000E+00 0. -1.
          1    1    1    2  502    0 -0.54163237752E+03 -0.22026443058E+03  0.30526802788E+03  0.65959883308E+03  0.00000000000E+00 0. -1.
         22    1    3    3    0    0  0.85881230524E+02 -0.44411635895E+02 -0.11774624117E+02  0.97399286098E+02  0.00000000000E+00 0. -1.
         22    1    3    3    0    0  0.48598829612E+03 -0.10060114777E+02 -0.24066952999E+03  0.54240911916E+03  0.00000000000E+00 0. -1.
</event>
<event>
 7    1  0.8792454E-005  0.1372759E+03  0.7818608E-02  0.1246303E+00
          2   -1    0    0  502    0  0.00000000000E+00  0.00000000000E+00  0.29476202482E+04  0.29476202482E+04  0.00000000000E+00 0. -1.
          1   -1    0    0  501    0 -0.00000000000E+00 -0.00000000000E+00 -0.32965498357E+02  0.32965498357E+02  0.00000000000E+00 0. -1.
         25    2    1    2    0    0  0.21237488649E+03 -0.31190525632E+02  0.61419914978E+03  0.66252557444E+03  0.12499439948E+03 0.  0.
          2    1    1    2  501    0 -0.83873783364E+02  0.57274108498E+02  0.38660418757E+03  0.39972231973E+03  0.00000000000E+00 0. -1.
          1    1    1    2  502    0 -0.12850110313E+03 -0.26083582866E+02  0.19138514125E+04  0.19183378524E+04  0.00000000000E+00 0. -1.
         22    1    3    3    0    0  0.20978940687E+03 -0.47440518263E+02  0.60803173752E+03  0.64495332532E+03  0.00000000000E+00 0.  1.
         22    1    3    3    0    0  0.25854796205E+01  0.16249992631E+02  0.61674122609E+01  0.17572249127E+02  0.00000000000E+00 0.  1.
</event>
<event>
 7    1  0.8792454E-005  0.1188165E+03  0.7818608E-02  0.1305252E+00
          2   -1    0    0  502    0  0.00000000000E+00  0.00000000000E+00  0.45111988154E+03  0.45111988154E+03  0.00000000000E+00 0. -1.
          1   -1    0    0  501    0 -0.00000000000E+00 -0.00000000000E+00 -0.16099746819E+04  0.16099746819E+04  0.00000000000E+00 0. -1.
         25    2    1    2    0    0  0.13726306183E+03 -0.30392268275E+02 -0.13184366375E+03  0.22972134600E+03  0.12499722806E+03 0.  0.
          2    1    1    2  501    0 -0.89847930564E+02  0.77289245358E+02 -0.14239487013E+04  0.14288723463E+04  0.00000000000E+00 0. -1.
          1    1    1    2  502    0 -0.47415131269E+02 -0.46896977083E+02  0.39693756461E+03  0.40250087122E+03  0.00000000000E+00 0. -1.
         22    1    3    3    0    0 -0.19217869847E+02  0.82551225618E+01  0.86772000253E+00  0.20933860321E+02  0.00000000000E+00 0. -1.
         22    1    3    3    0    0  0.15648093168E+03 -0.38647390837E+02 -0.13271138375E+03  0.20878748568E+03  0.00000000000E+00 0. -1.
</event>
<event>
 7    1  0.8792454E-005  0.1252994E+03  0.7818608E-02  0.1300981E+00
          2   -1    0    0  502    0  0.00000000000E+00  0.00000000000E+00  0.22308026988E+04  0.22308026988E+04  0.00000000000E+00 0. -1.
          1   -1    0    0  501    0 -0.00000000000E+00 -0.00000000000E+00 -0.35568997786E+02  0.35568997786E+02  0.00000000000E+00 0. -1.
         25    2    1    2    0    0 -0.91277659724E+02 -0.82383765060E+02  0.16374665044E+04  0.16468274504E+04  0.12500160885E+03 0.  0.
          2    1    1    2  501    0  0.32634612044E+02 -0.57097816687E+02  0.38200645197E+03  0.38762624772E+03  0.00000000000E+00 0. -1.
          1    1    1    2  502    0  0.58643047679E+02  0.13948158175E+03  0.17576074464E+03  0.23191799853E+03  0.00000000000E+00 0. -1.
         22    1    3    3    0    0 -0.40258948639E+02 -0.15425762594E+02  0.12899607229E+03  0.13601001346E+03  0.00000000000E+00 0. -1.
         22    1    3    3    0    0 -0.51018711084E+02 -0.66958002467E+02  0.15084704322E+04  0.15108174369E+04  0.00000000000E+00 0. -1.
</event>
<event>
 7    1  0.8792454E-005  0.1798046E+03  0.7818608E-02  0.1277093E+00
          2   -1    0    0  502    0  0.00000000000E+00  0.00000000000E+00  0.14312840576E+04  0.14312840576E+04  0.00000000000E+00 0. -1.
          1   -1    0    0  501    0 -0.00000000000E+00 -0.00000000000E+00 -0.94511835632E+03  0.94511835632E+03  0.00000000000E+00 0. -1.
         25    2    1    2    0    0 -0.23198411053E+03 -0.77353739508E+01  0.46489532159E+03  0.53444258469E+03  0.12499901095E+03 0.  0.
          2    1    1    2  501    0  0.17844698944E+03 -0.12800429975E+02 -0.90065552893E+03  0.91825244941E+03  0.00000000000E+00 0. -1.
          1    1    1    2  502    0  0.53537121088E+02  0.20535803926E+02  0.92192590866E+03  0.92370737987E+03  0.00000000000E+00 0. -1.
         22    1    3    3    0    0 -0.64388870109E+02 -0.59327205206E+02  0.13662357456E+03  0.16227028377E+03  0.00000000000E+00 0. -1.
         22    1    3    3    0    0 -0.16759524042E+03  0.51591831255E+02  0.32827174704E+03  0.37217230091E+03  0.00000000000E+00 0. -1.
</event>
<event>
 7    1  0.8792454E-005  0.9436135E+02  0.7818608E-02  0.1317537E+00
          2   -1    0    0  502    0  0.00000000000E+00  0.00000000000E+00  0.17395366413E+04  0.17395366413E+04  0.00000000000E+00 0. -1.
          1   -1    0    0  501    0 -0.00000000000E+00 -0.00000000000E+00 -0.13532835816E+04  0.13532835816E+04  0.00000000000E+00 0. -1.
         25    2    1    2    0    0 -0.16293921958E+03 -0.12500159149E+02  0.47850279357E+03  0.52085990907E+03  0.12499871266E+03 0.  0.
          2    1    1    2  501    0  0.75081762645E+02 -0.27897394637E+01 -0.13294393925E+04  0.13315607954E+04  0.00000000000E+00 0. -1.
          1    1    1    2  502    0  0.87857456938E+02  0.15289898613E+02  0.12371896586E+04  0.12403995184E+04  0.00000000000E+00 0. -1.
         22    1    3    3    0    0 -0.66134566949E+02  0.10708031391E+02  0.35959658959E+03  0.36578429453E+03  0.00000000000E+00 0.  1.
         22    1    3    3    0    0 -0.96804652633E+02 -0.23208190540E+02  0.11890620398E+03  0.15507561454E+03  0.00000000000E+00 0.  1.
</event>
<event>
 7    1  0.8792454E-005  0.2756796E+03  0.7818608E-02  0.1267072E+00
          2   -1    0    0  502    0  0.00000000000E+00  0.00000000000E+00  0.71347318122E+03  0.71347318122E+03  0.00000000000E+00 0. -1.
          1   -1    0    0  501    0 -0.00000000000E+00 -0.00000000000E+00 -0.12785475649E+04  0.12785475649E+04  0.00000000000E+00 0. -1.
         25    2    1    2    0    0 -0.24210359512E+03  0.53064194821E+02 -0.32121672017E+03  0.42454177153E+03  0.12500229965E+03 0.  0.
          2    1    1    2  501    0  0.27918656881E+03 -0.70995564692E+02 -0.88208033524E+03  0.92792846073E+03  0.00000000000E+00 0. -1.
          1    1    1    2  502    0 -0.37082973698E+02  0.17931369871E+02  0.63822267177E+03  0.63955051382E+03  0.00000000000E+00 0. -1.
         22    1    3    3    0    0 -0.63657796783E+02 -0.37431480778E+02 -0.57934062572E+02  0.93860462659E+02  0.00000000000E+00 0. -1.
         22    1    3    3    0    0 -0.17844579833E+03  0.90495675599E+02 -0.26328265760E+03  0.33068130887E+03  0.00000000000E+00 0. -1.
</event>
<event>
 7    1  0.8792454E-005  0.1803812E+03  0.7818608E-02  0.1244609E+00
          2   -1    0    0  502    0  0.00000000000E+00  0.00000000000E+00  0.33768481158E+03  0.33768481158E+03  0.00000000000E+00 0. -1.
          1   -1    0    0  501    0 -0.00000000000E+00 -0.00000000000E+00 -0.51590756574E+03  0.51590756574E+03  0.00000000000E+00 0. -1.
         25    2    1    2    0    0  0.99973924637E+02  0.71023324444E+02  0.18675017257E+03  0.25600731022E+03  0.12500007083E+03 0.  0.
          2    1    1    2  501    0 -0.17710507490E+03 -0.55785148154E+02 -0.44695824222E+03  0.48399365760E+03  0.00000000000E+00 0. -1.
          1    1    1    2  502    0  0.77131150259E+02 -0.15238176290E+02  0.81985315492E+02  0.11359140950E+03  0.00000000000E+00 0. -1.
         22    1    3    3    0    0  0.80264516516E+02  0.38635251879E+02  0.28872927984E+02  0.93641450596E+02  0.00000000000E+00 0.  1.
         22    1    3    3    0    0  0.19709408120E+02  0.32388072565E+02  0.15787724458E+03  0.16236585962E+03  0.00000000000E+00 0.  1.
</event>
<event>
 7    1  0.8792454E-005  0.5918082E+03  0.7818608E-02  0.1042023E+00
          2   -1    0    0  502    0  0.00000000000E+00  0.00000000000E+00  0.16694056562E+04  0.16694056562E+04  0.00000000000E+00 0. -1.
          1   -1    0    0  501    0 -0.00000000000E+00 -0.00000000000E+00 -0.13335727654E+04  0.13335727654E+04  0.00000000000E+00 0. -1.
         25    2    1    2    0    0  0.42904293526E+03 -0.22268098094E+03  0.23511956223E+03  0.55187613246E+03  0.12498558903E+03 0.  0.
          2    1    1    2  501    0  0.23225740843E+03  0.15152868231E+03 -0.10696142231E+04  0.11049791996E+04  0.00000000000E+00 0. -1.
          1    1    1    2  502    0 -0.66130034369E+03  0.71152298627E+02  0.11703275517E+04  0.13461230896E+04  0.00000000000E+00 0. -1.
         22    1    3    3    0    0 -0.68502936117E+00 -0.10860858335E+01  0.24435279820E+02  0.24468995638E+02  0.00000000000E+00 0.  1.
         22    1    3    3    0    0  0.42972796462E+03 -0.22159489511E+03  0.21068428241E+03  0.52740713682E+03  0.00000000000E+00 0.  1.
</event>
<event>
 7    1  0.8792454E-005  0.1047304E+04  0.7818608E-02  0.1045138E+00
          2   -1    0    0  502    0  0.00000000000E+00  0.00000000000E+00  0.47426598122E+04  0.47426598122E+04  0.00000000000E+00 0. -1.
          1   -1    0    0  501    0 -0.00000000000E+00 -0.00000000000E+00 -0.72384068055E+03  0.72384068055E+03  0.00000000000E+00 0. -1.
         25    2    1    2    0    0  0.11162333237E+03  0.92579173643E+03  0.48917264712E+03  0.10604082826E+04  0.12500295831E+03 0.  0.
          2    1    1    2  501    0 -0.25173423608E+02  0.14767896628E+03 -0.34948573207E+03  0.38024078589E+03  0.00000000000E+00 0. -1.
          1    1    1    2  502    0 -0.86449908763E+02 -0.10734707027E+04  0.38791322166E+04  0.40258514242E+04  0.00000000000E+00 0. -1.
         22    1    3    3    0    0  0.70238418175E+02  0.56766554788E+03  0.23046575130E+03  0.61667825659E+03  0.00000000000E+00 0. -1.
         22    1    3    3    0    0  0.41384914195E+02  0.35812618855E+03  0.25870689583E+03  0.44373002602E+03  0.00000000000E+00 0. -1.
</event>
<event>
 7    1  0.8792454E-005  0.1152861E+03  0.7818608E-02  0.1336425E+00
          2   -1    0    0  502    0  0.00000000000E+00  0.00000000000E+00  0.26640622493E+04  0.26640622493E+04  0.00000000000E+00 0. -1.
          1   -1    0    0  501    0 -0.00000000000E+00 -0.00000000000E+00 -0.27976413229E+02  0.27976413229E+02  0.00000000000E+00 0. -1.
         25    2    1    2    0    0 -0.12150539948E+02  0.14817071769E+03  0.37654634362E+03  0.42370435141E+03  0.12504411745E+03 0.  0.
          2    1    1    2  501    0 -0.26619371880E+02 -0.44718687716E+02  0.14896175362E+04  0.14905263352E+04  0.00000000000E+00 0. -1.
          1    1    1    2  502    0  0.38769911828E+02 -0.10345202998E+03  0.76992195631E+03  0.77780797590E+03  0.00000000000E+00 0. -1.
         22    1    3    3    0    0 -0.91787340441E+01  0.17064322838E+03  0.31974486515E+03  0.36254674090E+03  0.00000000000E+00 0. -1.
         22    1    3    3    0    0 -0.29718059037E+01 -0.22472510685E+02  0.56801478469E+02  0.61157610509E+02  0.00000000000E+00 0. -1.
</event>
<event>
 7    1  0.8792454E-005  0.2529221E+03  0.7818608E-02  0.1111690E+00
          2   -1    0    0  502    0  0.00000000000E+00  0.00000000000E+00  0.68746229235E+03  0.68746229235E+03  0.00000000000E+00 0. -1.
          1   -1    0    0  501    0 -0.00000000000E+00 -0.00000000000E+00 -0.17286676704E+04  0.17286676704E+04  0.00000000000E+00 0. -1.
         25    2    1    2    0    0  0.12565868479E+03 -0.16147197201E+03  0.27426412692E+03  0.36429301574E+03  0.12500114880E+03 0.  0.
          2    1    1    2  501    0  0.11705485175E+03  0.23007352349E+03 -0.16290685978E+04  0.16493938768E+04  0.00000000000E+00 0. -1.
          1    1    1    2  502    0 -0.24271353654E+03 -0.68601551483E+02  0.31359909285E+03  0.40244307017E+03  0.00000000000E+00 0. -1.
         22    1    3    3    0    0  0.10889835130E+03 -0.80454525329E+02  0.90758728752E+02  0.16299978039E+03  0.00000000000E+00 0.  1.
         22    1    3    3    0    0  0.16760333488E+02 -0.81017446677E+02  0.18350539817E+03  0.20129323536E+03  0.00000000000E+00 0.  1.
</event>
<event>
 7    1  0.8792454E-005  0.3452984E+03  0.7818608E-02  0.1172861E+00
          2   -1    0    0  502    0  0.00000000000E+00  0.00000000000E+00  0.36283790857E+04  0.36283790857E+04  0.00000000000E+00 0. -1.
          1   -1    0    0  501    0 -0.00000000000E+00 -0.00000000000E+00 -0.29675793209E+03  0.29675793209E+03  0.00000000000E+00 0. -1.
         25    2    1    2    0    0 -0.25340490892E+03 -0.20830771187E+03  0.15094865535E+04  0.15497679754E+04  0.12499988655E+03 0.  0.
          2    1    1    2  501    0  0.34764385263E+02 -0.81452760106E+02 -0.25334874694E+03  0.26838163534E+03  0.00000000000E+00 0. -1.
          1    1    1    2  502    0  0.21864052366E+03  0.28976047197E+03  0.20754833470E+04  0.21069874071E+04  0.00000000000E+00 0. -1.
         22    1    3    3    0    0 -0.10188066281E+03 -0.15549706867E+03  0.68294363233E+03  0.70779305786E+03  0.00000000000E+00 0.  1.
         22    1    3    3    0    0 -0.15152424611E+03 -0.52810643191E+02  0.82654292118E+03  0.84197491753E+03  0.00000000000E+00 0.  1.
</event>
<event>
 7    1  0.8792454E-005  0.5177219E+03  0.7818608E-02  0.1177533E+00
          2   -1    0    0  502    0  0.00000000000E+00  0.00000000000E+00  0.95570895161E+03  0.95570895161E+03  0.00000000000E+00 0. -1.
          1   -1    0    0  501    0 -0.00000000000E+00 -0.00000000000E+00 -0.14885432678E+04  0.14885432678E+04  0.00000000000E+00 0. -1.
         25    2    1    2    0    0 -0.53606888707E+03 -0.16954707005E+03 -0.17284391067E+03  0.60134371461E+03  0.12499273981E+03 0.  0.
          2    1    1    2  501    0  0.55820642101E+02  0.47271669726E+01 -0.10136607311E+04  0.10152075492E+04  0.00000000000E+00 0. -1.
          1    1    1    2  502    0  0.48024824496E+03  0.16481990308E+03  0.65367032561E+03  0.82770095555E+03  0.00000000000E+00 0. -1.
         22    1    3    3    0    0 -0.44709449594E+03 -0.94231413047E+02 -0.11478530584E+03  0.47111433213E+03  0.00000000000E+00 0.  1.
         22    1    3    3    0    0 -0.88974391128E+02 -0.75315657007E+02 -0.58058604825E+02  0.13022938248E+03  0.00000000000E+00 0.  1.
</event>
<event>
 7    1  0.8792454E-005  0.7895649E+03  0.7818608E-02  0.1032505E+00
          2   -1    0    0  502    0  0.00000000000E+00  0.00000000000E+00  0.23652441811E+04  0.23652441811E+04  0.00000000000E+00 0. -1.
          1   -1    0    0  501    0 -0.00000000000E+00 -0.00000000000E+00 -0.90478139651E+03  0.90478139651E+03  0.00000000000E+00 0. -1.
         25    2    1    2    0    0 -0.22122496398E+03  0.94198334158E+03  0.28869955437E+03  0.10174690491E+04  0.12499093077E+03 0.  0.
          2    1    1    2  501    0  0.13498505663E+03 -0.19711490806E+03 -0.42553356229E+03  0.48801031252E+03  0.00000000000E+00 0. -1.
          1    1    1    2  502    0  0.86239907348E+02 -0.74486843352E+03  0.15972967925E+04  0.17645462159E+04  0.00000000000E+00 0. -1.
         22    1    3    3    0    0 -0.23347417646E+02  0.19689984459E+03  0.10751079763E+03  0.22555093065E+03  0.00000000000E+00 0.  1.
         22    1    3    3    0    0 -0.19787754634E+03  0.74508349699E+03  0.18118875674E+03  0.79191811850E+03  0.00000000000E+00 0.  1.
</event>
<event>
 7    1  0.8792454E-005  0.3768696E+03  0.7818608E-02  0.1118804E+00
          2   -1    0    0  502    0  0.00000000000E+00  0.00000000000E+00  0.71414232080E+03  0.71414232080E+03  0.00000000000E+00 0. -1.
          1   -1    0    0  501    0 -0.00000000000E+00 -0.00000000000E+00 -0.83260541852E+03  0.83260541852E+03  0.00000000000E+00 0. -1.
         25    2    1    2    0    0  0.26490569964E+03  0.39348860328E+03 -0.17214827785E+02  0.49084611839E+03  0.12500100412E+03 0.  0.
          2    1    1    2  501    0 -0.39961547504E+01 -0.15469075828E+03 -0.49970203238E+03  0.52311310547E+03  0.00000000000E+00 0. -1.
          1    1    1    2  502    0 -0.26090954489E+03 -0.23879784500E+03  0.39845376245E+03  0.53278851545E+03  0.00000000000E+00 0. -1.
         22    1    3    3    0    0  0.22692714968E+03  0.30718668667E+03 -0.61224687287E+02  0.38679200361E+03  0.00000000000E+00 0.  1.
         22    1    3    3    0    0  0.37978549958E+02  0.86301916613E+02  0.44009859503E+02  0.10405411477E+03  0.00000000000E+00 0.  1.
</event>
<event>
 7    1  0.8792454E-005  0.5137947E+02  0.7818608E-02  0.1454985E+00
          2   -1    0    0  502    0  0.00000000000E+00  0.00000000000E+00  0.55778501418E+03  0.55778501418E+03  0.00000000000E+00 0. -1.
          1   -1    0    0  501    0 -0.00000000000E+00 -0.00000000000E+00 -0.34928757328E+03  0.34928757328E+03  0.00000000000E+00 0. -1.
         25    2    1    2    0    0  0.25540177948E+02  0.90055927557E+02  0.19383387401E+03  0.24891518284E+03  0.12499930701E+03 0.  0.
          2    1    1    2  501    0 -0.16475870662E+02 -0.42220354326E+02 -0.31837212108E+03  0.32158174717E+03  0.00000000000E+00 0. -1.
          1    1    1    2  502    0 -0.90643072861E+01 -0.47835573231E+02  0.33303568796E+03  0.33657565745E+03  0.00000000000E+00 0. -1.
         22    1    3    3    0    0  0.65467108603E+02  0.13097155682E+02  0.61903742601E+02  0.91046972184E+02  0.00000000000E+00 0. -1.
         22    1    3    3    0    0 -0.39926930655E+02  0.76958771875E+02  0.13193013141E+03  0.15786821065E+03  0.00000000000E+00 0. -1.
</event>
<event>
 7    1  0.8792454E-005  0.7468715E+02  0.7818608E-02  0.1356024E+00
          2   -1    0    0  502    0  0.00000000000E+00  0.00000000000E+00  0.47805940291E+03  0.47805940291E+03  0.00000000000E+00 0. -1.
          1   -1    0    0  501    0 -0.00000000000E+00 -0.00000000000E+00 -0.11037266561E+04  0.11037266561E+04  0.00000000000E+00 0. -1.
         25    2    1    2    0    0 -0.13515721418E+03  0.80989840581E+01  0.78311622792E+02  0.20022738373E+03  0.12500091537E+03 0.  0.
          2    1    1    2  501    0  0.64970520709E+02 -0.19714924169E+02 -0.10379126381E+04  0.10401309971E+04  0.00000000000E+00 0. -1.
          1    1    1    2  502    0  0.70186693472E+02  0.11615940110E+02  0.33393376207E+03  0.34142767822E+03  0.00000000000E+00 0. -1.
         22    1    3    3    0    0 -0.11303323838E+03  0.41580016740E+02  0.98110693010E+01  0.12083736116E+03  0.00000000000E+00 0. -1.
         22    1    3    3    0    0 -0.22123975797E+02 -0.33481032682E+02  0.68500553491E+02  0.79390022567E+02  0.00000000000E+00 0. -1.
</event>
<event>
 7    1  0.8792454E-005  0.8844732E+02  0.7818608E-02  0.1369253E+00
          2   -1    0    0  502    0  0.00000000000E+00  0.00000000000E+00  0.53276759135E+03  0.53276759135E+03  0.00000000000E+00 0. -1.
          1   -1    0    0  501    0 -0.00000000000E+00 -0.00000000000E+00 -0.56216397565E+02  0.56216397565E+02  0.00000000000E+00 0. -1.
         25    2    1    2    0    0 -0.10918840421E+03 -0.64841385288E+02  0.27088056322E+03  0.32423021734E+03  0.12498976536E+03 0.  0.
          2    1    1    2  501    0  0.76731967336E+02  0.25083495103E+02  0.37662237086E+02  0.89080977993E+02  0.00000000000E+00 0. -1.
          1    1    1    2  502    0  0.32456436871E+02  0.39757890185E+02  0.16800839348E+03  0.17567279358E+03  0.00000000000E+00 0. -1.
         22    1    3    3    0    0 -0.68961781338E+02 -0.84544947414E+02  0.10146236386E+03  0.14899055910E+03  0.00000000000E+00 0.  1.
         22    1    3    3    0    0 -0.40226622869E+02  0.19703562126E+02  0.16941819936E+03  0.17523965824E+03  0.00000000000E+00 0.  1.
</event>
<event>
 7    1  0.8792454E-005  0.3952068E+03  0.7818608E-02  0.1108457E+00
          2   -1    0    0  502    0  0.00000000000E+00  0.00000000000E+00  0.18180753777E+04  0.18180753777E+04  0.00000000000E+00 0. -1.
          1   -1    0    0  501    0 -0.00000000000E+00 -0.00000000000E+00 -0.31002174478E+04  0.31002174478E+04  0.00000000000E+00 0. -1.
         25    2    1    2    0    0  0.25748620004E+03 -0.15503471535E+03  0.17172081393E+04  0.17477881156E+04  0.12499838847E+03 0.  0.
          2    1    1    2  501    0 -0.23172946641E+03  0.32125030765E+03 -0.29741697113E+04  0.30004309320E+04  0.00000000000E+00 0. -1.
          1    1    1    2  502    0 -0.25756733630E+02 -0.16621559230E+03 -0.25180498058E+02  0.17007377791E+03  0.00000000000E+00 0. -1.
         22    1    3    3    0    0  0.10411735667E+03 -0.69711341951E+01  0.39728009567E+03  0.41075600433E+03  0.00000000000E+00 0.  1.
         22    1    3    3    0    0  0.15336884337E+03 -0.14806358115E+03  0.13199280436E+04  0.13370321112E+04  0.00000000000E+00 0.  1.
</event>
<event>
 7    1  0.8792454E-005  0.1389501E+03  0.7818608E-02  0.1271704E+00
          2   -1    0    0  502    0  0.00000000000E+00  0.00000000000E+00  0.13384235561E+04  0.13384235561E+04  0.00000000000E+00 0. -1.
          1   -1    0    0  501    0 -0.00000000000E+00 -0.00000000000E+00 -0.56432354295E+03  0.56432354295E+03  0.00000000000E+00 0. -1.
         25    2    1    2    0    0 -0.12437389976E+03  0.43290203768E+01  0.13698649522E+03  0.22335072768E+03  0.12503055756E+03 0.  0.
          2    1    1    2  501    0  0.11452937746E+03 -0.81847078502E+02 -0.51028224854E+03  0.52934289051E+03  0.00000000000E+00 0. -1.
          1    1    1    2  502    0  0.98445222966E+01  0.77518058125E+02  0.11473957664E+04  0.11500534808E+04  0.00000000000E+00 0. -1.
         22    1    3    3    0    0 -0.99271313190E+02 -0.52598118558E+02  0.72293095193E+02  0.13359508715E+03  0.00000000000E+00 0.  1.
         22    1    3    3    0    0 -0.25102586566E+02  0.56927138934E+02  0.64693400023E+02  0.89755640525E+02  0.00000000000E+00 0.  1.
</event>
<event>
 7    1  0.8792454E-005  0.8712420E+02  0.7818608E-02  0.1494550E+00
          2   -1    0    0  502    0  0.00000000000E+00  0.00000000000E+00  0.46447504861E+02  0.46447504861E+02  0.00000000000E+00 0. -1.
          1   -1    0    0  501    0 -0.00000000000E+00 -0.00000000000E+00 -0.52158892185E+03  0.52158892185E+03  0.00000000000E+00 0. -1.
         25    2    1    2    0    0 -0.26988430181E+02  0.75188108622E+02 -0.10811138897E+03  0.18356522525E+03  0.12500596968E+03 0.  0.
          2    1    1    2  501    0  0.11217925349E+02 -0.87760218700E+02 -0.33607400157E+03  0.34752472195E+03  0.00000000000E+00 0. -1.
          1    1    1    2  502    0  0.15770504832E+02  0.12572110078E+02 -0.30956026448E+02  0.36946479506E+02  0.00000000000E+00 0. -1.
         22    1    3    3    0    0 -0.71382593268E+01 -0.15369495495E+02 -0.86801097368E+02  0.88439847593E+02  0.00000000000E+00 0.  1.
         22    1    3    3    0    0 -0.19850170855E+02  0.90557604117E+02 -0.21310291600E+02  0.95125377658E+02  0.00000000000E+00 0.  1.
</event>
<event>
 7    1  0.8792454E-005  0.5640939E+03  0.7818608E-02  0.1040445E+00
          2   -1    0    0  502    0  0.00000000000E+00  0.00000000000E+00  0.92151046138E+03  0.92151046138E+03  0.00000000000E+00 0. -1.
          1   -1    0    0  501    0 -0.00000000000E+00 -0.00000000000E+00 -0.18483347498E+04  0.18483347498E+04  0.00000000000E+00 0. -1.
         25    2    1    2    0    0  0.41027982545E+03 -0.21583782045E+03 -0.72075668647E+03  0.86604309125E+03  0.12499973961E+03 0.  0.
          2    1    1    2  501    0 -0.65285190477E+03  0.38838429334E+03 -0.88270931775E+03  0.11645744753E+04  0.00000000000E+00 0. -1.
          1    1    1    2  502    0  0.24257207932E+03 -0.17254647289E+03  0.67664171581E+03  0.73922764461E+03  0.00000000000E+00 0. -1.
         22    1    3    3    0    0  0.14879940259E+02 -0.22228473178E+02 -0.10964720598E+03  0.11286286999E+03  0.00000000000E+00 0.  1.
         22    1    3    3    0    0  0.39539988519E+03 -0.19360934728E+03 -0.61110948048E+03  0.75318022126E+03  0.00000000000E+00 0.  1.
</event>
<event>
 7    1  0.8792454E-005  0.1877512E+03  0.7818608E-02  0.1255252E+00
          2   -1    0    0  502    0  0.00000000000E+00  0.00000000000E+00  0.46364711198E+03  0.46364711198E+03  0.00000000000E+00 0. -1.
          1   -1    0    0  501    0 -0.00000000000E+00 -0.00000000000E+00 -0.83663799106E+03  0.83663799106E+03  0.00000000000E+00 0. -1.
         25    2    1    2    0    0 -0.22038532875E+03  0.37046215465E+02  0.22098155668E+03  0.33823078166E+03  0.12500039223E+03 0.  0.
          2    1    1    2  501    0  0.54332731082E+02 -0.40750401255E+02 -0.73866134538E+03  0.74177707165E+03  0.00000000000E+00 0. -1.
          1    1    1    2  502    0  0.16605259767E+03  0.37041857895E+01  0.14468890961E+03  0.22027724973E+03  0.00000000000E+00 0. -1.
         22    1    3    3    0    0 -0.17124902011E+03  0.34814694985E+02  0.22934734481E+03  0.28833746625E+03  0.00000000000E+00 0. -1.
         22    1    3    3    0    0 -0.49136308649E+02  0.22315204804E+01 -0.83657881290E+01  0.49893315407E+02  0.00000000000E+00 0. -1.
</event>
<event>
 7    1  0.8792454E-005  0.1006775E+03  0.7818608E-02  0.1425241E+00
          2   -1    0    0  502    0  0.00000000000E+00  0.00000000000E+00  0.25840899450E+04  0.25840899450E+04  0.00000000000E+00 0. -1.
          1   -1    0    0  501    0 -0.00000000000E+00 -0.00000000000E+00 -0.26177738702E+02  0.26177738702E+02  0.00000000000E+00 0. -1.
         25    2    1    2    0    0 -0.90426383099E+02  0.84224597758E+02  0.63359064773E+03  0.65752012547E+03  0.12499957151E+03 0.  0.
          2    1    1    2  501    0  0.66880392172E+02 -0.67492136598E+02  0.14602709234E+03  0.17421850377E+03  0.00000000000E+00 0. -1.
          1    1    1    2  502    0  0.23545990927E+02 -0.16732461160E+02  0.17782944662E+04  0.17785290544E+04  0.00000000000E+00 0. -1.
         22    1    3    3    0    0  0.14203234475E+01 -0.27915847973E+02  0.65232364937E+02  0.70968819365E+02  0.00000000000E+00 0.  1.
         22    1    3    3    0    0 -0.91846706546E+02  0.11214044573E+03  0.56835828279E+03  0.58655130610E+03  0.00000000000E+00 0.  1.
</event>
<event>
 7    1  0.8792454E-005  0.3237045E+03  0.7818608E-02  0.1190531E+00
          2   -1    0    0  502    0  0.00000000000E+00  0.00000000000E+00  0.27050590480E+03  0.27050590480E+03  0.00000000000E+00 0. -1.
          1   -1    0    0  501    0 -0.00000000000E+00 -0.00000000000E+00 -0.29099414344E+04  0.29099414344E+04  0.00000000000E+00 0. -1.
         25    2    1    2    0    0  0.20261910149E+03  0.24851820836E+03 -0.65341382423E+03  0.73850640627E+03  0.12500514482E+03 0.  0.
          2    1    1    2  501    0 -0.26050897931E+03 -0.19699547717E+03 -0.21949429018E+04  0.22191093908E+04  0.00000000000E+00 0. -1.
          1    1    1    2  502    0  0.57889877815E+02 -0.51522731199E+02  0.20892119649E+03  0.22283154204E+03  0.00000000000E+00 0. -1.
         22    1    3    3    0    0  0.21746862532E+03  0.23301649090E+03 -0.57752160244E+03  0.65963663431E+03  0.00000000000E+00 0. -1.
         22    1    3    3    0    0 -0.14849523825E+02  0.15501717462E+02 -0.75892221789E+02  0.78869771967E+02  0.00000000000E+00 0. -1.
</event>
<event>
 7    1  0.8792454E-005  0.9812060E+02  0.7818608E-02  0.1313362E+00
          2   -1    0    0  502    0  0.00000000000E+00  0.00000000000E+00  0.28152356705E+04  0.28152356705E+04  0.00000000000E+00 0. -1.
          1   -1    0    0  501    0 -0.00000000000E+00 -0.00000000000E+00 -0.19929095292E+03  0.19929095292E+03  0.00000000000E+00 0. -1.
         25    2    1    2    0    0 -0.21243784522E+02  0.65609340825E+02  0.14778824635E+04  0.14847630132E+04  0.12501498078E+03 0.  0.
          2    1    1    2  501    0 -0.70284721224E+02  0.26233692713E+02 -0.18537997158E+03  0.19998470575E+03  0.00000000000E+00 0. -1.
          1    1    1    2  502    0  0.91528505745E+02 -0.91843033538E+02  0.13234422257E+04  0.13297789045E+04  0.00000000000E+00 0. -1.
         22    1    3    3    0    0  0.11278973176E+01  0.90288760521E+02  0.65359937395E+03  0.65980714914E+03  0.00000000000E+00 0. -1.
         22    1    3    3    0    0 -0.22371681839E+02 -0.24679419696E+02  0.82428308953E+03  0.82495586402E+03  0.00000000000E+00 0. -1.
</event>
<event>
 7    1  0.8792454E-005  0.1527006E+03  0.7818608E-02  0.1231468E+00
          2   -1    0    0  502    0  0.00000000000E+00  0.00000000000E+00  0.17288689693E+04  0.17288689693E+04  0.00000000000E+00 0. -1.
          1   -1    0    0  501    0 -0.00000000000E+00 -0.00000000000E+00 -0.15729916572E+03  0.15729916572E+03  0.00000000000E+00 0. -1.
         25    2    1    2    0    0  0.45472213890E+02  0.24078274209E+03  0.52082218397E+03  0.58900348806E+03  0.12500124202E+03 0.  0.
          2    1    1    2  501    0 -0.54821961039E+02 -0.13501583986E+03 -0.76736938365E+02  0.16469147560E+03  0.00000000000E+00 0. -1.
          1    1    1    2  502    0  0.93497471490E+01 -0.10576690223E+03  0.11274845580E+04  0.11324731714E+04  0.00000000000E+00 0. -1.
         22    1    3    3    0    0  0.56820186522E+02  0.21615028747E+03  0.34475294001E+03  0.41085772478E+03  0.00000000000E+00 0. -1.
         22    1    3    3    0    0 -0.11347972633E+02  0.24632454616E+02  0.17606924396E+03  0.17814576327E+03  0.00000000000E+00 0. -1.
</event>
<event>
 7    1  0.8792454E-005  0.3038576E+03  0.7818608E-02  0.1186990E+00
          2   -1    0    0  502    0  0.00000000000E+00  0.00000000000E+00  0.17362683218E+04  0.17362683218E+04  0.00000000000E+00 0. -1.
          1   -1    0    0  501    0 -0.00000000000E+00 -0.00000000000E+00 -0.11335326149E+03  0.11335326149E+03  0.00000000000E+00 0. -1.
         25    2    1    2    0    0  0.68913664134E+02 -0.25109000204E+03  0.18898601698E+03  0.34516074898E+03  0.12499978319E+03 0.  0.
          2    1    1    2  501    0  0.81850762195E+02 -0.25928715549E+02  0.91476855883E+02  0.12545860163E+03  0.00000000000E+00 0. -1.
          1    1    1    2  502    0 -0.15076442633E+03  0.27701871759E+03  0.13424521875E+04  0.13790022327E+04  0.00000000000E+00 0. -1.
         22    1    3    3    0    0  0.40140983729E+02 -0.23528700453E+02  0.76865693088E+02  0.89851171910E+02  0.00000000000E+00 0. -1.
         22    1    3    3    0    0  0.28772680406E+02 -0.22756130158E+03  0.11212032389E+03  0.25530957707E+03  0.00000000000E+00 0. -1.
</event>
<event>
 7    1  0.8792454E-005  0.2788373E+03  0.7818608E-02  0.1208743E+00
          2   -1    0    0  502    0  0.00000000000E+00  0.00000000000E+00  0.14259421262E+03  0.14259421262E+03  0.00000000000E+00 0. -1.
          1   -1    0    0  501    0 -0.00000000000E+00 -0.00000000000E+00 -0.10673731601E+04  0.10673731601E+04  0.00000000000E+00 0. -1.
         25    2    1    2    0    0 -0.46514017703E+02  0.31249685331E+03 -0.28420979870E+03  0.44296516436E+03  0.12500035995E+03 0.  0.
          2    1    1    2  501    0 -0.24139816781E+02 -0.69753849756E+02 -0.43482935593E+03  0.44104976940E+03  0.00000000000E+00 0. -1.
          1    1    1    2  502    0  0.70653834484E+02 -0.24274300356E+03 -0.20573979287E+03  0.32595243898E+03  0.00000000000E+00 0. -1.
         22    1    3    3    0    0 -0.54069994264E+02  0.13279156404E+03 -0.59745427147E+02  0.15532765312E+03  0.00000000000E+00 0.  1.
         22    1    3    3    0    0  0.75559765610E+01  0.17970528927E+03 -0.22446437156E+03  0.28763751124E+03  0.00000000000E+00 0.  1.
</event>
<event>
 7    1  0.8792454E-005  0.1198938E+03  0.7818608E-02  0.1393029E+00
          2   -1    0    0  502    0  0.00000000000E+00  0.00000000000E+00  0.53713041328E+03  0.53713041328E+03  0.00000000000E+00 0. -1.
          1   -1    0    0  501    0 -0.00000000000E+00 -0.00000000000E+00 -0.13780970125E+03  0.13780970125E+03  0.00000000000E+00 0. -1.
         25    2    1    2    0    0 -0.43537391843E+02  0.10703154473E+03  0.46207301397E+03  0.49243059465E+03  0.12500065699E+03 0.  0.
          2    1    1    2  501    0  0.72719294380E+02 -0.95997355721E+02 -0.82141879125E+02  0.14577680332E+03  0.00000000000E+00 0. -1.
          1    1    1    2  502    0 -0.29181902536E+02 -0.11034189014E+02  0.19389577180E+02  0.36732716562E+02  0.00000000000E+00 0. -1.
         22    1    3    3    0    0 -0.10020933557E+02  0.12547172038E+03  0.40169348656E+03  0.42095276323E+03  0.00000000000E+00 0.  1.
         22    1    3    3    0    0 -0.33516458286E+02 -0.18440175646E+02  0.60379527409E+02  0.71477831417E+02  0.00000000000E+00 0.  1.
</event>
<event>
 7    1  0.8792454E-005  0.7739963E+03  0.7818608E-02  0.1092325E+00
          2   -1    0    0  502    0  0.00000000000E+00  0.00000000000E+00  0.75129871462E+03  0.75129871462E+03  0.00000000000E+00 0. -1.
          1   -1    0    0  501    0 -0.00000000000E+00 -0.00000000000E+00 -0.14494043073E+04  0.14494043073E+04  0.00000000000E+00 0. -1.
         25    2    1    2    0    0 -0.59112503174E+03 -0.53917959592E+03 -0.99350004714E+03  0.12817220343E+04  0.12500235900E+03 0.  0.
          2    1    1    2  501    0  0.53835164095E+03  0.44740818027E+03  0.11437700134E+03  0.70928038710E+03  0.00000000000E+00 0. -1.
          1    1    1    2  502    0  0.52773390788E+02  0.91771415647E+02  0.18101745314E+03  0.20970060049E+03  0.00000000000E+00 0. -1.
         22    1    3    3    0    0 -0.43259656786E+03 -0.33581555921E+03 -0.61197937986E+03  0.82123726273E+03  0.00000000000E+00 0.  1.
         22    1    3    3    0    0 -0.15852846388E+03 -0.20336403671E+03 -0.38152066729E+03  0.46048477158E+03  0.00000000000E+00 0.  1.
</event>
<event>
 7    1  0.8792454E-005  0.1624428E+03  0.7818608E-02  0.1212508E+00
          2   -1    0    0  502    0  0.00000000000E+00  0.00000000000E+00  0.63700463563E+03  0.63700463563E+03  0.00000000000E+00 0. -1.
          1   -1    0    0  501    0 -0.00000000000E+00 -0.00000000000E+00 -0.35431798854E+03  0.35431798854E+03  0.00000000000E+00 0. -1.
         25    2    1    2    0    0 -0.14615257133E+03 -0.11049639913E+03  0.29427741038E+03  0.36850121485E+03  0.12499569098E+03 0.  0.
          2    1    1    2  501    0 -0.19646433220E+02  0.12011832168E+03 -0.28106104297E+03  0.30628369760E+03  0.00000000000E+00 0. -1.
          1    1    1    2  502    0  0.16579900455E+03 -0.96219225510E+01  0.26947027969E+03  0.31653771172E+03  0.00000000000E+00 0. -1.
         22    1    3    3    0    0 -0.13806973882E+03 -0.13469079304E+03  0.27756683466E+03  0.33800622807E+03  0.00000000000E+00 0.  1.
         22    1    3    3    0    0 -0.80828325118E+01  0.24194393916E+02  0.16710575715E+02  0.30494986786E+02  0.00000000000E+00 0.  1.
</event>
<event>
 7    1  0.8792454E-005  0.3612532E+03  0.7818608E-02  0.1141769E+00
          2   -1    0    0  502    0  0.00000000000E+00  0.00000000000E+00  0.20472019776E+03  0.20472019776E+03  0.00000000000E+00 0. -1.
          1   -1    0    0  501    0 -0.00000000000E+00 -0.00000000000E+00 -0.20343130678E+04  0.20343130678E+04  0.00000000000E+00 0. -1.
         25    2    1    2    0    0  0.11545375667E+02 -0.45620216540E+03 -0.55720407107E+03  0.73099588656E+03  0.12499959174E+03 0.  0.
          2    1    1    2  501    0  0.17294054730E+02  0.33788926899E+03 -0.13306874154E+04  0.13730248504E+04  0.00000000000E+00 0. -1.
          1    1    1    2  502    0 -0.28839430397E+02  0.11831289641E+03  0.58298616392E+02  0.13501252859E+03  0.00000000000E+00 0. -1.
         22    1    3    3    0    0 -0.13008720915E+02 -0.36347064720E+03 -0.50330370317E+03  0.62096276525E+03  0.00000000000E+00 0.  1.
         22    1    3    3    0    0  0.24554096582E+02 -0.92731518201E+02 -0.53900367899E+02  0.11003312132E+03  0.00000000000E+00 0.  1.
</event>
<event>
 7    1  0.8792454E-005  0.5755161E+03  0.7818608E-02  0.1019704E+00
          2   -1    0    0  502    0  0.00000000000E+00  0.00000000000E+00  0.47302575759E+04  0.47302575759E+04  0.00000000000E+00 0. -1.
          1   -1    0    0  501    0 -0.00000000000E+00 -0.00000000000E+00 -0.20179165529E+03  0.20179165529E+03  0.00000000000E+00 0. -1.
         25    2    1    2    0    0 -0.33008925972E+03 -0.50106357540E+03  0.18857142946E+04  0.19828178939E+04  0.12499909399E+03 0.  0.
          2    1    1    2  501    0 -0.54529686927E+02  0.59903314641E+03  0.53680389067E+03  0.80620879076E+03  0.00000000000E+00 0. -1.
          1    1    1    2  502    0  0.38461894664E+03 -0.97969571016E+02  0.21059477354E+04  0.21430225466E+04  0.00000000000E+00 0. -1.
         22    1    3    3    0    0 -0.98931446851E+02 -0.15868261565E+03  0.41496353250E+03  0.45515089475E+03  0.00000000000E+00 0.  1.
         22    1    3    3    0    0 -0.23115781287E+03 -0.34238095975E+03  0.14707507621E+04  0.15276669991E+04  0.00000000000E+00 0.  1.
</event>
<event>
 7    1  0.8792454E-005  0.5151428E+02  0.7818608E-02  0.1448854E+00
          2   -1    0    0  502    0  0.00000000000E+00  0.00000000000E+00  0.92974374961E+03  0.92974374961E+03  0.00000000000E+00 0. -1.
          1   -1    0    0  501    0 -0.00000000000E+00 -0.00000000000E+00 -0.17678313299E+03  0.17678313299E+03  0.00000000000E+00 0. -1.
         25    2    1    2    0    0  0.57168627560E+01 -0.21987226299E+02  0.26520345376E+03  0.29406629132E+03  0.12500396460E+03 0.  0.
          2    1    1    2  501    0  0.46802846878E+02  0.67381384318E+01 -0.15772771090E+03  0.16466310993E+03  0.00000000000E+00 0. -1.
          1    1    1    2  502    0 -0.52519709634E+02  0.15249087867E+02  0.64548487377E+03  0.64779748135E+03  0.00000000000E+00 0. -1.
         22    1    3    3    0    0 -0.21445984619E+01 -0.72003244938E+02  0.11641700967E+03  0.13690137590E+03  0.00000000000E+00 0. -1.
         22    1    3    3    0    0  0.78614612179E+01  0.50016018639E+02  0.14878644409E+03  0.15716491542E+03  0.00000000000E+00 0. -1.
</event>
<event>
 7    1  0.8792454E-005  0.9906527E+02  0.7818608E-02  0.1432093E+00
          2   -1    0    0  502    0  0.00000000000E+00  0.00000000000E+00  0.14822807920E+04  0.14822807920E+04  0.00000000000E+00 0. -1.
          1   -1    0    0  501    0 -0.00000000000E+00 -0.00000000000E+00 -0.14981624778E+02  0.14981624778E+02  0.00000000000E+00 0. -1.
         25    2    1    2    0    0  0.10490758623E+03 -0.36722293190E+02  0.75469034298E+03  0.77300463233E+03  0.12499807740E+03 0.  0.
          2    1    1    2  501    0 -0.12620319139E+02  0.24845793140E+02  0.29979044294E+03  0.30108287160E+03  0.00000000000E+00 0. -1.
          1    1    1    2  502    0 -0.92287267096E+02  0.11876500049E+02  0.41281838126E+03  0.42317491281E+03  0.00000000000E+00 0. -1.
         22    1    3    3    0    0 -0.57607292250E+01 -0.53472999750E+02  0.29672283222E+03  0.30155760124E+03  0.00000000000E+00 0. -1.
         22    1    3    3    0    0  0.11066831546E+03  0.16750706560E+02  0.45796751075E+03  0.47144703109E+03  0.00000000000E+00 0. -1.
</event>
<event>
 7    1  0.8792454E-005  0.4395917E+03  0.7818608E-02  0.1122272E+00
          2   -1    0    0  502    0  0.00000000000E+00  0.00000000000E+00  0.10119605560E+04  0.10119605560E+04  0.00000000000E+00 0. -1.
          1   -1    0    0  501    0 -0.00000000000E+00 -0.00000000000E+00 -0.61252323006E+03  0.61252323006E+03  0.00000000000E+00 0. -1.
         25    2    1    2    0    0 -0.28071228795E+03 -0.34511502653E+03 -0.30985863432E+03  0.55636504126E+03  0.12500366288E+03 0.  0.
          2    1    1    2  501    0  0.36335242928E+03  0.24862957822E+03  0.10770028813E+03  0.45325600613E+03  0.00000000000E+00 0. -1.
          1    1    1    2  502    0 -0.82640141323E+02  0.96485448311E+02  0.60159567213E+03  0.61486273868E+03  0.00000000000E+00 0. -1.
         22    1    3    3    0    0 -0.23112502551E+03 -0.22592784214E+03 -0.27033611314E+03  0.42135944434E+03  0.00000000000E+00 0. -1.
         22    1    3    3    0    0 -0.49587262447E+02 -0.11918718439E+03 -0.39522521179E+02  0.13500559692E+03  0.00000000000E+00 0. -1.
</event>
<event>
 7    1  0.8792454E-005  0.3383425E+03  0.7818608E-02  0.1155002E+00
          2   -1    0    0  502    0  0.00000000000E+00  0.00000000000E+00  0.69794686896E+03  0.69794686896E+03  0.00000000000E+00 0. -1.
          1   -1    0    0  501    0 -0.00000000000E+00 -0.00000000000E+00 -0.42357303242E+03  0.42357303242E+03  0.00000000000E+00 0. -1.
         25    2    1    2    0    0  0.36959003121E+03 -0.15645035499E+03  0.44397322281E+03  0.61140166911E+03  0.12500509459E+03 0.  0.
          2    1    1    2  501    0 -0.32453920789E+03  0.54887924753E+02 -0.21164728846E+03  0.39132206232E+03  0.00000000000E+00 0. -1.
          1    1    1    2  502    0 -0.45050823314E+02  0.10156243024E+03  0.42047902188E+02  0.11879616995E+03  0.00000000000E+00 0. -1.
         22    1    3    3    0    0  0.16759347749E+03 -0.49052510225E+02  0.10930354220E+03  0.20601210352E+03  0.00000000000E+00 0. -1.
         22    1    3    3    0    0  0.20199655371E+03 -0.10739784476E+03  0.33466968061E+03  0.40538956559E+03  0.00000000000E+00 0. -1.
</event>
<event>
 7    1  0.8792454E-005  0.5128977E+03  0.7818608E-02  0.1065669E+00
          2   -1    0    0  502    0  0.00000000000E+00  0.00000000000E+00  0.26759040417E+04  0.26759040417E+04  0.00000000000E+00 0. -1.
          1   -1    0    0  501    0 -0.00000000000E+00 -0.00000000000E+00 -0.20245064370E+03  0.20245064370E+03  0.00000000000E+00 0. -1.
         25    2    1    2    0    0  0.19996129895E+03 -0.57328753295E+03  0.15015680030E+04  0.16244921379E+04  0.12500048728E+03 0.  0.
          2    1    1    2  501    0 -0.31646811820E+03  0.37622539971E+03  0.38668466659E+03  0.62547793934E+03  0.00000000000E+00 0. -1.
          1    1    1    2  502    0  0.11650681925E+03  0.19706213324E+03  0.58520072839E+03  0.62838460818E+03  0.00000000000E+00 0. -1.
         22    1    3    3    0    0  0.14941585862E+03 -0.34947808516E+03  0.78666695902E+03  0.87367324282E+03  0.00000000000E+00 0.  1.
         22    1    3    3    0    0  0.50545440331E+02 -0.22380944779E+03  0.71490104398E+03  0.75081889503E+03  0.00000000000E+00 0.  1.
</event>
<event>
 7    1  0.8792454E-005  0.8702100E+03  0.7818608E-02  0.1035213E+00
          2   -1    0    0  502    0  0.00000000000E+00  0.00000000000E+00  0.13600181920E+04  0.13600181920E+04  0.00000000000E+00 0. -1.
          1   -1    0    0  501    0 -0.00000000000E+00 -0.00000000000E+00 -0.17862436491E+04  0.17862436491E+04  0.00000000000E+00 0. -1.
         25    2    1    2    0    0  0.73708104395E+03 -0.52114309017E+03 -0.12715584850E+04  0.15644054228E+04  0.12499904081E+03 0.  0.
          2    1    1    2  501    0 -0.53593733465E+03  0.57524351206E+03  0.81842688348E+02  0.79046325055E+03  0.00000000000E+00 0. -1.
          1    1    1    2  502    0 -0.20114370931E+03 -0.54100421891E+02  0.76349033953E+03  0.79139316778E+03  0.00000000000E+00 0. -1.
         22    1    3    3    0    0  0.29100866652E+02 -0.48230696526E+02 -0.11718247434E+03  0.13001843262E+03  0.00000000000E+00 0. -1.
         22    1    3    3    0    0  0.70798017730E+03 -0.47291239364E+03 -0.11543760107E+04  0.14343869902E+04  0.00000000000E+00 0. -1.
</event>
<event>
 7    1  0.8792454E-005  0.6363999E+03  0.7818608E-02  0.1168393E+00
          2   -1    0    0  502    0  0.00000000000E+00  0.00000000000E+00  0.17189605778E+04  0.17189605778E+04  0.00000000000E+00 0. -1.
          1   -1    0    0  501    0 -0.00000000000E+00 -0.00000000000E+00 -0.87211403259E+03  0.87211403259E+03  0.00000000000E+00 0. -1.
         25    2    1    2    0    0  0.55614858917E+03  0.29898964798E+03 -0.64168897169E+03  0.90889223765E+03  0.12499720172E+03 0.  0.
          2    1    1    2  501    0 -0.59974005798E+03 -0.32461912205E+03  0.11280420955E+04  0.13181595809E+04  0.00000000000E+00 0. -1.
          1    1    1    2  502    0  0.43591468802E+02  0.25629474075E+02  0.36049342142E+03  0.36402279184E+03  0.00000000000E+00 0. -1.
         22    1    3    3    0    0  0.31989137327E+03  0.22137396288E+03 -0.45044818842E+03  0.59518105866E+03  0.00000000000E+00 0.  1.
         22    1    3    3    0    0  0.23625721591E+03  0.77615685096E+02 -0.19124078327E+03  0.31371117899E+03  0.00000000000E+00 0.  1.
</event>
<event>
 7    1  0.8792454E-005  0.2003190E+03  0.7818608E-02  0.1267377E+00
          2   -1    0    0  502    0  0.00000000000E+00  0.00000000000E+00  0.25746470202E+04  0.25746470202E+04  0.00000000000E+00 0. -1.
          1   -1    0    0  501    0 -0.00000000000E+00 -0.00000000000E+00 -0.63593152453E+02  0.63593152453E+02  0.00000000000E+00 0. -1.
         25    2    1    2    0    0 -0.15501851997E+03 -0.15081550478E+03  0.11100260530E+04  0.11377865123E+04  0.12499700514E+03 0.  0.
          2    1    1    2  501    0  0.54211510151E+02 -0.15985129087E+02 -0.24545893316E+02  0.61619096581E+02  0.00000000000E+00 0. -1.
          1    1    1    2  502    0  0.10080700982E+03  0.16680063387E+03  0.14255737080E+04  0.14388345637E+04  0.00000000000E+00 0. -1.
         22    1    3    3    0    0 -0.41966617055E+02 -0.59124390308E+02  0.14794502640E+03  0.16475624818E+03  0.00000000000E+00 0. -1.
         22    1    3    3    0    0 -0.11305190291E+03 -0.91691114473E+02  0.96208102658E+03  0.97303026414E+03  0.00000000000E+00 0. -1.
</event>
<event>
 7    1  0.8792454E-005  0.2304963E+03  0.7818608E-02  0.1288728E+00
          2   -1    0    0  502    0  0.00000000000E+00  0.00000000000E+00  0.17646695984E+03  0.17646695984E+03  0.00000000000E+00 0. -1.
          1   -1    0    0  501    0 -0.00000000000E+00 -0.00000000000E+00 -0.21937591902E+04  0.21937591902E+04  0.00000000000E+00 0. -1.
         25    2    1    2    0    0  0.20401109561E+03  0.96851874078E+02 -0.16195289076E+04  0.16399685543E+04  0.12498865527E+03 0.  0.
          2    1    1    2  501    0 -0.23422772627E+03 -0.70546151162E+02 -0.53447591001E+03  0.58779578561E+03  0.00000000000E+00 0. -1.
          1    1    1    2  502    0  0.30216630655E+02 -0.26305722916E+02  0.13671258726E+03  0.14246181011E+03  0.00000000000E+00 0. -1.
         22    1    3    3    0    0 -0.15143691563E+02  0.63349422962E+01 -0.20949872759E+03  0.21014085692E+03  0.00000000000E+00 0.  1.
         22    1    3    3    0    0  0.21915478718E+03  0.90516931782E+02 -0.14100301800E+04  0.14298276974E+04  0.00000000000E+00 0.  1.
</event>
<event>
 7    1  0.8792454E-005  0.1748576E+03  0.7818608E-02  0.1244004E+00
          2   -1    0    0  502    0  0.00000000000E+00  0.00000000000E+00  0.31927843503E+03  0.31927843503E+03  0.00000000000E+00 0. -1.
          1   -1    0    0  501    0 -0.00000000000E+00 -0.00000000000E+00 -0.27327950232E+04  0.27327950232E+04  0.00000000000E+00 0. -1.
         25    2    1    2    0    0 -0.21629562476E+03 -0.13191245353E+03 -0.16713904993E+03  0.32824623286E+03  0.12500173873E+03 0.  0.
          2    1    1    2  501    0  0.14925421993E+03  0.85390413563E+02 -0.24750577529E+04  0.24810238260E+04  0.00000000000E+00 0. -1.
          1    1    1    2  502    0  0.67041404828E+02  0.46522039964E+02  0.22868021467E+03  0.24280339937E+03  0.00000000000E+00 0. -1.
         22    1    3    3    0    0 -0.21164385103E+02 -0.34135222422E+02  0.16096387098E+02  0.43269368890E+02  0.00000000000E+00 0. -1.
         22    1    3    3    0    0 -0.19513123966E+03 -0.97777231105E+02 -0.18323543703E+03  0.28497686396E+03  0.00000000000E+00 0. -1.
</event>
<event>
 7    1  0.8792454E-005  0.2423946E+03  0.7818608E-02  0.1173575E+00
          2   -1    0    0  502    0  0.00000000000E+00  0.00000000000E+00  0.13843513410E+04  0.13843513410E+04  0.00000000000E+00 0. -1.
          1   -1    0    0  501    0 -0.00000000000E+00 -0.00000000000E+00 -0.71679334037E+03  0.71679334037E+03  0.00000000000E+00 0. -1.
         25    2    1    2    0    0  0.16308757700E+03 -0.30550602758E+03  0.34774822009E+03  0.50644455224E+03  0.12500307702E+03 0.  0.
          2    1    1    2  501    0 -0.35265094663E+02  0.12006535673E+03 -0.61783713634E+03  0.63038245838E+03  0.00000000000E+00 0. -1.
          1    1    1    2  502    0 -0.12782248233E+03  0.18544067084E+03  0.93764691686E+03  0.96431767073E+03  0.00000000000E+00 0. -1.
         22    1    3    3    0    0  0.43922786594E+02 -0.19572738442E+03  0.23542330240E+03  0.30929363315E+03  0.00000000000E+00 0. -1.
         22    1    3    3    0    0  0.11916479040E+03 -0.10977864315E+03  0.11232491769E+03  0.19715091909E+03  0.00000000000E+00 0. -1.
</event>
<event>
 7    1  0.8792454E-005  0.1203082E+03  0.7818608E-02  0.1257095E+00
          2   -1    0    0  502    0  0.00000000000E+00  0.00000000000E+00  0.81902685755E+03  0.81902685755E+03  0.00000000000E+00 0. -1.
          1   -1    0    0  501    0 -0.00000000000E+00 -0.00000000000E+00 -0.48776944501E+03  0.48776944501E+03  0.00000000000E+00 0. -1.
         25    2    1    2    0    0 -0.94366460565E+02  0.97000986530E+02  0.62806348566E+03  0.65452457908E+03  0.12499784932E+03 0.  0.
          2    1    1    2  501    0  0.10105273232E+03  0.24903546678E+02 -0.44686296260E+03  0.45882278571E+03  0.00000000000E+00 0. -1.
          1    1    1    2  502    0 -0.66862717534E+01 -0.12190453321E+03  0.15005688947E+03  0.19344893777E+03  0.00000000000E+00 0. -1.
         22    1    3    3    0    0 -0.10348746904E+03  0.10868342282E+03  0.61947655316E+03  0.63739543657E+03  0.00000000000E+00 0.  1.
         22    1    3    3    0    0  0.91210084762E+01 -0.11682436292E+02  0.85869324969E+01  0.17129142508E+02  0.00000000000E+00 0.  1.
</event>
<event>
 7    1  0.8792454E-005  0.5995994E+02  0.7818608E-02  0.1457937E+00
          2   -1    0    0  502    0  0.00000000000E+00  0.00000000000E+00  0.77293838042E+02  0.77293838042E+02  0.00000000000E+00 0. -1.
          1   -1    0    0  501    0 -0.00000000000E+00 -0.00000000000E+00 -0.36200195323E+03  0.36200195323E+03  0.00000000000E+00 0. -1.
         25    2    1    2    0    0  0.33677591453E+02  0.51210342552E+01 -0.29748439487E+03  0.32447275717E+03  0.12500079917E+03 0.  0.
          2    1    1    2  501    0  0.22620658391E+02 -0.30543171901E+02 -0.22019178819E+02  0.43925206564E+02  0.00000000000E+00 0. -1.
          1    1    1    2  502    0 -0.56298249844E+02  0.25422137645E+02  0.34795458501E+02  0.70897827542E+02  0.00000000000E+00 0. -1.
         22    1    3    3    0    0  0.23581520600E+02  0.43452728746E+02 -0.27394667029E+03  0.27837206381E+03  0.00000000000E+00 0. -1.
         22    1    3    3    0    0  0.10096070853E+02 -0.38331694491E+02 -0.23537724583E+02  0.46100693355E+02  0.00000000000E+00 0. -1.
</event>
<event>
 7    1  0.8792454E-005  0.6667085E+02  0.7818608E-02  0.1390621E+00
          2   -1    0    0  502    0  0.00000000000E+00  0.00000000000E+00  0.28660828888E+02  0.28660828888E+02  0.00000000000E+00 0. -1.
          1   -1    0    0  501    0 -0.00000000000E+00 -0.00000000000E+00 -0.86522350382E+03  0.86522350382E+03  0.00000000000E+00 0. -1.
         25    2    1    2    0    0  0.32875670163E+02 -0.74678339874E+02 -0.31064504739E+03  0.34464845367E+03  0.12499818803E+03 0.  0.
          2    1    1    2  501    0  0.23171297678E+02  0.63266505041E+02 -0.44541943785E+03  0.45048644298E+03  0.00000000000E+00 0. -1.
          1    1    1    2  502    0 -0.56046967841E+02  0.11411834833E+02 -0.80498189691E+02  0.98749436059E+02  0.00000000000E+00 0. -1.
         22    1    3    3    0    0  0.42074603065E+02 -0.60780863275E+02 -0.64991126892E+02  0.98429833578E+02  0.00000000000E+00 0. -1.
         22    1    3    3    0    0 -0.91989329020E+01 -0.13897476599E+02 -0.24565392050E+03  0.24621862009E+03  0.00000000000E+00 0. -1.
</event>
<event>
 7    1  0.8792454E-005  0.3700547E+03  0.7818608E-02  0.1087900E+00
          2   -1    0    0  502    0  0.00000000000E+00  0.00000000000E+00  0.24126676042E+04  0.24126676042E+04  0.00000000000E+00 0. -1.
          1   -1    0    0  501    0 -0.00000000000E+00 -0.00000000000E+00 -0.13301237605E+04  0.13301237605E+04  0.00000000000E+00 0. -1.
         25    2    1    2    0    0 -0.30222787223E+03 -0.15313573318E+03  0.31718201985E+03  0.48064814519E+03  0.12500386489E+03 0.  0.
          2    1    1    2  501    0  0.12836055618E+03 -0.19655328123E+03 -0.12181438416E+04  0.12405579565E+04  0.00000000000E+00 0. -1.
          1    1    1    2  502    0  0.17386731605E+03  0.34968901441E+03  0.19835056655E+04  0.20215852630E+04  0.00000000000E+00 0. -1.
         22    1    3    3    0    0 -0.96944120720E+02 -0.20009107020E+01  0.42397783409E+02  0.10582881566E+03  0.00000000000E+00 0. -1.
         22    1    3    3    0    0 -0.20528375151E+03 -0.15113482248E+03  0.27478423644E+03  0.37481932953E+03  0.00000000000E+00 0. -1.
</event>
<event>
 7    1  0.8792454E-005  0.1191898E+03  0.7818608E-02  0.1354903E+00
          2   -1    0    0  502    0  0.00000000000E+00  0.00000000000E+00  0.22295959206E+03  0.22295959206E+03  0.00000000000E+00 0. -1.
          1   -1    0    0  501    0 -0.00000000000E+00 -0.00000000000E+00 -0.98509153143E+03  0.98509153143E+03  0.00000000000E+00 0. -1.
         25    2    1    2    0    0 -0.13349442091E+03 -0.77610876381E+02  0.15898036565E+03  0.25444912317E+03  0.12500156429E+03 0.  0.
          2    1    1    2  501    0  0.90557414830E+02  0.76535508983E+02 -0.89607778898E+03  0.90388811997E+03  0.00000000000E+00 0. -1.
          1    1    1    2  502    0  0.42937006080E+02  0.10753673974E+01 -0.25034516033E+02  0.49713880347E+02  0.00000000000E+00 0. -1.
         22    1    3    3    0    0 -0.14685576508E+03 -0.32662434027E+02  0.13320148521E+03  0.20093801531E+03  0.00000000000E+00 0. -1.
         22    1    3    3    0    0  0.13361344172E+02 -0.44948442354E+02  0.25778880442E+02  0.53511107865E+02  0.00000000000E+00 0. -1.
</event>
<event>
 7    1  0.8792454E-005  0.1425260E+03  0.7818608E-02  0.1333164E+00
          2   -1    0    0  502    0  0.00000000000E+00  0.00000000000E+00  0.14110514730E+04  0.14110514730E+04  0.00000000000E+00 0. -1.
          1   -1    0    0  501    0 -0.00000000000E+00 -0.00000000000E+00 -0.29916424877E+02  0.29916424877E+02  0.00000000000E+00 0. -1.
         25    2    1    2    0    0  0.16384195783E+03  0.13181279348E+02  0.97184316783E+03  0.99353776912E+03  0.12498088868E+03 0.  0.
          2    1    1    2  501    0 -0.12976289488E+03 -0.39911156473E+02  0.33453201093E+03  0.36103043588E+03  0.00000000000E+00 0. -1.
          1    1    1    2  502    0 -0.34079062954E+02  0.26729877126E+02  0.74759869417E+02  0.86399692929E+02  0.00000000000E+00 0. -1.
         22    1    3    3    0    0 -0.14454597027E+00  0.31763338514E+02  0.72140543953E+02  0.78823782254E+02  0.00000000000E+00 0. -1.
         22    1    3    3    0    0  0.16398650380E+03 -0.18582059166E+02  0.89970262387E+03  0.91471398686E+03  0.00000000000E+00 0. -1.
</event>
<event>
 7    1  0.8792454E-005  0.6009110E+03  0.7818608E-02  0.1203460E+00
          2   -1    0    0  502    0  0.00000000000E+00  0.00000000000E+00  0.55507620695E+03  0.55507620695E+03  0.00000000000E+00 0. -1.
          1   -1    0    0  501    0 -0.00000000000E+00 -0.00000000000E+00 -0.10515688886E+04  0.10515688886E+04  0.00000000000E+00 0. -1.
         25    2    1    2    0    0 -0.22462711043E+02 -0.58193695532E+03 -0.24380212861E+03  0.64359871052E+03  0.12499851565E+03 0.  0.
          2    1    1    2  501    0  0.38897297918E+02  0.61424986118E+03 -0.44999585827E+03  0.76243830190E+03  0.00000000000E+00 0. -1.
          1    1    1    2  502    0 -0.16434586876E+02 -0.32312905862E+02  0.19730530525E+03  0.20060808311E+03  0.00000000000E+00 0. -1.
         22    1    3    3    0    0  0.18954270511E+02 -0.15270547839E+02 -0.24589895632E+02  0.34599378160E+02  0.00000000000E+00 0.  1.
         22    1    3    3    0    0 -0.41416981554E+02 -0.56666640748E+03 -0.21921223298E+03  0.60899933236E+03  0.00000000000E+00 0.  1.
</event>
<event>
 7    1  0.8792454E-005  0.9216198E+02  0.7818608E-02  0.1340178E+00
          2   -1    0    0  502    0  0.00000000000E+00  0.00000000000E+00  0.72168399161E+03  0.72168399161E+03  0.00000000000E+00 0. -1.
          1   -1    0    0  501    0 -0.00000000000E+00 -0.00000000000E+00 -0.85469910129E+03  0.85469910129E+03  0.00000000000E+00 0. -1.
         25    2    1    2    0    0  0.51362775469E+02  0.35149015553E+02 -0.40250890279E+03  0.42604240169E+03  0.12500049287E+03 0.  0.
          2    1    1    2  501    0 -0.11210618390E+03 -0.18394879004E+02 -0.43166103267E+03  0.44636018547E+03  0.00000000000E+00 0. -1.
          1    1    1    2  502    0  0.60743408433E+02 -0.16754136548E+02  0.70115482578E+03  0.70398050575E+03  0.00000000000E+00 0. -1.
         22    1    3    3    0    0  0.71830600398E+02  0.61074612116E+02 -0.36037149489E+03  0.37250148688E+03  0.00000000000E+00 0.  1.
         22    1    3    3    0    0 -0.20467824928E+02 -0.25925596563E+02 -0.42137407900E+02  0.53540914813E+02  0.00000000000E+00 0.  1.
</event>
<event>
 7    1  0.8792454E-005  0.9290819E+02  0.7818608E-02  0.1351986E+00
          2   -1    0    0  502    0  0.00000000000E+00  0.00000000000E+00  0.77667890757E+03  0.77667890757E+03  0.00000000000E+00 0. -1.
          1   -1    0    0  501    0 -0.00000000000E+00 -0.00000000000E+00 -0.38986413266E+02  0.38986413266E+02  0.00000000000E+00 0. -1.
         25    2    1    2    0    0 -0.51889348661E+02 -0.12897419483E+03  0.28793978860E+03  0.34330978432E+03  0.12500175483E+03 0.  0.
          2    1    1    2  501    0  0.29996016500E+02  0.47857996765E+02  0.12982289671E+03  0.14157730528E+03  0.00000000000E+00 0. -1.
          1    1    1    2  502    0  0.21893332160E+02  0.81116198063E+02  0.31992980899E+03  0.33077823124E+03  0.00000000000E+00 0. -1.
         22    1    3    3    0    0 -0.33299410270E+02 -0.13381672980E+03  0.14888664694E+03  0.20293595427E+03  0.00000000000E+00 0.  1.
         22    1    3    3    0    0 -0.18589938390E+02  0.48425349759E+01  0.13905314166E+03  0.14037383004E+03  0.00000000000E+00 0.  1.
</event>
<event>
 7    1  0.8792454E-005  0.3177987E+02  0.7818608E-02  0.1629048E+00
          2   -1    0    0  502    0  0.00000000000E+00  0.00000000000E+00  0.13928707214E+03  0.13928707214E+03  0.00000000000E+00 0. -1.
          1   -1    0    0  501    0 -0.00000000000E+00 -0.00000000000E+00 -0.40826399963E+03  0.40826399963E+03  0.00000000000E+00 0. -1.
         25    2    1    2    0    0  0.34816388260E+02 -0.14308004521E+02 -0.38791242349E+03  0.40929106415E+03  0.12500490795E+03 0.  0.
          2    1    1    2  501    0 -0.12520152845E+02  0.21989094697E+02  0.10679103003E+02  0.27464845781E+02  0.00000000000E+00 0. -1.
          1    1    1    2  502    0 -0.22296235416E+02 -0.76810901766E+01  0.10825639300E+03  0.11079516183E+03  0.00000000000E+00 0. -1.
         22    1    3    3    0    0  0.15837438184E+02  0.31627351194E+01 -0.38261646562E+03  0.38295716092E+03  0.00000000000E+00 0.  1.
         22    1    3    3    0    0  0.18978950076E+02 -0.17470739640E+02 -0.52959578784E+01  0.26333903232E+02  0.00000000000E+00 0.  1.
</event>
<event>
 7    1  0.8792454E-005  0.2292568E+03  0.7818608E-02  0.1157890E+00
          2   -1    0    0  502    0  0.00000000000E+00  0.00000000000E+00  0.34522721595E+04  0.34522721595E+04  0.00000000000E+00 0. -1.
          1   -1    0    0  501    0 -0.00000000000E+00 -0.00000000000E+00 -0.38292423912E+03  0.38292423912E+03  0.00000000000E+00 0. -1.
         25    2    1    2    0    0 -0.19011240550E+03 -0.26464798521E+03  0.50021752240E+03  0.60993725732E+03  0.12499842143E+03 0.  0.
          2    1    1    2  501    0  0.15231383129E+03  0.43921094183E+02 -0.30430097850E+03  0.34311463279E+03  0.00000000000E+00 0. -1.
          1    1    1    2  502    0  0.37798574208E+02  0.22072689102E+03  0.28734313765E+04  0.28821445086E+04  0.00000000000E+00 0. -1.
         22    1    3    3    0    0 -0.17400121059E+03 -0.26604743765E+03  0.50144258374E+03  0.59371906248E+03  0.00000000000E+00 0.  1.
         22    1    3    3    0    0 -0.16111194912E+02  0.13994524473E+01 -0.12250613410E+01  0.16218194842E+02  0.00000000000E+00 0.  1.
</event>
<event>
 7    1  0.8792454E-005  0.1530783E+03  0.7818608E-02  0.1207362E+00
          2   -1    0    0  502    0  0.00000000000E+00  0.00000000000E+00  0.58991042767E+03  0.58991042767E+03  0.00000000000E+00 0. -1.
          1   -1    0    0  501    0 -0.00000000000E+00 -0.00000000000E+00 -0.18284717609E+04  0.18284717609E+04  0.00000000000E+00 0. -1.
         25    2    1    2    0    0 -0.20280839199E+03 -0.17363692952E+03 -0.28274358721E+03  0.40847131401E+03  0.12499540434E+03 0.  0.
          2    1    1    2  501    0  0.12960857480E+03  0.42682791637E+02 -0.14689616410E+04  0.14752859066E+04  0.00000000000E+00 0. -1.
          1    1    1    2  502    0  0.73199817185E+02  0.13095413789E+03  0.51314389498E+03  0.53462496801E+03  0.00000000000E+00 0. -1.
         22    1    3    3    0    0 -0.21702213231E+03 -0.14196653013E+03 -0.25824759907E+03  0.36598486856E+03  0.00000000000E+00 0.  1.
         22    1    3    3    0    0  0.14213740327E+02 -0.31670399394E+02 -0.24495988138E+02  0.42486445447E+02  0.00000000000E+00 0.  1.
</event>
<event>
 7    1  0.8792454E-005  0.4100546E+03  0.7818608E-02  0.1129366E+00
          2   -1    0    0  502    0  0.00000000000E+00  0.00000000000E+00  0.58408751036E+03  0.58408751036E+03  0.00000000000E+00 0. -1.
          1   -1    0    0  501    0 -0.00000000000E+00 -0.00000000000E+00 -0.13934903694E+04  0.13934903694E+04  0.00000000000E+00 0. -1.
         25    2    1    2    0    0  0.36844082187E+03 -0.30613806548E+03  0.19541296108E+03  0.53224097720E+03  0.12500031237E+03 0.  0.
          2    1    1    2  501    0 -0.24474081114E+03  0.32225221072E+03 -0.11701956655E+04  0.12381851427E+04  0.00000000000E+00 0. -1.
          1    1    1    2  502    0 -0.12370001073E+03 -0.16114145242E+02  0.16537984544E+03  0.20715175985E+03  0.00000000000E+00 0. -1.
         22    1    3    3    0    0  0.30883494037E+03 -0.28526545032E+03  0.12711635354E+03  0.43921972278E+03  0.00000000000E+00 0. -1.
         22    1    3    3    0    0  0.59605881503E+02 -0.20872615165E+02  0.68296607532E+02  0.93021254421E+02  0.00000000000E+00 0. -1.
</event>
<event>
 7    1  0.8792454E-005  0.1135176E+03  0.7818608E-02  0.1285823E+00
          2   -1    0    0  502    0  0.00000000000E+00  0.00000000000E+00  0.30603331405E+03  0.30603331405E+03  0.00000000000E+00 0. -1.
          1   -1    0    0  501    0 -0.00000000000E+00 -0.00000000000E+00 -0.33230484753E+03  0.33230484753E+03  0.00000000000E+00 0. -1.
         25    2    1    2    0    0  0.13970005893E+03 -0.98622830556E+01 -0.14967959344E+03  0.24008802470E+03  0.12499963127E+03 0.  0.
          2    1    1    2  501    0 -0.82556514054E+02  0.70883589487E+02 -0.10732694927E+03  0.15283695662E+03  0.00000000000E+00 0. -1.
          1    1    1    2  502    0 -0.57143544880E+02 -0.61021306431E+02  0.23073500923E+03  0.24541318026E+03  0.00000000000E+00 0. -1.
         22    1    3    3    0    0  0.16032349849E+03  0.72163610235E+01 -0.13388568340E+03  0.20900018243E+03  0.00000000000E+00 0.  1.
         22    1    3    3    0    0 -0.20623439559E+02 -0.17078644079E+02 -0.15793910040E+02  0.31087842273E+02  0.00000000000E+00 0.  1.
</event>
<event>
 7    1  0.8792454E-005  0.2228750E+03  0.7818608E-02  0.1243237E+00
          2   -1    0    0  502    0  0.00000000000E+00  0.00000000000E+00  0.55248579125E+03  0.55248579125E+03  0.00000000000E+00 0. -1.
          1   -1    0    0  501    0 -0.00000000000E+00 -0.00000000000E+00 -0.39819779457E+03  0.39819779457E+03  0.00000000000E+00 0. -1.
         25    2    1    2    0    0  0.54961646502E+02  0.20325542248E+03 -0.19728843662E+03  0.31445437814E+03  0.12500111740E+03 0.  0.
          2    1    1    2  501    0 -0.11691369336E+03 -0.22127410193E+03 -0.27438833404E+02  0.25176165208E+03  0.00000000000E+00 0. -1.
          1    1    1    2  502    0  0.61952046853E+02  0.18018679449E+02  0.37901526670E+03  0.38446755560E+03  0.00000000000E+00 0. -1.
         22    1    3    3    0    0  0.61077745730E+02  0.12449637987E+03 -0.18985976214E+03  0.23510969547E+03  0.00000000000E+00 0. -1.
         22    1    3    3    0    0 -0.61160992284E+01  0.78759042613E+02 -0.74286744815E+01  0.79344682668E+02  0.00000000000E+00 0. -1.
</event>
<event>
 7    1  0.8792454E-005  0.3865997E+03  0.7818608E-02  0.1115333E+00
          2   -1    0    0  502    0  0.00000000000E+00  0.00000000000E+00  0.10481083330E+04  0.10481083330E+04  0.00000000000E+00 0. -1.
          1   -1    0    0  501    0 -0.00000000000E+00 -0.00000000000E+00 -0.11775342176E+04  0.11775342176E+04  0.00000000000E+00 0. -1.
         25    2    1    2    0    0  0.84011451523E+02 -0.12428185016E+03 -0.95350305180E+03  0.97329170977E+03  0.12499912098E+03 0.  0.
          2    1    1    2  501    0 -0.27437269209E+03  0.46076652819E+03  0.34893054887E+03  0.63979582337E+03  0.00000000000E+00 0. -1.
          1    1    1    2  502    0  0.19036124057E+03 -0.33648467803E+03  0.47514661830E+03  0.61255501740E+03  0.00000000000E+00 0. -1.
         22    1    3    3    0    0 -0.12398296540E+00  0.51692797694E+01 -0.35997301919E+03  0.36001015454E+03  0.00000000000E+00 0. -1.
         22    1    3    3    0    0  0.84135434489E+02 -0.12945112993E+03 -0.59353003261E+03  0.61328155523E+03  0.00000000000E+00 0. -1.
</event>
<event>
 7    1  0.8792454E-005  0.2042419E+03  0.7818608E-02  0.1200283E+00
          2   -1    0    0  502    0  0.00000000000E+00  0.00000000000E+00  0.19680979173E+04  0.19680979173E+04  0.00000000000E+00 0. -1.
          1   -1    0    0  501    0 -0.00000000000E+00 -0.00000000000E+00 -0.14882870847E+03  0.14882870847E+03  0.00000000000E+00 0. -1.
         25    2    1    2    0    0  0.22121144695E+03 -0.23973447680E+02  0.29860852186E+03  0.39281224526E+03  0.12500072095E+03 0.  0.
          2    1    1    2  501    0 -0.16670894925E+03  0.11997107748E+03  0.60423677790E+01  0.20547857163E+03  0.00000000000E+00 0. -1.
          1    1    1    2  502    0 -0.54502497697E+02 -0.95997629796E+02  0.15146183192E+04  0.15186358089E+04  0.00000000000E+00 0. -1.
         22    1    3    3    0    0  0.49610736732E+02 -0.30758002228E+02  0.16562016081E+03  0.17560557385E+03  0.00000000000E+00 0.  1.
         22    1    3    3    0    0  0.17160071022E+03  0.67845545484E+01  0.13298836105E+03  0.21720667140E+03  0.00000000000E+00 0.  1.
</event>
<event>
 7    1  0.8792454E-005  0.5360024E+02  0.7818608E-02  0.1443725E+00
          2   -1    0    0  502    0  0.00000000000E+00  0.00000000000E+00  0.81122107109E+02  0.81122107109E+02  0.00000000000E+00 0. -1.
          1   -1    0    0  501    0 -0.00000000000E+00 -0.00000000000E+00 -0.13126757193E+04  0.13126757193E+04  0.00000000000E+00 0. -1.
         25    2    1    2    0    0 -0.40893220015E+02 -0.33668625991E+01 -0.79610873259E+03  0.80690639116E+03  0.12500087511E+03 0.  0.
          2    1    1    2  501    0  0.15857882543E+02 -0.44461249713E+02 -0.50029233368E+03  0.50251437223E+03  0.00000000000E+00 0. -1.
          1    1    1    2  502    0  0.25035337471E+02  0.47828112312E+02  0.64847454122E+02  0.84377062971E+02  0.00000000000E+00 0. -1.
         22    1    3    3    0    0 -0.14297609135E+02 -0.39745340049E+02 -0.90626488099E+02  0.99986369210E+02  0.00000000000E+00 0. -1.
         22    1    3    3    0    0 -0.26595610880E+02  0.36378477450E+02 -0.70548224449E+03  0.70692002195E+03  0.00000000000E+00 0. -1.
</event>
<event>
 7    1  0.8792454E-005  0.2237025E+03  0.7818608E-02  0.1362373E+00
          2   -1    0    0  502    0  0.00000000000E+00  0.00000000000E+00  0.52959088837E+03  0.52959088837E+03  0.00000000000E+00 0. -1.
          1   -1    0    0  501    0 -0.00000000000E+00 -0.00000000000E+00 -0.13967003135E+04  0.13967003135E+04  0.00000000000E+00 0. -1.
         25    2    1    2    0    0 -0.13662085513E+03 -0.17765898419E+03  0.85373786458E+02  0.27044716915E+03  0.12500006068E+03 0.  0.
          2    1    1    2  501    0  0.15275734257E+03  0.16346753717E+03 -0.12942281525E+04  0.13134241326E+04  0.00000000000E+00 0. -1.
          1    1    1    2  502    0 -0.16136487439E+02  0.14191447017E+02  0.34174494088E+03  0.34241990014E+03  0.00000000000E+00 0. -1.
         22    1    3    3    0    0 -0.15150125853E+02  0.96507729291E+00  0.49120611289E+02  0.51412956936E+02  0.00000000000E+00 0. -1.
         22    1    3    3    0    0 -0.12147072927E+03 -0.17862406148E+03  0.36253175169E+02  0.21903421221E+03  0.00000000000E+00 0. -1.
</event>
<event>
 7    1  0.8792454E-005  0.3296852E+03  0.7818608E-02  0.1099375E+00
          2   -1    0    0  502    0  0.00000000000E+00  0.00000000000E+00  0.98762200434E+03  0.98762200434E+03  0.00000000000E+00 0. -1.
          1   -1    0    0  501    0 -0.00000000000E+00 -0.00000000000E+00 -0.68999138585E+03  0.68999138585E+03  0.00000000000E+00 0. -1.
         25    2    1    2    0    0 -0.46641213528E+02 -0.35939718453E+03  0.38219520076E+03  0.54133050731E+03  0.12499523035E+03 0.  0.
          2    1    1    2  501    0 -0.19190148054E+03  0.12059488447E+03 -0.53057043535E+03  0.57695259013E+03  0.00000000000E+00 0. -1.
          1    1    1    2  502    0  0.23854269407E+03  0.23880230007E+03  0.44600585307E+03  0.55933029275E+03  0.00000000000E+00 0. -1.
         22    1    3    3    0    0 -0.58924758284E+02 -0.11327564622E+03  0.77148760464E+02  0.14918254055E+03  0.00000000000E+00 0. -1.
         22    1    3    3    0    0  0.12283544756E+02 -0.24612153832E+03  0.30504644029E+03  0.39214796675E+03  0.00000000000E+00 0. -1.
</event>
<event>
 7    1  0.8792454E-005  0.3537844E+03  0.7818608E-02  0.1104381E+00
          2   -1    0    0  502    0  0.00000000000E+00  0.00000000000E+00  0.11163209862E+04  0.11163209862E+04  0.00000000000E+00 0. -1.
          1   -1    0    0  501    0 -0.00000000000E+00 -0.00000000000E+00 -0.58988340213E+03  0.58988340213E+03  0.00000000000E+00 0. -1.
         25    2    1    2    0    0  0.37528301212E+03 -0.10263313922E+03  0.91590502176E+03  0.10029350795E+04  0.12500345699E+03 0.  0.
          2    1    1    2  501    0 -0.34302447840E+03 -0.92692795626E+02 -0.13327709532E+03  0.37950037059E+03  0.00000000000E+00 0. -1.
          1    1    1    2  502    0 -0.32258533719E+02  0.19532593485E+03 -0.25619034242E+03  0.32376893825E+03  0.00000000000E+00 0. -1.
         22    1    3    3    0    0  0.32617074736E+03 -0.12442611255E+03  0.72593470687E+03  0.80551251546E+03  0.00000000000E+00 0. -1.
         22    1    3    3    0    0  0.49112264761E+02  0.21792973324E+02  0.18997031489E+03  0.19742256400E+03  0.00000000000E+00 0. -1.
</event>
<event>
 7    1  0.8792454E-005  0.2527717E+03  0.7818608E-02  0.1197798E+00
          2   -1    0    0  502    0  0.00000000000E+00  0.00000000000E+00  0.19706503507E+04  0.19706503507E+04  0.00000000000E+00 0. -1.
          1   -1    0    0  501    0 -0.00000000000E+00 -0.00000000000E+00 -0.53135870975E+02  0.53135870975E+02  0.00000000000E+00 0. -1.
         25    2    1    2    0    0  0.19007523036E+03  0.17529010732E+03  0.66577821766E+03  0.72507986483E+03  0.12499984143E+03 0.  0.
          2    1    1    2  501    0 -0.23562403533E+03 -0.95771224672E+02  0.93563365136E+03  0.96958813063E+03  0.00000000000E+00 0. -1.
          1    1    1    2  502    0  0.45548804969E+02 -0.79518882645E+02  0.31610261074E+03  0.32911822625E+03  0.00000000000E+00 0. -1.
         22    1    3    3    0    0  0.10084353390E+03  0.18237453730E+02  0.30220207343E+03  0.31910518051E+03  0.00000000000E+00 0.  1.
         22    1    3    3    0    0  0.89231696460E+02  0.15705265359E+03  0.36357614423E+03  0.40597468432E+03  0.00000000000E+00 0.  1.
</event>
<event>
 7    1  0.8792454E-005  0.1426746E+03  0.7818608E-02  0.1323277E+00
          2   -1    0    0  502    0  0.00000000000E+00  0.00000000000E+00  0.41001894421E+03  0.41001894421E+03  0.00000000000E+00 0. -1.
          1   -1    0    0  501    0 -0.00000000000E+00 -0.00000000000E+00 -0.21944514396E+04  0.21944514396E+04  0.00000000000E+00 0. -1.
         25    2    1    2    0    0  0.64581262115E+02  0.13013575526E+03  0.82390845738E+02  0.20861064058E+03  0.12499637470E+03 0.  0.
          2    1    1    2  501    0 -0.45576856381E+02  0.12305534812E+02 -0.21115409542E+04  0.21120686251E+04  0.00000000000E+00 0. -1.
          1    1    1    2  502    0 -0.19004405734E+02 -0.14244129008E+03  0.24471761307E+03  0.28379111808E+03  0.00000000000E+00 0. -1.
         22    1    3    3    0    0  0.50315133823E+02  0.97252087780E+02  0.11596955740E+03  0.15949457518E+03  0.00000000000E+00 0.  1.
         22    1    3    3    0    0  0.14266128291E+02  0.32883667484E+02 -0.33578711659E+02  0.49116065399E+02  0.00000000000E+00 0.  1.
</event>
<event>
 7    1  0.8792454E-005  0.1399152E+03  0.7818608E-02  0.1230125E+00
          2   -1    0    0  502    0  0.00000000000E+00  0.00000000000E+00  0.12229020455E+04  0.12229020455E+04  0.00000000000E+00 0. -1.
          1   -1    0    0  501    0 -0.00000000000E+00 -0.00000000000E+00 -0.49377078700E+02  0.49377078700E+02  0.00000000000E+00 0. -1.
         25    2    1    2    0    0  0.29972734259E+01 -0.80664819972E+02  0.35249351457E+03  0.38261476742E+03  0.12500634227E+03 0.  0.
          2    1    1    2  501    0  0.12699643651E+02  0.19710971692E+03  0.32847667993E+03  0.38328899112E+03  0.00000000000E+00 0. -1.
          1    1    1    2  502    0 -0.15696917077E+02 -0.11644489695E+03  0.49255477231E+03  0.50637536567E+03  0.00000000000E+00 0. -1.
         22    1    3    3    0    0 -0.19819396390E+02 -0.21260311758E+02  0.51848824296E+01  0.29524436237E+02  0.00000000000E+00 0. -1.
         22    1    3    3    0    0  0.22816669816E+02 -0.59404508214E+02  0.34730863214E+03  0.35309033119E+03  0.00000000000E+00 0. -1.
</event>
<event>
 7    1  0.8792454E-005  0.2337088E+03  0.7818608E-02  0.1136347E+00
          2   -1    0    0  502    0  0.00000000000E+00  0.00000000000E+00  0.22274869888E+03  0.22274869888E+03  0.00000000000E+00 0. -1.
          1   -1    0    0  501    0 -0.00000000000E+00 -0.00000000000E+00 -0.21339422030E+04  0.21339422030E+04  0.00000000000E+00 0. -1.
         25    2    1    2    0    0  0.92706605655E+02 -0.34317885539E+03 -0.31372644005E+03  0.49031991773E+03  0.12499240383E+03 0.  0.
          2    1    1    2  501    0  0.59395950947E+02  0.19200135673E+03 -0.16361587131E+04  0.16484561670E+04  0.00000000000E+00 0. -1.
          1    1    1    2  502    0 -0.15210255660E+03  0.15117749866E+03  0.38691649063E+02  0.21791481715E+03  0.00000000000E+00 0. -1.
         22    1    3    3    0    0  0.36578564913E+02 -0.26023763237E+03 -0.28152882883E+03  0.38512348432E+03  0.00000000000E+00 0.  1.
         22    1    3    3    0    0  0.56128040741E+02 -0.82941223023E+02 -0.32197611220E+02  0.10519643341E+03  0.00000000000E+00 0.  1.
</event>
<event>
 7    1  0.8792454E-005  0.2511384E+03  0.7818608E-02  0.1310570E+00
          2   -1    0    0  502    0  0.00000000000E+00  0.00000000000E+00  0.54672569908E+03  0.54672569908E+03  0.00000000000E+00 0. -1.
          1   -1    0    0  501    0 -0.00000000000E+00 -0.00000000000E+00 -0.20854845000E+04  0.20854845000E+04  0.00000000000E+00 0. -1.
         25    2    1    2    0    0 -0.23393190780E+03  0.32676856615E+02  0.37743287517E+03  0.46246290890E+03  0.12499780960E+03 0.  0.
          2    1    1    2  501    0  0.24391884546E+03 -0.61029898136E+02 -0.20333280279E+04  0.20488152480E+04  0.00000000000E+00 0. -1.
          1    1    1    2  502    0 -0.99869376596E+01  0.28353041521E+02  0.11713635183E+03  0.12093204210E+03  0.00000000000E+00 0. -1.
         22    1    3    3    0    0 -0.22516381255E+03  0.57075946378E+02  0.36738209320E+03  0.43465619579E+03  0.00000000000E+00 0.  1.
         22    1    3    3    0    0 -0.87680952474E+01 -0.24399089764E+02  0.10050781970E+02  0.27806713106E+02  0.00000000000E+00 0.  1.
</event>
<event>
 7    1  0.8792454E-005  0.1371202E+03  0.7818608E-02  0.1276799E+00
          2   -1    0    0  502    0  0.00000000000E+00  0.00000000000E+00  0.47016702070E+03  0.47016702070E+03  0.00000000000E+00 0. -1.
          1   -1    0    0  501    0 -0.00000000000E+00 -0.00000000000E+00 -0.88903794782E+02  0.88903794782E+02  0.00000000000E+00 0. -1.
         25    2    1    2    0    0  0.11421331081E+03 -0.51001813292E+02  0.20552129191E+03  0.27112656956E+03  0.12499899988E+03 0.  0.
          2    1    1    2  501    0 -0.90514969603E+02  0.12258318129E+03  0.12456559305E+03  0.19681509858E+03  0.00000000000E+00 0. -1.
          1    1    1    2  502    0 -0.23698341203E+02 -0.71581368001E+02  0.51176340966E+02  0.91129147342E+02  0.00000000000E+00 0. -1.
         22    1    3    3    0    0  0.11227032482E+03 -0.52460398132E+02  0.22212044005E+03  0.25435056339E+03  0.00000000000E+00 0. -1.
         22    1    3    3    0    0  0.19429859804E+01  0.14585848395E+01 -0.16599148140E+02  0.16776006176E+02  0.00000000000E+00 0. -1.
</event>
<event>
 7    1  0.8792454E-005  0.6093981E+02  0.7818608E-02  0.1430949E+00
          2   -1    0    0  502    0  0.00000000000E+00  0.00000000000E+00  0.78162615180E+02  0.78162615180E+02  0.00000000000E+00 0. -1.
          1   -1    0    0  501    0 -0.00000000000E+00 -0.00000000000E+00 -0.14084537805E+04  0.14084537805E+04  0.00000000000E+00 0. -1.
         25    2    1    2    0    0 -0.23952266291E+02 -0.81816048253E+02 -0.16481193145E+03  0.22372976387E+03  0.12499783070E+03 0.  0.
          2    1    1    2  501    0  0.44599258116E+02  0.41051368720E+02 -0.12025307087E+04  0.12040574796E+04  0.00000000000E+00 0. -1.
          1    1    1    2  502    0 -0.20646991826E+02  0.40764679533E+02  0.37051474830E+02  0.58829152263E+02  0.00000000000E+00 0. -1.
         22    1    3    3    0    0  0.22416942408E+02 -0.57122198037E+02 -0.15953654645E+03  0.17093090554E+03  0.00000000000E+00 0.  1.
         22    1    3    3    0    0 -0.46369208698E+02 -0.24693850216E+02 -0.52753850025E+01  0.52798858328E+02  0.00000000000E+00 0.  1.
</event>
<event>
 7    1  0.8792454E-005  0.8099062E+03  0.7818608E-02  0.9885275E-01
          2   -1    0    0  502    0  0.00000000000E+00  0.00000000000E+00  0.10586744735E+04  0.10586744735E+04  0.00000000000E+00 0. -1.
          1   -1    0    0  501    0 -0.00000000000E+00 -0.00000000000E+00 -0.15142529977E+04  0.15142529977E+04  0.00000000000E+00 0. -1.
         25    2    1    2    0    0 -0.66493455560E+03 -0.57056677683E+02 -0.18012280414E+03  0.70246854766E+03  0.12499763272E+03 0.  0.
          2    1    1    2  501    0  0.85335535565E+03  0.47575216153E+03 -0.73365397149E+03  0.12218034343E+04  0.00000000000E+00 0. -1.
          1    1    1    2  502    0 -0.18842080004E+03 -0.41869548384E+03  0.45819825149E+03  0.64865548926E+03  0.00000000000E+00 0. -1.
         22    1    3    3    0    0 -0.40355683705E+03 -0.91819754293E+02 -0.87699437815E+02  0.42306049142E+03  0.00000000000E+00 0.  1.
         22    1    3    3    0    0 -0.26137771855E+03  0.34763076610E+02 -0.92423366327E+02  0.27940805624E+03  0.00000000000E+00 0.  1.
</event>
<event>
 7    1  0.8792454E-005  0.2927759E+03  0.7818608E-02  0.1150340E+00
          2   -1    0    0  502    0  0.00000000000E+00  0.00000000000E+00  0.65987739516E+03  0.65987739516E+03  0.00000000000E+00 0. -1.
          1   -1    0    0  501    0 -0.00000000000E+00 -0.00000000000E+00 -0.78395183224E+03  0.78395183224E+03  0.00000000000E+00 0. -1.
         25    2    1    2    0    0 -0.19737506207E+03 -0.30316661945E+03 -0.69444108885E+02  0.38899236965E+03  0.12500266041E+03 0.  0.
          2    1    1    2  501    0  0.22353466645E+03  0.17005862106E+03 -0.50861744858E+03  0.58101582655E+03  0.00000000000E+00 0. -1.
          1    1    1    2  502    0 -0.26159604374E+02  0.13310799839E+03  0.45398712038E+03  0.47382103120E+03  0.00000000000E+00 0. -1.
         22    1    3    3    0    0 -0.18808371790E+03 -0.31418841298E+03 -0.58351242175E+02  0.37080279294E+03  0.00000000000E+00 0.  1.
         22    1    3    3    0    0 -0.92913441743E+01  0.11021793527E+02 -0.11092866710E+02  0.18189576712E+02  0.00000000000E+00 0.  1.
</event>
<event>
 7    1  0.8792454E-005  0.5094935E+03  0.7818608E-02  0.1046191E+00
          2   -1    0    0  502    0  0.00000000000E+00  0.00000000000E+00  0.62826958127E+03  0.62826958127E+03  0.00000000000E+00 0. -1.
          1   -1    0    0  501    0 -0.00000000000E+00 -0.00000000000E+00 -0.26247746862E+04  0.26247746862E+04  0.00000000000E+00 0. -1.
         25    2    1    2    0    0 -0.18171032270E+03 -0.37820805529E+03 -0.32664286726E+03  0.54624255366E+03  0.12500156094E+03 0.  0.
          2    1    1    2  501    0  0.24579465312E+03 -0.17772154163E+03 -0.20226528734E+04  0.20452688342E+04  0.00000000000E+00 0. -1.
          1    1    1    2  502    0 -0.64084330426E+02  0.55592959692E+03  0.35279063574E+03  0.66153287960E+03  0.00000000000E+00 0. -1.
         22    1    3    3    0    0 -0.59758477915E+02 -0.17112289765E+03 -0.21511838896E+03  0.28130062753E+03  0.00000000000E+00 0. -1.
         22    1    3    3    0    0 -0.12195184478E+03 -0.20708515764E+03 -0.11152447831E+03  0.26494192613E+03  0.00000000000E+00 0. -1.
</event>
<event>
 7    1  0.8792454E-005  0.6744023E+03  0.7818608E-02  0.1040971E+00
          2   -1    0    0  502    0  0.00000000000E+00  0.00000000000E+00  0.36350167741E+03  0.36350167741E+03  0.00000000000E+00 0. -1.
          1   -1    0    0  501    0 -0.00000000000E+00 -0.00000000000E+00 -0.19093221246E+04  0.19093221246E+04  0.00000000000E+00 0. -1.
         25    2    1    2    0    0 -0.52641716027E+03 -0.21110607927E+03 -0.73319523077E+03  0.93535087034E+03  0.12500080358E+03 0.  0.
          2    1    1    2  501    0 -0.22868038496E+03  0.93603485578E+02 -0.39688611259E+03  0.46751996465E+03  0.00000000000E+00 0. -1.
          1    1    1    2  502    0  0.75509754523E+03  0.11750259370E+03 -0.41573910378E+03  0.86995296697E+03  0.00000000000E+00 0. -1.
         22    1    3    3    0    0 -0.47770049001E+03 -0.19788018526E+03 -0.71351863963E+03  0.88117147876E+03  0.00000000000E+00 0.  1.
         22    1    3    3    0    0 -0.48716670260E+02 -0.13225894013E+02 -0.19676591136E+02  0.54179391584E+02  0.00000000000E+00 0.  1.
</event>
<event>
 7    1  0.8792454E-005  0.1149010E+03  0.7818608E-02  0.1298085E+00
          2   -1    0    0  502    0  0.00000000000E+00  0.00000000000E+00  0.10942615080E+03  0.10942615080E+03  0.00000000000E+00 0. -1.
          1   -1    0    0  501    0 -0.00000000000E+00 -0.00000000000E+00 -0.91544850555E+03  0.91544850555E+03  0.00000000000E+00 0. -1.
         25    2    1    2    0    0  0.16817444152E+02  0.14084999065E+03 -0.59471185761E+03  0.62404301223E+03  0.12500376487E+03 0.  0.
          2    1    1    2  501    0 -0.63939270567E+02 -0.36571499466E+02 -0.26455623951E+03  0.27461920682E+03  0.00000000000E+00 0. -1.
          1    1    1    2  502    0  0.47121826415E+02 -0.10427849118E+03  0.53245742378E+02  0.12621243730E+03  0.00000000000E+00 0. -1.
         22    1    3    3    0    0  0.14171562065E+01  0.15690715159E+02  0.35776780578E+00  0.15758644349E+02  0.00000000000E+00 0. -1.
         22    1    3    3    0    0  0.15400287946E+02  0.12515927549E+03 -0.59506962542E+03  0.60828436788E+03  0.00000000000E+00 0. -1.
</event>
<event>
 7    1  0.8792454E-005  0.1002523E+03  0.7818608E-02  0.1302494E+00
          2   -1    0    0  502    0  0.00000000000E+00  0.00000000000E+00  0.49287581045E+03  0.49287581045E+03  0.00000000000E+00 0. -1.
          1   -1    0    0  501    0 -0.00000000000E+00 -0.00000000000E+00 -0.13589361468E+03  0.13589361468E+03  0.00000000000E+00 0. -1.
         25    2    1    2    0    0  0.10162430005E+03 -0.16468505836E+02  0.39056313855E+03  0.42280395479E+03  0.12499963581E+03 0.  0.
          2    1    1    2  501    0 -0.92286803627E+01  0.80535175237E+02  0.16758513194E+02  0.82776390089E+02  0.00000000000E+00 0. -1.
          1    1    1    2  502    0 -0.92395619683E+02 -0.64066669401E+02 -0.50339455969E+02  0.12318908025E+03  0.00000000000E+00 0. -1.
         22    1    3    3    0    0 -0.22329767788E+02 -0.28996865168E+02  0.72573354808E+02  0.81279324229E+02  0.00000000000E+00 0.  1.
         22    1    3    3    0    0  0.12395406783E+03  0.12528359332E+02  0.31798978374E+03  0.34152463056E+03  0.00000000000E+00 0.  1.
</event>
<event>
 7    1  0.8792454E-005  0.7558890E+03  0.7818608E-02  0.1024277E+00
          2   -1    0    0  502    0  0.00000000000E+00  0.00000000000E+00  0.14585470395E+04  0.14585470395E+04  0.00000000000E+00 0. -1.
          1   -1    0    0  501    0 -0.00000000000E+00 -0.00000000000E+00 -0.19017194185E+04  0.19017194185E+04  0.00000000000E+00 0. -1.
         25    2    1    2    0    0  0.69428044118E+03  0.38433180540E+03 -0.15846580496E+04  0.17766546953E+04  0.12499801751E+03 0.  0.
          2    1    1    2  501    0 -0.58838755790E+03 -0.12290334332E+03  0.25429770188E+03  0.65266566577E+03  0.00000000000E+00 0. -1.
          1    1    1    2  502    0 -0.10589288329E+03 -0.26142846208E+03  0.88718796873E+03  0.93094609692E+03  0.00000000000E+00 0. -1.
         22    1    3    3    0    0  0.12681022725E+03  0.59340490198E+02 -0.39546628848E+03  0.41951842968E+03  0.00000000000E+00 0. -1.
         22    1    3    3    0    0  0.56747021393E+03  0.32499131520E+03 -0.11891917612E+04  0.13571362656E+04  0.00000000000E+00 0. -1.
</event>
<event>
 7    1  0.8792454E-005  0.6303292E+03  0.7818608E-02  0.1097733E+00
          2   -1    0    0  502    0  0.00000000000E+00  0.00000000000E+00  0.89220098069E+03  0.89220098069E+03  0.00000000000E+00 0. -1.
          1   -1    0    0  501    0 -0.00000000000E+00 -0.00000000000E+00 -0.69378202726E+03  0.69378202726E+03  0.00000000000E+00 0. -1.
         25    2    1    2    0    0  0.60109910664E+03  0.94308917241E+02  0.13931801322E+03  0.63659191838E+03  0.12500181547E+03 0.  0.
          2    1    1    2  501    0 -0.64782897220E+03  0.17416558327E+02 -0.18751350139E+03  0.67464585297E+03  0.00000000000E+00 0. -1.
          1    1    1    2  502    0  0.46729865563E+02 -0.11172547557E+03  0.24661444159E+03  0.27474523659E+03  0.00000000000E+00 0. -1.
         22    1    3    3    0    0  0.49528300472E+03  0.10264103478E+03  0.15561692732E+03  0.52920418068E+03  0.00000000000E+00 0.  1.
         22    1    3    3    0    0  0.10581610192E+03 -0.83321175372E+01 -0.16298914092E+02  0.10738773770E+03  0.00000000000E+00 0.  1.
</event>
<event>
 7    1  0.8792454E-005  0.1578123E+03  0.7818608E-02  0.1191777E+00
          2   -1    0    0  502    0  0.00000000000E+00  0.00000000000E+00  0.15452768706E+04  0.15452768706E+04  0.00000000000E+00 0. -1.
          1   -1    0    0  501    0 -0.00000000000E+00 -0.00000000000E+00 -0.11288709158E+04  0.11288709158E+04  0.00000000000E+00 0. -1.
         25    2    1    2    0    0 -0.17105682944E+03 -0.16425722895E+03  0.14606737776E+04  0.14850703103E+04  0.12500026241E+03 0.  0.
          2    1    1    2  501    0  0.15751713430E+03  0.80502023548E+01 -0.10179438321E+04  0.10300903352E+04  0.00000000000E+00 0. -1.
          1    1    1    2  502    0  0.13539695138E+02  0.15620702660E+03 -0.26323990824E+02  0.15898714098E+03  0.00000000000E+00 0. -1.
         22    1    3    3    0    0 -0.13677786367E+03 -0.14400716809E+03  0.84160558141E+03  0.86472319450E+03  0.00000000000E+00 0.  1.
         22    1    3    3    0    0 -0.34278965777E+02 -0.20250060866E+02  0.61906819621E+03  0.62034711575E+03  0.00000000000E+00 0.  1.
</event>
<event>
 7    1  0.8792454E-005  0.1979037E+03  0.7818608E-02  0.1285133E+00
          2   -1    0    0  502    0  0.00000000000E+00  0.00000000000E+00  0.16437752877E+03  0.16437752877E+03  0.00000000000E+00 0. -1.
          1   -1    0    0  501    0 -0.00000000000E+00 -0.00000000000E+00 -0.70526781510E+03  0.70526781510E+03  0.00000000000E+00 0. -1.
         25    2    1    2    0    0 -0.70965598635E+02 -0.16863064788E+03 -0.32613274869E+03  0.39428134206E+03  0.12499118102E+03 0.  0.
          2    1    1    2  501    0  0.11810061864E+03  0.17901849506E+03 -0.30510023695E+03  0.37293636493E+03  0.00000000000E+00 0. -1.
          1    1    1    2  502    0 -0.47135020005E+02 -0.10387847178E+02  0.90342699307E+02  0.10242763689E+03  0.00000000000E+00 0. -1.
         22    1    3    3    0    0 -0.28018760023E+02  0.15821196749E+02 -0.45946192619E+02  0.56092903258E+02  0.00000000000E+00 0.  1.
         22    1    3    3    0    0 -0.42946838612E+02 -0.18445184463E+03 -0.28018655607E+03  0.33818843880E+03  0.00000000000E+00 0.  1.
</event>
<event>
 7    1  0.8792454E-005  0.4486772E+03  0.7818608E-02  0.1254150E+00
          2   -1    0    0  502    0  0.00000000000E+00  0.00000000000E+00  0.45362201340E+04  0.45362201340E+04  0.00000000000E+00 0. -1.
          1   -1    0    0  501    0 -0.00000000000E+00 -0.00000000000E+00 -0.21255520200E+03  0.21255520200E+03  0.00000000000E+00 0. -1.
         25    2    1    2    0    0  0.30093751333E+02 -0.44658862132E+03  0.65570715335E+03  0.80369286076E+03  0.12499325148E+03 0.  0.
          2    1    1    2  501    0  0.28695789223E+02  0.14448231260E+01 -0.12366865850E+03  0.12696248630E+03  0.00000000000E+00 0. -1.
          1    1    1    2  502    0 -0.58789540556E+02  0.44514379819E+03  0.37916264372E+04  0.38181199890E+04  0.00000000000E+00 0. -1.
         22    1    3    3    0    0  0.79150960765E+00 -0.31581027709E+03  0.54486972115E+03  0.62977755646E+03  0.00000000000E+00 0.  1.
         22    1    3    3    0    0  0.29302241726E+02 -0.13077834423E+03  0.11083743221E+03  0.17391530430E+03  0.00000000000E+00 0.  1.
</event>
<event>
 7    1  0.8792454E-005  0.3859290E+03  0.7818608E-02  0.1161220E+00
          2   -1    0    0  502    0  0.00000000000E+00  0.00000000000E+00  0.31311284474E+03  0.31311284474E+03  0.00000000000E+00 0. -1.
          1   -1    0    0  501    0 -0.00000000000E+00 -0.00000000000E+00 -0.14540403913E+04  0.14540403913E+04  0.00000000000E+00 0. -1.
         25    2    1    2    0    0  0.79220176783E+02  0.36343903137E+03 -0.10068253152E+04  0.10805955366E+04  0.12500293006E+03 0.  0.
          2    1    1    2  501    0 -0.86916490059E+02  0.25514908720E+02 -0.26186133148E+03  0.27708634707E+03  0.00000000000E+00 0. -1.
          1    1    1    2  502    0  0.76963132753E+01 -0.38895394009E+03  0.12775910008E+03  0.40947135236E+03  0.00000000000E+00 0. -1.
         22    1    3    3    0    0 -0.29297210275E+02  0.10460473170E+03 -0.34561827526E+03  0.36228782566E+03  0.00000000000E+00 0. -1.
         22    1    3    3    0    0  0.10851738706E+03  0.25883429967E+03 -0.66120703990E+03  0.71830771093E+03  0.00000000000E+00 0. -1.
</event>
<event>
 7    1  0.8792454E-005  0.2146957E+03  0.7818608E-02  0.1185692E+00
          2   -1    0    0  502    0  0.00000000000E+00  0.00000000000E+00  0.64909958707E+03  0.64909958707E+03  0.00000000000E+00 0. -1.
          1   -1    0    0  501    0 -0.00000000000E+00 -0.00000000000E+00 -0.29868873578E+04  0.29868873578E+04  0.00000000000E+00 0. -1.
         25    2    1    2    0    0 -0.10076762093E+03  0.30930687558E+03 -0.41257221884E+02  0.35092542346E+03  0.12498655033E+03 0.  0.
          2    1    1    2  501    0  0.27495577696E+02 -0.21016075663E+03 -0.27790097446E+04  0.27870806789E+04  0.00000000000E+00 0. -1.
          1    1    1    2  502    0  0.73272043231E+02 -0.99146118949E+02  0.48247919570E+03  0.49798084251E+03  0.00000000000E+00 0. -1.
         22    1    3    3    0    0 -0.32241179805E+02  0.11952187235E+02 -0.29897486306E+02  0.45565427051E+02  0.00000000000E+00 0.  1.
         22    1    3    3    0    0 -0.68526441122E+02  0.29735468834E+03 -0.11359735578E+02  0.30535999641E+03  0.00000000000E+00 0.  1.
</event>
<event>
 7    1  0.8792454E-005  0.4897850E+03  0.7818608E-02  0.1194271E+00
          2   -1    0    0  502    0  0.00000000000E+00  0.00000000000E+00  0.56588718873E+03  0.56588718873E+03  0.00000000000E+00 0. -1.
          1   -1    0    0  501    0 -0.00000000000E+00 -0.00000000000E+00 -0.89942738046E+03  0.89942738046E+03  0.00000000000E+00 0. -1.
         25    2    1    2    0    0  0.36273387863E+03 -0.29955056166E+03  0.13665068346E+03  0.50557440250E+03  0.12500264586E+03 0.  0.
          2    1    1    2  501    0  0.42976345208E+02 -0.23856989971E+02 -0.43709195400E+03  0.43984713080E+03  0.00000000000E+00 0. -1.
          1    1    1    2  502    0 -0.40571022384E+03  0.32340755163E+03 -0.33098921179E+02  0.51989303589E+03  0.00000000000E+00 0. -1.
         22    1    3    3    0    0  0.25500235295E+03 -0.26460690748E+03  0.69777166542E+02  0.37404794942E+03  0.00000000000E+00 0.  1.
         22    1    3    3    0    0  0.10773152569E+03 -0.34943654176E+02  0.66873516918E+02  0.13152645308E+03  0.00000000000E+00 0.  1.
</event>
<event>
 7    1  0.8792454E-005  0.7891309E+03  0.7818608E-02  0.1162797E+00
          2   -1    0    0  502    0  0.00000000000E+00  0.00000000000E+00  0.94614856352E+03  0.94614856352E+03  0.00000000000E+00 0. -1.
          1   -1    0    0  501    0 -0.00000000000E+00 -0.00000000000E+00 -0.11899632567E+04  0.11899632567E+04  0.00000000000E+00 0. -1.
         25    2    1    2    0    0 -0.40955011308E+03  0.66600447512E+03 -0.42030029276E+03  0.89642119800E+03  0.12500148852E+03 0.  0.
          2    1    1    2  501    0  0.38349138980E+03 -0.70083240490E+03 -0.22963881677E+03  0.83124346131E+03  0.00000000000E+00 0. -1.
          1    1    1    2  502    0  0.26058723282E+02  0.34827929781E+02  0.40612441632E+03  0.40844716094E+03  0.00000000000E+00 0. -1.
         22    1    3    3    0    0 -0.30179097913E+03  0.56521490897E+03 -0.30756257417E+03  0.71073231630E+03  0.00000000000E+00 0. -1.
         22    1    3    3    0    0 -0.10775913395E+03  0.10078956614E+03 -0.11273771859E+03  0.18568888169E+03  0.00000000000E+00 0. -1.
</event>
<event>
 7    1  0.8792454E-005  0.1130695E+03  0.7818608E-02  0.1273421E+00
          2   -1    0    0  502    0  0.00000000000E+00  0.00000000000E+00  0.74852324017E+03  0.74852324017E+03  0.00000000000E+00 0. -1.
          1   -1    0    0  501    0 -0.00000000000E+00 -0.00000000000E+00 -0.79789828947E+03  0.79789828947E+03  0.00000000000E+00 0. -1.
         25    2    1    2    0    0  0.11922451392E+03 -0.84309983264E+01  0.39520965355E+03  0.43139345974E+03  0.12499632152E+03 0.  0.
          2    1    1    2  501    0 -0.70120694724E+02  0.89115447192E+02 -0.76891138466E+03  0.77722788950E+03  0.00000000000E+00 0. -1.
          1    1    1    2  502    0 -0.49103819200E+02 -0.80684448866E+02  0.32432668180E+03  0.33780018040E+03  0.00000000000E+00 0. -1.
         22    1    3    3    0    0  0.59799034519E+02  0.22810387680E+02  0.54291170133E+02  0.83927167651E+02  0.00000000000E+00 0.  1.
         22    1    3    3    0    0  0.59425479405E+02 -0.31241386006E+02  0.34091848342E+03  0.34746629209E+03  0.00000000000E+00 0.  1.
</event>
<event>
 7    1  0.8792454E-005  0.5026903E+03  0.7818608E-02  0.1048315E+00
          2   -1    0    0  502    0  0.00000000000E+00  0.00000000000E+00  0.13942512611E+04  0.13942512611E+04  0.00000000000E+00 0. -1.
          1   -1    0    0  501    0 -0.00000000000E+00 -0.00000000000E+00 -0.52686450091E+03  0.52686450091E+03  0.00000000000E+00 0. -1.
         25    2    1    2    0    0 -0.43155908863E+03  0.27628808137E+03 -0.41635783317E+02  0.52909149798E+03  0.12500369555E+03 0.  0.
          2    1    1    2  501    0  0.22397535179E+03  0.19686988976E+03 -0.50294059164E+02  0.30241065473E+03  0.00000000000E+00 0. -1.
          1    1    1    2  502    0  0.20758373684E+03 -0.47315797113E+03  0.95931660268E+03  0.10896136093E+04  0.00000000000E+00 0. -1.
         22    1    3    3    0    0 -0.18025990611E+03  0.10937363836E+03  0.44214517125E+02  0.21543247212E+03  0.00000000000E+00 0. -1.
         22    1    3    3    0    0 -0.25129918252E+03  0.16691444301E+03 -0.85850300442E+02  0.31365902586E+03  0.00000000000E+00 0. -1.
</event>
<event>
 7    1  0.8792454E-005  0.1568594E+03  0.7818608E-02  0.1233032E+00
          2   -1    0    0  502    0  0.00000000000E+00  0.00000000000E+00  0.96687482300E+02  0.96687482300E+02  0.00000000000E+00 0. -1.
          1   -1    0    0  501    0 -0.00000000000E+00 -0.00000000000E+00 -0.21852191704E+04  0.21852191704E+04  0.00000000000E+00 0. -1.
         25    2    1    2    0    0 -0.22413988725E+03  0.32963634969E+02 -0.14293318879E+03  0.29560449737E+03  0.12500732827E+03 0.  0.
          2    1    1    2  501    0  0.13315203711E+03 -0.78429171995E+02 -0.18110609335E+04  0.18176419628E+04  0.00000000000E+00 0. -1.
          1    1    1    2  502    0  0.90987850144E+02  0.45465537026E+02 -0.13453756574E+03  0.16866019248E+03  0.00000000000E+00 0. -1.
         22    1    3    3    0    0 -0.19065832280E+03 -0.52849838686E+01 -0.15209881661E+03  0.24395199758E+03  0.00000000000E+00 0.  1.
         22    1    3    3    0    0 -0.33481564457E+02  0.38248618838E+02  0.91656278278E+01  0.51652499794E+02  0.00000000000E+00 0.  1.
</event>
<event>
 7    1  0.8792454E-005  0.2597817E+03  0.7818608E-02  0.1227274E+00
          2   -1    0    0  502    0  0.00000000000E+00  0.00000000000E+00  0.11092245136E+03  0.11092245136E+03  0.00000000000E+00 0. -1.
          1   -1    0    0  501    0 -0.00000000000E+00 -0.00000000000E+00 -0.20842221127E+04  0.20842221127E+04  0.00000000000E+00 0. -1.
         25    2    1    2    0    0 -0.13554657764E+03 -0.18617105393E+03 -0.11711797167E+04  0.12001330314E+04  0.12499931299E+03 0.  0.
          2    1    1    2  501    0  0.30803166149E+02 -0.57439091637E+02 -0.71194876792E+03  0.71492596290E+03  0.00000000000E+00 0. -1.
          1    1    1    2  502    0  0.10474341149E+03  0.24361014557E+03 -0.90171176729E+02  0.28008556976E+03  0.00000000000E+00 0. -1.
         22    1    3    3    0    0  0.26091670326E+01 -0.66615782854E+02 -0.50397493543E+03  0.50836522876E+03  0.00000000000E+00 0. -1.
         22    1    3    3    0    0 -0.13815574467E+03 -0.11955527108E+03 -0.66720478128E+03  0.69176780265E+03  0.00000000000E+00 0. -1.
</event>
<event>
 7    1  0.8792454E-005  0.3779501E+03  0.7818608E-02  0.1084592E+00
          2   -1    0    0  502    0  0.00000000000E+00  0.00000000000E+00  0.73784795618E+03  0.73784795618E+03  0.00000000000E+00 0. -1.
          1   -1    0    0  501    0 -0.00000000000E+00 -0.00000000000E+00 -0.50393077334E+03  0.50393077334E+03  0.00000000000E+00 0. -1.
         25    2    1    2    0    0 -0.23779973101E+03 -0.73547740585E+02 -0.23573813943E+03  0.36490614316E+03  0.12500416282E+03 0.  0.
          2    1    1    2  501    0 -0.17094180574E+03  0.16873852370E+03 -0.89019514610E+01  0.24036021939E+03  0.00000000000E+00 0. -1.
          1    1    1    2  502    0  0.40874153674E+03 -0.95190783111E+02  0.47855727373E+03  0.63651236696E+03  0.00000000000E+00 0. -1.
         22    1    3    3    0    0 -0.24480616925E+02  0.19178314014E+02 -0.77709780587E+02  0.83701363981E+02  0.00000000000E+00 0. -1.
         22    1    3    3    0    0 -0.21331911408E+03 -0.92726054599E+02 -0.15802835884E+03  0.28120477918E+03  0.00000000000E+00 0. -1.
</event>
<event>
 7    1  0.8792454E-005  0.2252685E+03  0.7818608E-02  0.1198031E+00
          2   -1    0    0  502    0  0.00000000000E+00  0.00000000000E+00  0.73500946606E+03  0.73500946606E+03  0.00000000000E+00 0. -1.
          1   -1    0    0  501    0 -0.00000000000E+00 -0.00000000000E+00 -0.12565367737E+04  0.12565367737E+04  0.00000000000E+00 0. -1.
         25    2    1    2    0    0 -0.26614476045E+02 -0.23156833281E+03 -0.31309642470E+03  0.40986428884E+03  0.12500856374E+03 0.  0.
          2    1    1    2  501    0 -0.74717390456E+02  0.21568641116E+03 -0.87652563694E+03  0.90575963071E+03  0.00000000000E+00 0. -1.
          1    1    1    2  502    0  0.10133186650E+03  0.15881921644E+02  0.66809475402E+03  0.67592232020E+03  0.00000000000E+00 0. -1.
         22    1    3    3    0    0 -0.63619207854E+02 -0.73567946729E+02 -0.15708524887E+03  0.18475773815E+03  0.00000000000E+00 0.  1.
         22    1    3    3    0    0  0.37004731810E+02 -0.15800038608E+03 -0.15601117583E+03  0.22510655069E+03  0.00000000000E+00 0.  1.
</event>
<event>
 7    1  0.8792454E-005  0.2080196E+03  0.7818608E-02  0.1341604E+00
          2   -1    0    0  502    0  0.00000000000E+00  0.00000000000E+00  0.14432227166E+04  0.14432227166E+04  0.00000000000E+00 0. -1.
          1   -1    0    0  501    0 -0.00000000000E+00 -0.00000000000E+00 -0.58889480417E+03  0.58889480417E+03  0.00000000000E+00 0. -1.
         25    2    1    2    0    0 -0.37401892104E+02 -0.22937262344E+03  0.54397387124E+01  0.26394232549E+03  0.12500103404E+03 0.  0.
          2    1    1    2  501    0  0.12984546001E+02  0.24326287316E+02 -0.45107328576E+03  0.45191534143E+03  0.00000000000E+00 0. -1.
          1    1    1    2  502    0  0.24417346102E+02  0.20504633613E+03  0.12999614594E+04  0.13162598538E+04  0.00000000000E+00 0. -1.
         22    1    3    3    0    0 -0.51666813804E+02 -0.21967019951E+03 -0.26926631280E+02  0.22726526280E+03  0.00000000000E+00 0. -1.
         22    1    3    3    0    0  0.14264921700E+02 -0.97024239281E+01  0.32366369992E+02  0.36677062691E+02  0.00000000000E+00 0. -1.
</event>
<event>
 7    1  0.8792454E-005  0.2979393E+03  0.7818608E-02  0.1119311E+00
          2   -1    0    0  502    0  0.00000000000E+00  0.00000000000E+00  0.19863343312E+04  0.19863343312E+04  0.00000000000E+00 0. -1.
          1   -1    0    0  501    0 -0.00000000000E+00 -0.00000000000E+00 -0.73124821886E+03  0.73124821886E+03  0.00000000000E+00 0. -1.
         25    2    1    2    0    0 -0.18331654505E+03  0.39333722636E+02 -0.28051894450E+03  0.35981911410E+03  0.12500727668E+03 0.  0.
          2    1    1    2  501    0 -0.89321492066E+02 -0.17277475457E+03 -0.37540401239E+03  0.42279737142E+03  0.00000000000E+00 0. -1.
          1    1    1    2  502    0  0.27263803712E+03  0.13344103193E+03  0.19110090692E+04  0.19349660645E+04  0.00000000000E+00 0. -1.
         22    1    3    3    0    0 -0.16108626629E+03  0.57856294343E+02 -0.15468907387E+03  0.23070510518E+03  0.00000000000E+00 0.  1.
         22    1    3    3    0    0 -0.22230278764E+02 -0.18522571707E+02 -0.12582987063E+03  0.12911400892E+03  0.00000000000E+00 0.  1.
</event>
<event>
 7    1  0.8792454E-005  0.9143997E+02  0.7818608E-02  0.1482658E+00
          2   -1    0    0  502    0  0.00000000000E+00  0.00000000000E+00  0.45770385850E+04  0.45770385850E+04  0.00000000000E+00 0. -1.
          1   -1    0    0  501    0 -0.00000000000E+00 -0.00000000000E+00 -0.46969826790E+01  0.46969826790E+01  0.00000000000E+00 0. -1.
         25    2    1    2    0    0 -0.91880264956E+02  0.37436664666E+02  0.36707664609E+04  0.36742339234E+04  0.12500010450E+03 0.  0.
          2    1    1    2  501    0  0.15152870556E+02 -0.14364943458E+02  0.28119671900E+03  0.28197084222E+03  0.00000000000E+00 0. -1.
          1    1    1    2  502    0  0.76727394400E+02 -0.23071721208E+02  0.62037842234E+03  0.62553080202E+03  0.00000000000E+00 0. -1.
         22    1    3    3    0    0 -0.13383012482E+02  0.61387435550E+02  0.23987341853E+04  0.23995568786E+04  0.00000000000E+00 0.  1.
         22    1    3    3    0    0 -0.78497252474E+02 -0.23950770884E+02  0.12720322757E+04  0.12746770448E+04  0.00000000000E+00 0.  1.
</event>
<event>
 7    1  0.8792454E-005  0.8648409E+02  0.7818608E-02  0.1327847E+00
          2   -1    0    0  502    0  0.00000000000E+00  0.00000000000E+00  0.46470340414E+04  0.46470340414E+04  0.00000000000E+00 0. -1.
          1   -1    0    0  501    0 -0.00000000000E+00 -0.00000000000E+00 -0.88495334661E+03  0.88495334661E+03  0.00000000000E+00 0. -1.
         25    2    1    2    0    0  0.36382691311E+02  0.76510146767E+01 -0.22233230021E+03  0.25775934021E+03  0.12500394992E+03 0.  0.
          2    1    1    2  501    0 -0.86453712341E+02  0.47907544472E+02 -0.64081629078E+03  0.64839408983E+03  0.00000000000E+00 0. -1.
          1    1    1    2  502    0  0.50071021030E+02 -0.55558559149E+02  0.46252292858E+04  0.46258339580E+04  0.00000000000E+00 0. -1.
         22    1    3    3    0    0  0.65211438102E+02 -0.31674087948E+02 -0.17663046861E+03  0.19092957327E+03  0.00000000000E+00 0.  1.
         22    1    3    3    0    0 -0.28828746791E+02  0.39325102625E+02 -0.45701831595E+02  0.66829766939E+02  0.00000000000E+00 0.  1.
</event>
<event>
 7    1  0.8792454E-005  0.6654791E+03  0.7818608E-02  0.1044165E+00
          2   -1    0    0  502    0  0.00000000000E+00  0.00000000000E+00  0.15279896157E+04  0.15279896157E+04  0.00000000000E+00 0. -1.
          1   -1    0    0  501    0 -0.00000000000E+00 -0.00000000000E+00 -0.68006132898E+03  0.68006132898E+03  0.00000000000E+00 0. -1.
         25    2    1    2    0    0  0.83904412760E+03  0.10359474677E+03  0.60189988941E+03  0.10452920193E+04  0.12500003615E+03 0.  0.
          2    1    1    2  501    0 -0.61756688357E+03 -0.13520373765E+02 -0.20619506522E+03  0.65122043972E+03  0.00000000000E+00 0. -1.
          1    1    1    2  502    0 -0.22147724403E+03 -0.90074373007E+02  0.45222346255E+03  0.51153848572E+03  0.00000000000E+00 0. -1.
         22    1    3    3    0    0  0.55133086720E+03  0.12049315089E+03  0.36369357063E+03  0.67138464226E+03  0.00000000000E+00 0. -1.
         22    1    3    3    0    0  0.28771326040E+03 -0.16898404119E+02  0.23820631878E+03  0.37390737700E+03  0.00000000000E+00 0. -1.
</event>
<event>
 7    1  0.8792454E-005  0.7903306E+02  0.7818608E-02  0.1347084E+00
          2   -1    0    0  502    0  0.00000000000E+00  0.00000000000E+00  0.24998225728E+04  0.24998225728E+04  0.00000000000E+00 0. -1.
          1   -1    0    0  501    0 -0.00000000000E+00 -0.00000000000E+00 -0.78049691645E+03  0.78049691645E+03  0.00000000000E+00 0. -1.
         25    2    1    2    0    0  0.12245285879E+03 -0.73140859193E+02  0.24452246168E+03  0.30945048264E+03  0.12499631606E+03 0.  0.
          2    1    1    2  501    0 -0.48335004091E+02  0.49570266906E+02 -0.74574859781E+03  0.74895557620E+03  0.00000000000E+00 0. -1.
          1    1    1    2  502    0 -0.74117854695E+02  0.23570592287E+02  0.22205517925E+04  0.22219134305E+04  0.00000000000E+00 0. -1.
         22    1    3    3    0    0  0.64014909730E+02  0.20924717337E+02  0.44200545120E+02  0.80557064570E+02  0.00000000000E+00 0.  1.
         22    1    3    3    0    0  0.58437949056E+02 -0.94065576530E+02  0.20032191656E+03  0.22889341807E+03  0.00000000000E+00 0.  1.
</event>
<event>
 7    1  0.8792454E-005  0.2259005E+03  0.7818608E-02  0.1154264E+00
          2   -1    0    0  502    0  0.00000000000E+00  0.00000000000E+00  0.23604974832E+04  0.23604974832E+04  0.00000000000E+00 0. -1.
          1   -1    0    0  501    0 -0.00000000000E+00 -0.00000000000E+00 -0.16684888836E+03  0.16684888836E+03  0.00000000000E+00 0. -1.
         25    2    1    2    0    0 -0.81052048039E+02  0.65079049269E+02  0.49131820995E+03  0.51751550656E+03  0.12499599575E+03 0.  0.
          2    1    1    2  501    0  0.10576037501E+03 -0.23110857212E+03 -0.41859583234E+02  0.25758232420E+03  0.00000000000E+00 0. -1.
          1    1    1    2  502    0 -0.24708326976E+02  0.16602952285E+03  0.17441899681E+04  0.17522485408E+04  0.00000000000E+00 0. -1.
         22    1    3    3    0    0  0.31449918001E+01  0.67507178659E+02  0.31423467362E+03  0.32141957042E+03  0.00000000000E+00 0.  1.
         22    1    3    3    0    0 -0.84197039839E+02 -0.24281293907E+01  0.17708353633E+03  0.19609593614E+03  0.00000000000E+00 0.  1.
</event>
<event>
 7    1  0.8792454E-005  0.7173338E+02  0.7818608E-02  0.1410896E+00
          2   -1    0    0  502    0  0.00000000000E+00  0.00000000000E+00  0.22122851974E+04  0.22122851974E+04  0.00000000000E+00 0. -1.
          1   -1    0    0  501    0 -0.00000000000E+00 -0.00000000000E+00 -0.14606555847E+03  0.14606555847E+03  0.00000000000E+00 0. -1.
         25    2    1    2    0    0  0.32741444764E+02 -0.89118713866E+02  0.11837814138E+04  0.11941435900E+04  0.12500532188E+03 0.  0.
          2    1    1    2  501    0  0.87997912908E+01  0.71092531023E+02 -0.13124018145E+03  0.14951778998E+03  0.00000000000E+00 0. -1.
          1    1    1    2  502    0 -0.41541236054E+02  0.18026182843E+02  0.10136784066E+04  0.10146893759E+04  0.00000000000E+00 0. -1.
         22    1    3    3    0    0 -0.28947025787E+02 -0.69772052208E+02  0.89652661386E+03  0.89970330605E+03  0.00000000000E+00 0.  1.
         22    1    3    3    0    0  0.61688470550E+02 -0.19346661658E+02  0.28725479994E+03  0.29444028394E+03  0.00000000000E+00 0.  1.
</event>
<event>
 7    1  0.8792454E-005  0.1479842E+03  0.7818608E-02  0.1291289E+00
          2   -1    0    0  502    0  0.00000000000E+00  0.00000000000E+00  0.84762711021E+03  0.84762711021E+03  0.00000000000E+00 0. -1.
          1   -1    0    0  501    0 -0.00000000000E+00 -0.00000000000E+00 -0.92843054079E+03  0.92843054079E+03  0.00000000000E+00 0. -1.
         25    2    1    2    0    0 -0.21118353362E+02  0.15767564745E+03 -0.49228450998E+02  0.20822138351E+03  0.12500043806E+03 0.  0.
          2    1    1    2  501    0 -0.53201196439E+02 -0.29683798521E+02 -0.79139459706E+03  0.79373604142E+03  0.00000000000E+00 0. -1.
          1    1    1    2  502    0  0.74319549802E+02 -0.12799184893E+03  0.75981961748E+03  0.77410022606E+03  0.00000000000E+00 0. -1.
         22    1    3    3    0    0 -0.57252418226E+02  0.11973308856E+03 -0.72115991021E+02  0.15104492063E+03  0.00000000000E+00 0.  1.
         22    1    3    3    0    0  0.36134064864E+02  0.37942558898E+02  0.22887540023E+02  0.57176462881E+02  0.00000000000E+00 0.  1.
</event>
<event>
 7    1  0.8792454E-005  0.2833553E+03  0.7818608E-02  0.1117473E+00
          2   -1    0    0  502    0  0.00000000000E+00  0.00000000000E+00  0.34918588891E+04  0.34918588891E+04  0.00000000000E+00 0. -1.
          1   -1    0    0  501    0 -0.00000000000E+00 -0.00000000000E+00 -0.24987173692E+03  0.24987173692E+03  0.00000000000E+00 0. -1.
         25    2    1    2    0    0  0.31865036456E+02  0.40239451852E+03  0.19187584894E+04  0.19647382037E+04  0.12500135689E+03 0.  0.
          2    1    1    2  501    0 -0.11425987643E+03 -0.17533342248E+03 -0.16673422013E+03  0.26757695820E+03  0.00000000000E+00 0. -1.
          1    1    1    2  502    0  0.82394839971E+02 -0.22706109605E+03  0.14899628829E+04  0.15094154641E+04  0.00000000000E+00 0. -1.
         22    1    3    3    0    0  0.99413628762E+01  0.34099686071E+03  0.13576081152E+04  0.13998133747E+04  0.00000000000E+00 0. -1.
         22    1    3    3    0    0  0.21923673580E+02  0.61397657817E+02  0.56115037424E+03  0.56492482895E+03  0.00000000000E+00 0. -1.
</event>
<event>
 7    1  0.8792454E-005  0.4005749E+03  0.7818608E-02  0.1143958E+00
          2   -1    0    0  502    0  0.00000000000E+00  0.00000000000E+00  0.20942170445E+04  0.20942170445E+04  0.00000000000E+00 0. -1.
          1   -1    0    0  501    0 -0.00000000000E+00 -0.00000000000E+00 -0.13484531060E+04  0.13484531060E+04  0.00000000000E+00 0. -1.
         25    2    1    2    0    0 -0.16537906328E+03  0.44814295834E+03  0.47152063349E+03  0.68274357557E+03  0.12499894599E+03 0.  0.
          2    1    1    2  501    0  0.76040645868E+02 -0.38929989297E+03 -0.12092178798E+04  0.12726132435E+04  0.00000000000E+00 0. -1.
          1    1    1    2  502    0  0.89338417411E+02 -0.58843065375E+02  0.14834611848E+04  0.14873133315E+04  0.00000000000E+00 0. -1.
         22    1    3    3    0    0 -0.11329667130E+03  0.41844262945E+03  0.40619008483E+03  0.59407133821E+03  0.00000000000E+00 0.  1.
         22    1    3    3    0    0 -0.52082391981E+02  0.29700328886E+02  0.65330548655E+02  0.88672237357E+02  0.00000000000E+00 0.  1.
</event>
<event>
 7    1  0.8792454E-005  0.6667176E+02  0.7818608E-02  0.1443036E+00
          2   -1    0    0  502    0  0.00000000000E+00  0.00000000000E+00  0.76646573419E+03  0.76646573419E+03  0.00000000000E+00 0. -1.
          1   -1    0    0  501    0 -0.00000000000E+00 -0.00000000000E+00 -0.80133567903E+03  0.80133567903E+03  0.00000000000E+00 0. -1.
         25    2    1    2    0    0  0.54217326393E+02  0.21758295765E+02  0.50137993075E+02  0.14680576869E+03  0.12500069382E+03 0.  0.
          2    1    1    2  501    0 -0.65308395211E+02  0.14738548587E+02 -0.75096676152E+03  0.75394528197E+03  0.00000000000E+00 0. -1.
          1    1    1    2  502    0  0.11091068818E+02 -0.36496844351E+02  0.66595882361E+03  0.66705036256E+03  0.00000000000E+00 0. -1.
         22    1    3    3    0    0 -0.24546386185E+02 -0.33354980334E+02  0.20499236707E+02  0.46209290120E+02  0.00000000000E+00 0.  1.
         22    1    3    3    0    0  0.78763712578E+02  0.55113276098E+02  0.29638756368E+02  0.10059647857E+03  0.00000000000E+00 0.  1.
</event>
<event>
 7    1  0.8792454E-005  0.5907664E+03  0.7818608E-02  0.1016920E+00
          2   -1    0    0  502    0  0.00000000000E+00  0.00000000000E+00  0.23648372761E+04  0.23648372761E+04  0.00000000000E+00 0. -1.
          1   -1    0    0  501    0 -0.00000000000E+00 -0.00000000000E+00 -0.19552915674E+04  0.19552915674E+04  0.00000000000E+00 0. -1.
         25    2    1    2    0    0  0.46757751409E+03  0.69958643807E+03 -0.57831426780E+03  0.10286511370E+04  0.12500341326E+03 0.  0.
          2    1    1    2  501    0 -0.38395183610E+03 -0.12358201770E+03 -0.10749460499E+04  0.11481291468E+04  0.00000000000E+00 0. -1.
          1    1    1    2  502    0 -0.83625677993E+02 -0.57600442037E+03  0.20628060263E+04  0.21433485597E+04  0.00000000000E+00 0. -1.
         22    1    3    3    0    0  0.13527593626E+03  0.26375645749E+03 -0.14501234281E+03  0.32999337474E+03  0.00000000000E+00 0.  1.
         22    1    3    3    0    0  0.33230157783E+03  0.43582998058E+03 -0.43330192498E+03  0.69865776228E+03  0.00000000000E+00 0.  1.
</event>
<event>
 7    1  0.8792454E-005  0.8588516E+03  0.7818608E-02  0.1049077E+00
          2   -1    0    0  502    0  0.00000000000E+00  0.00000000000E+00  0.14726237980E+04  0.14726237980E+04  0.00000000000E+00 0. -1.
          1   -1    0    0  501    0 -0.00000000000E+00 -0.00000000000E+00 -0.29151127182E+04  0.29151127182E+04  0.00000000000E+00 0. -1.
         25    2    1    2    0    0 -0.42344295557E+02 -0.16408366910E+03 -0.22555732494E+04  0.22653813652E+04  0.12500222660E+03 0.  0.
          2    1    1    2  501    0 -0.67471374487E+03  0.63679262094E+03 -0.17007788776E+02  0.92791850099E+03  0.00000000000E+00 0. -1.
          1    1    1    2  502    0  0.71705804042E+03 -0.47270895185E+03  0.83009211795E+03  0.11944366500E+04  0.00000000000E+00 0. -1.
         22    1    3    3    0    0  0.22644112496E+02 -0.12805046571E+02 -0.81744130442E+03  0.81785512850E+03  0.00000000000E+00 0. -1.
         22    1    3    3    0    0 -0.64988408053E+02 -0.15127862252E+03 -0.14381319449E+04  0.14475262367E+04  0.00000000000E+00 0. -1.
</event>
<event>
 7    1  0.8792454E-005  0.3012652E+03  0.7818608E-02  0.1193124E+00
          2   -1    0    0  502    0  0.00000000000E+00  0.00000000000E+00  0.44812887417E+03  0.44812887417E+03  0.00000000000E+00 0. -1.
          1   -1    0    0  501    0 -0.00000000000E+00 -0.00000000000E+00 -0.15789448187E+04  0.15789448187E+04  0.00000000000E+00 0. -1.
         25    2    1    2    0    0 -0.27324700372E+03 -0.52388978640E+02 -0.31327510026E+03  0.43723513791E+03  0.12499898902E+03 0.  0.
          2    1    1    2  501    0  0.31037156360E+03 -0.19518554668E+02 -0.11790548426E+04  0.12193776295E+04  0.00000000000E+00 0. -1.
          1    1    1    2  502    0 -0.37124559881E+02  0.71907533308E+02  0.36151399834E+03  0.37046092545E+03  0.00000000000E+00 0. -1.
         22    1    3    3    0    0 -0.19848520374E+03  0.21137766604E+02 -0.21764176871E+03  0.29531529044E+03  0.00000000000E+00 0.  1.
         22    1    3    3    0    0 -0.74761799982E+02 -0.73526745245E+02 -0.95633331555E+02  0.14191984747E+03  0.00000000000E+00 0.  1.
</event>
<event>
 7    1  0.8792454E-005  0.4089339E+03  0.7818608E-02  0.1090992E+00
          2   -1    0    0  502    0  0.00000000000E+00  0.00000000000E+00  0.11649732879E+04  0.11649732879E+04  0.00000000000E+00 0. -1.
          1   -1    0    0  501    0 -0.00000000000E+00 -0.00000000000E+00 -0.18795764254E+04  0.18795764254E+04  0.00000000000E+00 0. -1.
         25    2    1    2    0    0  0.38117769363E+03  0.29033434011E+03 -0.30243872957E+03  0.58024521057E+03  0.12499942431E+03 0.  0.
          2    1    1    2  501    0 -0.19186954314E+03  0.69056784830E+02 -0.13903015936E+04  0.14051766018E+04  0.00000000000E+00 0. -1.
          1    1    1    2  502    0 -0.18930815049E+03 -0.35939112494E+03  0.97813718568E+03  0.10591279009E+04  0.00000000000E+00 0. -1.
         22    1    3    3    0    0  0.26142911201E+03  0.24486861858E+03 -0.26872507370E+03  0.44779346379E+03  0.00000000000E+00 0.  1.
         22    1    3    3    0    0  0.11974858162E+03  0.45465721530E+02 -0.33713655865E+02  0.13245174679E+03  0.00000000000E+00 0.  1.
</event>
<event>
 7    1  0.8792454E-005  0.1868057E+03  0.7818608E-02  0.1176516E+00
          2   -1    0    0  502    0  0.00000000000E+00  0.00000000000E+00  0.90183102589E+03  0.90183102589E+03  0.00000000000E+00 0. -1.
          1   -1    0    0  501    0 -0.00000000000E+00 -0.00000000000E+00 -0.41666539253E+03  0.41666539253E+03  0.00000000000E+00 0. -1.
         25    2    1    2    0    0  0.25211124793E+02 -0.73864258534E+02  0.46401567482E+03  0.48685476086E+03  0.12500192876E+03 0.  0.
          2    1    1    2  501    0  0.10356573597E+03  0.16376044161E+03 -0.36584819658E+03  0.41399063618E+03  0.00000000000E+00 0. -1.
          1    1    1    2  502    0 -0.12877686076E+03 -0.89896183074E+02  0.38699815511E+03  0.41765102138E+03  0.00000000000E+00 0. -1.
         22    1    3    3    0    0 -0.23743642502E+02 -0.70870895618E+01  0.31825726355E+03  0.31922041476E+03  0.00000000000E+00 0.  1.
         22    1    3    3    0    0  0.48954767295E+02 -0.66777168972E+02  0.14575841127E+03  0.16763434610E+03  0.00000000000E+00 0.  1.
</event>
<event>
 7    1  0.8792454E-005  0.1914518E+03  0.7818608E-02  0.1219644E+00
          2   -1    0    0  502    0  0.00000000000E+00  0.00000000000E+00  0.19459618613E+04  0.19459618613E+04  0.00000000000E+00 0. -1.
          1   -1    0    0  501    0 -0.00000000000E+00 -0.00000000000E+00 -0.54680700102E+03  0.54680700102E+03  0.00000000000E+00 0. -1.
         25    2    1    2    0    0 -0.12433670771E+03  0.16781120267E+03  0.16369408543E+04  0.16549382632E+04  0.12500031236E+03 0.  0.
          2    1    1    2  501    0 -0.19234119297E+02 -0.93819926610E+02 -0.51129745091E+03  0.52018959360E+03  0.00000000000E+00 0. -1.
          1    1    1    2  502    0  0.14357082701E+03 -0.73991276057E+02  0.27351145695E+03  0.31764100552E+03  0.00000000000E+00 0. -1.
         22    1    3    3    0    0 -0.11143222946E+02  0.98855779150E+02  0.96022296531E+03  0.96536251201E+03  0.00000000000E+00 0. -1.
         22    1    3    3    0    0 -0.11319348477E+03  0.68955423517E+02  0.67671788896E+03  0.68957575122E+03  0.00000000000E+00 0. -1.
</event>
<event>
 7    1  0.8792454E-005  0.7205935E+02  0.7818608E-02  0.1433623E+00
          2   -1    0    0  502    0  0.00000000000E+00  0.00000000000E+00  0.13274783766E+04  0.13274783766E+04  0.00000000000E+00 0. -1.
          1   -1    0    0  501    0 -0.00000000000E+00 -0.00000000000E+00 -0.13344364240E+03  0.13344364240E+03  0.00000000000E+00 0. -1.
         25    2    1    2    0    0  0.83681224533E+02 -0.70538101856E+02  0.78768024073E+03  0.80501189372E+03  0.12500326491E+03 0.  0.
          2    1    1    2  501    0 -0.54572728359E+02  0.46311693067E+02 -0.11376825771E+03  0.13441046112E+03  0.00000000000E+00 0. -1.
          1    1    1    2  502    0 -0.29108496174E+02  0.24226408789E+02  0.52012275122E+03  0.52149966421E+03  0.00000000000E+00 0. -1.
         22    1    3    3    0    0  0.10959255415E+03 -0.82578383267E+02  0.67062784865E+03  0.68452277441E+03  0.00000000000E+00 0. -1.
         22    1    3    3    0    0 -0.25911329615E+02  0.12040281411E+02  0.11705239208E+03  0.12048911931E+03  0.00000000000E+00 0. -1.
</event>
<event>
 7    1  0.8792454E-005  0.1473131E+03  0.7818608E-02  0.1245196E+00
          2   -1    0    0  502    0  0.00000000000E+00  0.00000000000E+00  0.13489034378E+03  0.13489034378E+03  0.00000000000E+00 0. -1.
          1   -1    0    0  501    0 -0.00000000000E+00 -0.00000000000E+00 -0.12189709122E+04  0.12189709122E+04  0.00000000000E+00 0. -1.
         25    2    1    2    0    0  0.20761061013E+03 -0.20177978053E+02 -0.44632558746E+03  0.50826684444E+03  0.12497735356E+03 0.  0.
          2    1    1    2  501    0 -0.12171695701E+03  0.62385006284E+02 -0.71165540388E+03  0.72467946052E+03  0.00000000000E+00 0. -1.
          1    1    1    2  502    0 -0.85893653119E+02 -0.42207028231E+02  0.73900422902E+02  0.12091495103E+03  0.00000000000E+00 0. -1.
         22    1    3    3    0    0  0.33841746246E+02 -0.48962671850E+02 -0.17442590408E+03  0.18430139185E+03  0.00000000000E+00 0. -1.
         22    1    3    3    0    0  0.17376886388E+03  0.28784693797E+02 -0.27189968338E+03  0.32396545259E+03  0.00000000000E+00 0. -1.
</event>
<event>
 7    1  0.8792454E-005  0.9839771E+02  0.7818608E-02  0.1392288E+00
          2   -1    0    0  502    0  0.00000000000E+00  0.00000000000E+00  0.38572419781E+02  0.38572419781E+02  0.00000000000E+00 0. -1.
          1   -1    0    0  501    0 -0.00000000000E+00 -0.00000000000E+00 -0.15596832712E+04  0.15596832712E+04  0.00000000000E+00 0. -1.
         25    2    1    2    0    0  0.47608379961E+02  0.41988866192E+02 -0.11595318285E+03  0.18193591966E+03  0.12500366204E+03 0.  0.
          2    1    1    2  501    0 -0.66706694426E+02 -0.75118245215E+02 -0.13088230922E+04  0.13126730060E+04  0.00000000000E+00 0. -1.
          1    1    1    2  502    0  0.19098314465E+02  0.33129379022E+02 -0.96334576368E+02  0.10364676538E+03  0.00000000000E+00 0. -1.
         22    1    3    3    0    0  0.55655470538E+02  0.75000965232E+02 -0.11472619462E+03  0.14793503953E+03  0.00000000000E+00 0. -1.
         22    1    3    3    0    0 -0.80470905764E+01 -0.33012099040E+02 -0.12269882238E+01  0.34000880134E+02  0.00000000000E+00 0. -1.
</event>
<event>
 7    1  0.8792454E-005  0.2312285E+03  0.7818608E-02  0.1323641E+00
          2   -1    0    0  502    0  0.00000000000E+00  0.00000000000E+00  0.12329110930E+04  0.12329110930E+04  0.00000000000E+00 0. -1.
          1   -1    0    0  501    0 -0.00000000000E+00 -0.00000000000E+00 -0.13988090634E+04  0.13988090634E+04  0.00000000000E+00 0. -1.
         25    2    1    2    0    0  0.17259845557E+03  0.18272080593E+03  0.92777507173E+03  0.96931289690E+03  0.12499515421E+03 0.  0.
          2    1    1    2  501    0 -0.17250110005E+03 -0.15368575653E+03 -0.13675841490E+04  0.13869615517E+04  0.00000000000E+00 0. -1.
          1    1    1    2  502    0 -0.97355512761E-01 -0.29035049394E+02  0.27391110678E+03  0.27544570788E+03  0.00000000000E+00 0. -1.
         22    1    3    3    0    0  0.14589308286E+03  0.15377355373E+03  0.88944993964E+03  0.91435895171E+03  0.00000000000E+00 0.  1.
         22    1    3    3    0    0  0.26705372704E+02  0.28947252197E+02  0.38325132093E+02  0.54953945181E+02  0.00000000000E+00 0.  1.
</event>
<event>
 7    1  0.8792454E-005  0.6027846E+03  0.7818608E-02  0.1047733E+00
          2   -1    0    0  502    0  0.00000000000E+00  0.00000000000E+00  0.21946193767E+04  0.21946193767E+04  0.00000000000E+00 0. -1.
          1   -1    0    0  501    0 -0.00000000000E+00 -0.00000000000E+00 -0.10497169436E+04  0.10497169436E+04  0.00000000000E+00 0. -1.
         25    2    1    2    0    0 -0.55948396038E+03  0.22313606456E+03  0.11535632686E+04  0.13073429465E+04  0.12500143967E+03 0.  0.
          2    1    1    2  501    0  0.42378560053E+03 -0.43400878346E+03 -0.85835913626E+03  0.10510653006E+04  0.00000000000E+00 0. -1.
          1    1    1    2  502    0  0.13569835985E+03  0.21087271889E+03  0.84969830075E+03  0.88592807312E+03  0.00000000000E+00 0. -1.
         22    1    3    3    0    0 -0.26117720687E+03  0.41942704414E+02  0.54479067811E+03  0.60561506487E+03  0.00000000000E+00 0.  1.
         22    1    3    3    0    0 -0.29830675351E+03  0.18119336015E+03  0.60877259048E+03  0.70172788164E+03  0.00000000000E+00 0.  1.
</event>
<event>
 7    1  0.8792454E-005  0.1490784E+03  0.7818608E-02  0.1302836E+00
          2   -1    0    0  502    0  0.00000000000E+00  0.00000000000E+00  0.28740988566E+03  0.28740988566E+03  0.00000000000E+00 0. -1.
          1   -1    0    0  501    0 -0.00000000000E+00 -0.00000000000E+00 -0.15621070493E+03  0.15621070493E+03  0.00000000000E+00 0. -1.
         25    2    1    2    0    0 -0.79811972830E+02 -0.11203203853E+03  0.56468866076E+01  0.18595272848E+03  0.12500160494E+03 0.  0.
          2    1    1    2  501    0  0.13351671781E+03  0.10373798627E+03  0.81420231454E+02  0.18766336302E+03  0.00000000000E+00 0. -1.
          1    1    1    2  502    0 -0.53704744983E+02  0.82940522573E+01  0.44132062673E+02  0.70004499086E+02  0.00000000000E+00 0. -1.
         22    1    3    3    0    0 -0.53550743617E+02 -0.72432695471E+02  0.64148416410E+02  0.11058569909E+03  0.00000000000E+00 0. -1.
         22    1    3    3    0    0 -0.26261229213E+02 -0.39599343060E+02 -0.58501529802E+02  0.75367029394E+02  0.00000000000E+00 0. -1.
</event>
<event>
 7    1  0.8792454E-005  0.1524988E+03  0.7818608E-02  0.1245212E+00
          2   -1    0    0  502    0  0.00000000000E+00  0.00000000000E+00  0.26831535591E+04  0.26831535591E+04  0.00000000000E+00 0. -1.
          1   -1    0    0  501    0 -0.00000000000E+00 -0.00000000000E+00 -0.10459727279E+03  0.10459727279E+03  0.00000000000E+00 0. -1.
         25    2    1    2    0    0  0.12154850103E+03 -0.55292318958E+02  0.67373060755E+03  0.69811788074E+03  0.12499746081E+03 0.  0.
          2    1    1    2  501    0  0.39058231425E+02  0.83776409062E+02 -0.65041548700E+02  0.11302404706E+03  0.00000000000E+00 0. -1.
          1    1    1    2  502    0 -0.16060673245E+03 -0.28484090105E+02  0.19698672274E+04  0.19766089040E+04  0.00000000000E+00 0. -1.
         22    1    3    3    0    0  0.11229850988E+03 -0.41691921483E+02  0.67079915478E+03  0.68141079951E+03  0.00000000000E+00 0.  1.
         22    1    3    3    0    0  0.92499911461E+01 -0.13600397474E+02  0.29314527755E+01  0.16707081225E+02  0.00000000000E+00 0.  1.
</event>
<event>
 7    1  0.8792454E-005  0.6284618E+03  0.7818608E-02  0.1123458E+00
          2   -1    0    0  502    0  0.00000000000E+00  0.00000000000E+00  0.12327681181E+04  0.12327681181E+04  0.00000000000E+00 0. -1.
          1   -1    0    0  501    0 -0.00000000000E+00 -0.00000000000E+00 -0.59804098049E+03  0.59804098049E+03  0.00000000000E+00 0. -1.
         25    2    1    2    0    0 -0.77815900338E+00  0.67227264745E+03 -0.20839406141E+03  0.71484515336E+03  0.12499756163E+03 0.  0.
          2    1    1    2  501    0 -0.66736252855E+02 -0.56680829638E+02  0.27291040819E+02  0.91712838810E+02  0.00000000000E+00 0. -1.
          1    1    1    2  502    0  0.67514411859E+02 -0.61559181781E+03  0.81583015816E+03  0.10242511064E+04  0.00000000000E+00 0. -1.
         22    1    3    3    0    0 -0.18895976845E+02  0.29736761864E+03 -0.15453838661E+03  0.33565856386E+03  0.00000000000E+00 0.  1.
         22    1    3    3    0    0  0.18117817842E+02  0.37490502881E+03 -0.53855674802E+02  0.37918658950E+03  0.00000000000E+00 0.  1.
</event>
<event>
 7    1  0.8792454E-005  0.2091619E+03  0.7818608E-02  0.1252157E+00
          2   -1    0    0  502    0  0.00000000000E+00  0.00000000000E+00  0.57266316850E+03  0.57266316850E+03  0.00000000000E+00 0. -1.
          1   -1    0    0  501    0 -0.00000000000E+00 -0.00000000000E+00 -0.51672859154E+03  0.51672859154E+03  0.00000000000E+00 0. -1.
         25    2    1    2    0    0 -0.19953320262E+03  0.19539824200E+02 -0.32396638546E+03  0.40095738594E+03  0.12496920721E+03 0.  0.
          2    1    1    2  501    0  0.22053012313E+03 -0.78796937307E+02 -0.61864299744E+02  0.24221825720E+03  0.00000000000E+00 0. -1.
          1    1    1    2  502    0 -0.20996920506E+02  0.59257113107E+02  0.44176526217E+03  0.44621611691E+03  0.00000000000E+00 0. -1.
         22    1    3    3    0    0 -0.22547727246E+02  0.33163088113E+01 -0.15184278030E+03  0.15354356984E+03  0.00000000000E+00 0. -1.
         22    1    3    3    0    0 -0.17698547538E+03  0.16223515389E+02 -0.17212360516E+03  0.24741381610E+03  0.00000000000E+00 0. -1.
</event>
<event>
 7    1  0.8792454E-005  0.1048650E+03  0.7818608E-02  0.1303506E+00
          2   -1    0    0  502    0  0.00000000000E+00  0.00000000000E+00  0.11461124131E+03  0.11461124131E+03  0.00000000000E+00 0. -1.
          1   -1    0    0  501    0 -0.00000000000E+00 -0.00000000000E+00 -0.62093268180E+03  0.62093268180E+03  0.00000000000E+00 0. -1.
         25    2    1    2    0    0 -0.77697511335E+02 -0.56355540693E+02 -0.91000930421E+02  0.18198738069E+03  0.12500154862E+03 0.  0.
          2    1    1    2  501    0  0.10860436663E+03 -0.13929487494E+02 -0.45439797853E+03  0.46740396015E+03  0.00000000000E+00 0. -1.
          1    1    1    2  502    0 -0.30906855297E+02  0.70285028187E+02  0.39077468461E+02  0.86152582277E+02  0.00000000000E+00 0. -1.
         22    1    3    3    0    0 -0.21307089224E+02 -0.44325645051E+02  0.22955323921E+02  0.54274319496E+02  0.00000000000E+00 0. -1.
         22    1    3    3    0    0 -0.56390422111E+02 -0.12029895642E+02 -0.11395625434E+03  0.12771306119E+03  0.00000000000E+00 0. -1.
</event>
<event>
 7    1  0.8792454E-005  0.2293051E+03  0.7818608E-02  0.1180758E+00
          2   -1    0    0  502    0  0.00000000000E+00  0.00000000000E+00  0.33038715262E+03  0.33038715262E+03  0.00000000000E+00 0. -1.
          1   -1    0    0  501    0 -0.00000000000E+00 -0.00000000000E+00 -0.39258319426E+03  0.39258319426E+03  0.00000000000E+00 0. -1.
         25    2    1    2    0    0  0.11223591676E+03 -0.11777113363E+03 -0.20928832172E+03  0.29307543441E+03  0.12499867087E+03 0.  0.
          2    1    1    2  501    0 -0.30177693057E+02 -0.11818095683E+03 -0.27604068751E+02  0.12505765201E+03  0.00000000000E+00 0. -1.
          1    1    1    2  502    0 -0.82058223698E+02  0.23595209046E+03  0.17469634883E+03  0.30483726046E+03  0.00000000000E+00 0. -1.
         22    1    3    3    0    0  0.11514873200E+02  0.26597479296E+02 -0.33576385788E+02  0.44355291593E+02  0.00000000000E+00 0. -1.
         22    1    3    3    0    0  0.10072104356E+03 -0.14436861293E+03 -0.17571193593E+03  0.24872014281E+03  0.00000000000E+00 0. -1.
</event>
<event>
 7    1  0.8792454E-005  0.2525822E+03  0.7818608E-02  0.1216006E+00
          2   -1    0    0  502    0  0.00000000000E+00  0.00000000000E+00  0.18442834741E+04  0.18442834741E+04  0.00000000000E+00 0. -1.
          1   -1    0    0  501    0 -0.00000000000E+00 -0.00000000000E+00 -0.29835172638E+03  0.29835172638E+03  0.00000000000E+00 0. -1.
         25    2    1    2    0    0 -0.14883492478E+03 -0.20145056045E+03  0.12581113901E+04  0.12888770472E+04  0.12500243917E+03 0.  0.
          2    1    1    2  501    0  0.59085789828E+02 -0.46887463007E+02 -0.24648282006E+03  0.25776606707E+03  0.00000000000E+00 0. -1.
          1    1    1    2  502    0  0.89749134949E+02  0.24833802346E+03  0.53430317771E+03  0.59599208621E+03  0.00000000000E+00 0. -1.
         22    1    3    3    0    0 -0.15709596103E+03 -0.21276162311E+03  0.11597723875E+04  0.11895455603E+04  0.00000000000E+00 0.  1.
         22    1    3    3    0    0  0.82610362570E+01  0.11311062660E+02  0.98339002614E+02  0.99331486919E+02  0.00000000000E+00 0.  1.
</event>
<event>
 7    1  0.8792454E-005  0.6601931E+02  0.7818608E-02  0.1437614E+00
          2   -1    0    0  502    0  0.00000000000E+00  0.00000000000E+00  0.48242163847E+03  0.48242163847E+03  0.00000000000E+00 0. -1.
          1   -1    0    0  501    0 -0.00000000000E+00 -0.00000000000E+00 -0.17777681356E+03  0.17777681356E+03  0.00000000000E+00 0. -1.
         25    2    1    2    0    0  0.71143225256E+02 -0.12674447458E+02  0.45051322057E+03  0.47308489209E+03  0.12500061238E+03 0.  0.
          2    1    1    2  501    0 -0.23405869022E+02  0.32577525814E+02 -0.12510896754E+03  0.13138258504E+03  0.00000000000E+00 0. -1.
          1    1    1    2  502    0 -0.47737356234E+02 -0.19903078357E+02 -0.20759428117E+02  0.55730974907E+02  0.00000000000E+00 0. -1.
         22    1    3    3    0    0  0.42997847489E+02 -0.54217068988E+02  0.38168562512E+03  0.38790749140E+03  0.00000000000E+00 0.  1.
         22    1    3    3    0    0  0.28145377767E+02  0.41542621530E+02  0.68827595449E+02  0.85177400691E+02  0.00000000000E+00 0.  1.
</event>
<event>
 7    1  0.8792454E-005  0.8208421E+02  0.7818608E-02  0.1416648E+00
          2   -1    0    0  502    0  0.00000000000E+00  0.00000000000E+00  0.50074483964E+03  0.50074483964E+03  0.00000000000E+00 0. -1.
          1   -1    0    0  501    0 -0.00000000000E+00 -0.00000000000E+00 -0.47001086888E+02  0.47001086888E+02  0.00000000000E+00 0. -1.
         25    2    1    2    0    0  0.60817724277E+02  0.12411352337E+02  0.32590143301E+03  0.35452661825E+03  0.12499816703E+03 0.  0.
          2    1    1    2  501    0 -0.71783074641E+02 -0.48634032918E+02  0.35997171224E+02  0.93882241659E+02  0.00000000000E+00 0. -1.
          1    1    1    2  502    0  0.10965350364E+02  0.36222680580E+02  0.91845148517E+02  0.99337066612E+02  0.00000000000E+00 0. -1.
         22    1    3    3    0    0 -0.19087424397E+02 -0.37034460058E+02  0.64872151790E+02  0.77099137997E+02  0.00000000000E+00 0.  1.
         22    1    3    3    0    0  0.79905148674E+02  0.49445812396E+02  0.26102928122E+03  0.27742748026E+03  0.00000000000E+00 0.  1.
</event>
<event>
 7    1  0.8792454E-005  0.2161936E+03  0.7818608E-02  0.1323914E+00
          2   -1    0    0  502    0  0.00000000000E+00  0.00000000000E+00  0.82675465091E+03  0.82675465091E+03  0.00000000000E+00 0. -1.
          1   -1    0    0  501    0 -0.00000000000E+00 -0.00000000000E+00 -0.16144138183E+03  0.16144138183E+03  0.00000000000E+00 0. -1.
         25    2    1    2    0    0  0.22444341638E+03 -0.34210714107E+02 -0.19858043346E+02  0.25992860603E+03  0.12499327274E+03 0.  0.
          2    1    1    2  501    0 -0.17849094382E+02 -0.25320313507E+02  0.68153689315E+02  0.74864102303E+02  0.00000000000E+00 0. -1.
          1    1    1    2  502    0 -0.20659432200E+03  0.59531027613E+02  0.61701762311E+03  0.65340332442E+03  0.00000000000E+00 0. -1.
         22    1    3    3    0    0  0.22461683807E+02  0.36485763979E+02 -0.16478656537E+02  0.45905166745E+02  0.00000000000E+00 0.  1.
         22    1    3    3    0    0  0.20198173257E+03 -0.70696478086E+02 -0.33793868085E+01  0.21402343928E+03  0.00000000000E+00 0.  1.
</event>
<event>
 7    1  0.8792454E-005  0.1332455E+03  0.7818608E-02  0.1247993E+00
          2   -1    0    0  502    0  0.00000000000E+00  0.00000000000E+00  0.30714463529E+04  0.30714463529E+04  0.00000000000E+00 0. -1.
          1   -1    0    0  501    0 -0.00000000000E+00 -0.00000000000E+00 -0.91494457721E+03  0.91494457721E+03  0.00000000000E+00 0. -1.
         25    2    1    2    0    0  0.15549512301E+03  0.14200319140E+02  0.38841592178E+03  0.43688995159E+03  0.12500207667E+03 0.  0.
          2    1    1    2  501    0 -0.62094688028E+02  0.82022653248E+02 -0.88603863761E+03  0.89199099394E+03  0.00000000000E+00 0. -1.
          1    1    1    2  502    0 -0.93400434979E+02 -0.96222972388E+02  0.26541244916E+04  0.26575099846E+04  0.00000000000E+00 0. -1.
         22    1    3    3    0    0  0.45866094219E+02 -0.49106884113E+02  0.86694753177E+02  0.10968666690E+03  0.00000000000E+00 0. -1.
         22    1    3    3    0    0  0.10962902879E+03  0.63307203253E+02  0.30172116860E+03  0.32720328470E+03  0.00000000000E+00 0. -1.
</event>
<event>
 7    1  0.8792454E-005  0.4422536E+03  0.7818608E-02  0.1182802E+00
          2   -1    0    0  502    0  0.00000000000E+00  0.00000000000E+00  0.59160041128E+03  0.59160041128E+03  0.00000000000E+00 0. -1.
          1   -1    0    0  501    0 -0.00000000000E+00 -0.00000000000E+00 -0.18427622234E+04  0.18427622234E+04  0.00000000000E+00 0. -1.
         25    2    1    2    0    0  0.48523288683E+03  0.64290367537E+02 -0.32015251553E+03  0.59808665023E+03  0.12500320859E+03 0.  0.
          2    1    1    2  501    0 -0.60444306921E+02  0.12919192941E+02 -0.12797700653E+04  0.12812618155E+04  0.00000000000E+00 0. -1.
          1    1    1    2  502    0 -0.42478857991E+03 -0.77209560478E+02  0.34876076877E+03  0.55501416891E+03  0.00000000000E+00 0. -1.
         22    1    3    3    0    0  0.31945753671E+03  0.78489528974E+02 -0.26620452453E+03  0.42317676307E+03  0.00000000000E+00 0.  1.
         22    1    3    3    0    0  0.16577535012E+03 -0.14199161437E+02 -0.53947990999E+02  0.17490988716E+03  0.00000000000E+00 0.  1.
</event>
<event>
 7    1  0.8792454E-005  0.3176375E+03  0.7818608E-02  0.1207704E+00
          2   -1    0    0  502    0  0.00000000000E+00  0.00000000000E+00  0.55432640101E+03  0.55432640101E+03  0.00000000000E+00 0. -1.
          1   -1    0    0  501    0 -0.00000000000E+00 -0.00000000000E+00 -0.18174759235E+04  0.18174759235E+04  0.00000000000E+00 0. -1.
         25    2    1    2    0    0 -0.30621875196E+03 -0.14014482155E+03 -0.10019573696E+04  0.10644039509E+04  0.12500682068E+03 0.  0.
          2    1    1    2  501    0  0.29236948627E+03  0.76104051751E+02 -0.75294798678E+03  0.81129674842E+03  0.00000000000E+00 0. -1.
          1    1    1    2  502    0  0.13849265686E+02  0.64040769795E+02  0.49175583387E+03  0.49610162517E+03  0.00000000000E+00 0. -1.
         22    1    3    3    0    0 -0.19532627705E+03 -0.10490811592E+03 -0.46728076253E+03  0.51721308792E+03  0.00000000000E+00 0.  1.
         22    1    3    3    0    0 -0.11089247490E+03 -0.35236705630E+02 -0.53467660704E+03  0.54719086298E+03  0.00000000000E+00 0.  1.
</event>
<event>
 7    1  0.8792454E-005  0.3641347E+03  0.7818608E-02  0.1115521E+00
          2   -1    0    0  502    0  0.00000000000E+00  0.00000000000E+00  0.56071658675E+03  0.56071658675E+03  0.00000000000E+00 0. -1.
          1   -1    0    0  501    0 -0.00000000000E+00 -0.00000000000E+00 -0.16501067523E+04  0.16501067523E+04  0.00000000000E+00 0. -1.
         25    2    1    2    0    0  0.23822692866E+03  0.28930858547E+03 -0.15345422230E+04  0.15845808945E+04  0.12500099992E+03 0.  0.
          2    1    1    2  501    0 -0.23603484333E+03 -0.12242160990E+03  0.21499448392E+03  0.34193877515E+03  0.00000000000E+00 0. -1.
          1    1    1    2  502    0 -0.21920853347E+01 -0.16688697556E+03  0.23015757344E+03  0.28430366945E+03  0.00000000000E+00 0. -1.
         22    1    3    3    0    0  0.13739522779E+03  0.24796974068E+03 -0.10225704824E+04  0.10611394029E+04  0.00000000000E+00 0.  1.
         22    1    3    3    0    0  0.10083170088E+03  0.41338844790E+02 -0.51197174057E+03  0.52344149160E+03  0.00000000000E+00 0.  1.
</event>
<event>
 7    1  0.8792454E-005  0.5710512E+03  0.7818608E-02  0.1013580E+00
          2   -1    0    0  502    0  0.00000000000E+00  0.00000000000E+00  0.53140082125E+03  0.53140082125E+03  0.00000000000E+00 0. -1.
          1   -1    0    0  501    0 -0.00000000000E+00 -0.00000000000E+00 -0.17208676065E+04  0.17208676065E+04  0.00000000000E+00 0. -1.
         25    2    1    2    0    0  0.17287453825E+03  0.42063999692E+03  0.61779194933E+02  0.47567310928E+03  0.12499849989E+03 0.  0.
          2    1    1    2  501    0 -0.56688066433E+03  0.68889543611E+02 -0.32425855322E+03  0.65669099746E+03  0.00000000000E+00 0. -1.
          1    1    1    2  502    0  0.39400612608E+03 -0.48952954053E+03 -0.92698742693E+03  0.11199043210E+04  0.00000000000E+00 0. -1.
         22    1    3    3    0    0  0.12075541550E+03  0.19870458960E+03 -0.20229909393E+02  0.23339801528E+03  0.00000000000E+00 0. -1.
         22    1    3    3    0    0  0.52119122747E+02  0.22193540732E+03  0.82009104326E+02  0.24227509400E+03  0.00000000000E+00 0. -1.
</event>
<event>
 7    1  0.8792454E-005  0.8784991E+02  0.7818608E-02  0.1409757E+00
          2   -1    0    0  502    0  0.00000000000E+00  0.00000000000E+00  0.44156468707E+02  0.44156468707E+02  0.00000000000E+00 0. -1.
          1   -1    0    0  501    0 -0.00000000000E+00 -0.00000000000E+00 -0.76918455410E+03  0.76918455410E+03  0.00000000000E+00 0. -1.
         25    2    1    2    0    0  0.10638310388E+03 -0.47110965829E+02 -0.41867598600E+03  0.45216426087E+03  0.12500451855E+03 0.  0.
          2    1    1    2  501    0 -0.74369016595E+02  0.27957431144E+02 -0.31331036804E+03  0.32322709557E+03  0.00000000000E+00 0. -1.
          1    1    1    2  502    0 -0.32014087285E+02  0.19153534685E+02  0.69582686481E+01  0.37949666378E+02  0.00000000000E+00 0. -1.
         22    1    3    3    0    0  0.41901771440E+02  0.40951713519E+02 -0.18900037537E+03  0.19787355351E+03  0.00000000000E+00 0. -1.
         22    1    3    3    0    0  0.64481332440E+02 -0.88062679348E+02 -0.22967561063E+03  0.25429070736E+03  0.00000000000E+00 0. -1.
</event>
<event>
 7    1  0.8792454E-005  0.2678711E+03  0.7818608E-02  0.1225449E+00
          2   -1    0    0  502    0  0.00000000000E+00  0.00000000000E+00  0.13936264607E+03  0.13936264607E+03  0.00000000000E+00 0. -1.
          1   -1    0    0  501    0 -0.00000000000E+00 -0.00000000000E+00 -0.25533260533E+04  0.25533260533E+04  0.00000000000E+00 0. -1.
         25    2    1    2    0    0 -0.29672750941E+03 -0.39234164683E+02 -0.14410287127E+04  0.14770820626E+04  0.12498453686E+03 0.  0.
          2    1    1    2  501    0  0.45450685373E+02 -0.45650923625E+02 -0.94691767391E+03  0.94910634430E+03  0.00000000000E+00 0. -1.
          1    1    1    2  502    0  0.25127682404E+03  0.84885088308E+02 -0.26017020652E+02  0.26650029246E+03  0.00000000000E+00 0. -1.
         22    1    3    3    0    0 -0.25576104395E+03 -0.39765328470E+02 -0.95900926028E+03  0.99332459662E+03  0.00000000000E+00 0.  1.
         22    1    3    3    0    0 -0.40966465468E+02  0.53116378660E+00 -0.48201945239E+03  0.48375746600E+03  0.00000000000E+00 0.  1.
</event>
<event>
 7    1  0.8792454E-005  0.2492101E+03  0.7818608E-02  0.1261772E+00
          2   -1    0    0  502    0  0.00000000000E+00  0.00000000000E+00  0.31055170147E+03  0.31055170147E+03  0.00000000000E+00 0. -1.
          1   -1    0    0  501    0 -0.00000000000E+00 -0.00000000000E+00 -0.95539408575E+03  0.95539408575E+03  0.00000000000E+00 0. -1.
         25    2    1    2    0    0  0.65779999279E+02 -0.28066228377E+03 -0.42065045577E+03  0.52504309384E+03  0.12500047447E+03 0.  0.
          2    1    1    2  501    0 -0.27749378611E+02  0.39146398621E+02 -0.42304268556E+03  0.42575530806E+03  0.00000000000E+00 0. -1.
          1    1    1    2  502    0 -0.38030620669E+02  0.24151588515E+03  0.19885075705E+03  0.31514738531E+03  0.00000000000E+00 0. -1.
         22    1    3    3    0    0  0.73685736705E+02 -0.28211102471E+03 -0.42538007182E+03  0.51571738729E+03  0.00000000000E+00 0. -1.
         22    1    3    3    0    0 -0.79057374261E+01  0.14487409339E+01  0.47296160566E+01  0.93257065462E+01  0.00000000000E+00 0. -1.
</event>
<event>
 7    1  0.8792454E-005  0.2078857E+03  0.7818608E-02  0.1212675E+00
          2   -1    0    0  502    0  0.00000000000E+00  0.00000000000E+00  0.52382198200E+03  0.52382198200E+03  0.00000000000E+00 0. -1.
          1   -1    0    0  501    0 -0.00000000000E+00 -0.00000000000E+00 -0.36668954303E+03  0.36668954303E+03  0.00000000000E+00 0. -1.
         25    2    1    2    0    0  0.88426115709E+02 -0.21526427266E+03 -0.59607808639E+02  0.27080943642E+03  0.12500709971E+03 0.  0.
          2    1    1    2  501    0  0.61135336841E+02  0.72636015557E+02 -0.16227267000E+03  0.18800515843E+03  0.00000000000E+00 0. -1.
          1    1    1    2  502    0 -0.14956145255E+03  0.14262825710E+03  0.37901291762E+03  0.43169693019E+03  0.00000000000E+00 0. -1.
         22    1    3    3    0    0 -0.54932985599E+01 -0.14572821422E+03 -0.18843283812E+02  0.14704406855E+03  0.00000000000E+00 0.  1.
         22    1    3    3    0    0  0.93919414269E+02 -0.69536058438E+02 -0.40764524828E+02  0.12376536787E+03  0.00000000000E+00 0.  1.
</event>
<event>
 7    1  0.8792454E-005  0.9165234E+02  0.7818608E-02  0.1427965E+00
          2   -1    0    0  502    0  0.00000000000E+00  0.00000000000E+00  0.27568561225E+04  0.27568561225E+04  0.00000000000E+00 0. -1.
          1   -1    0    0  501    0 -0.00000000000E+00 -0.00000000000E+00 -0.20121615258E+02  0.20121615258E+02  0.00000000000E+00 0. -1.
         25    2    1    2    0    0  0.57698616186E+02  0.25075230188E+02  0.31259596216E+03  0.34248913651E+03  0.12499870234E+03 0.  0.
          2    1    1    2  501    0  0.24893573897E+02  0.18606132111E+02  0.52491910108E+02  0.61002285205E+02  0.00000000000E+00 0. -1.
          1    1    1    2  502    0 -0.82592190083E+02 -0.43681362299E+02  0.23716466350E+04  0.23734863161E+04  0.00000000000E+00 0. -1.
         22    1    3    3    0    0  0.69962651660E+02  0.60129836730E+02  0.27316762990E+03  0.28832433806E+03  0.00000000000E+00 0. -1.
         22    1    3    3    0    0 -0.12264035474E+02 -0.35054606542E+02  0.39428332261E+02  0.54164798447E+02  0.00000000000E+00 0. -1.
</event>
<event>
 7    1  0.8792454E-005  0.4419405E+03  0.7818608E-02  0.1135716E+00
          2   -1    0    0  502    0  0.00000000000E+00  0.00000000000E+00  0.65865962931E+03  0.65865962931E+03  0.00000000000E+00 0. -1.
          1   -1    0    0  501    0 -0.00000000000E+00 -0.00000000000E+00 -0.12770725032E+04  0.12770725032E+04  0.00000000000E+00 0. -1.
         25    2    1    2    0    0  0.11813491434E+03  0.43281158031E+03 -0.96661615271E+03  0.10729647800E+04  0.12499964164E+03 0.  0.
          2    1    1    2  501    0  0.96671204601E+02 -0.46098136429E+02 -0.15776688181E+03  0.19068494691E+03  0.00000000000E+00 0. -1.
          1    1    1    2  502    0 -0.21480611894E+03 -0.38671344388E+03  0.50597016066E+03  0.67208240558E+03  0.00000000000E+00 0. -1.
         22    1    3    3    0    0  0.90167703211E+02  0.33254326516E+03 -0.84698912304E+03  0.91438821758E+03  0.00000000000E+00 0.  1.
         22    1    3    3    0    0  0.27967211126E+02  0.10026831515E+03 -0.11962702967E+03  0.15857656242E+03  0.00000000000E+00 0.  1.
</event>
<event>
 7    1  0.8792454E-005  0.2194058E+03  0.7818608E-02  0.1178979E+00
          2   -1    0    0  502    0  0.00000000000E+00  0.00000000000E+00  0.14691699441E+04  0.14691699441E+04  0.00000000000E+00 0. -1.
          1   -1    0    0  501    0 -0.00000000000E+00 -0.00000000000E+00 -0.37741484571E+04  0.37741484571E+04  0.00000000000E+00 0. -1.
         25    2    1    2    0    0  0.22360412892E+03  0.47674224543E+02 -0.42598314479E+02  0.26402258122E+03  0.12498667466E+03 0.  0.
          2    1    1    2  501    0 -0.15395848233E+03 -0.15750439416E+03 -0.36143654286E+04  0.36210700490E+04  0.00000000000E+00 0. -1.
          1    1    1    2  502    0 -0.69645646588E+02  0.10983016961E+03  0.13519852301E+04  0.13582257709E+04  0.00000000000E+00 0. -1.
         22    1    3    3    0    0  0.74397617528E+02 -0.69009541416E+01  0.40223917152E+02  0.84856303083E+02  0.00000000000E+00 0. -1.
         22    1    3    3    0    0  0.14920651139E+03  0.54575178685E+02 -0.82822231631E+02  0.17916627814E+03  0.00000000000E+00 0. -1.
</event>
<event>
 7    1  0.8792454E-005  0.4267594E+02  0.7818608E-02  0.1495319E+00
          2   -1    0    0  502    0  0.00000000000E+00  0.00000000000E+00  0.29752707098E+03  0.29752707098E+03  0.00000000000E+00 0. -1.
          1   -1    0    0  501    0 -0.00000000000E+00 -0.00000000000E+00 -0.83680653847E+03  0.83680653847E+03  0.00000000000E+00 0. -1.
         25    2    1    2    0    0  0.72783466521E+02  0.12233508672E+02 -0.73337894145E+03  0.74760756959E+03  0.12500125844E+03 0.  0.
          2    1    1    2  501    0 -0.38709211527E+02  0.13378871613E+02 -0.90297850021E+02  0.99151898525E+02  0.00000000000E+00 0. -1.
          1    1    1    2  502    0 -0.34074254994E+02 -0.25612380285E+02  0.28439732398E+03  0.28757414134E+03  0.00000000000E+00 0. -1.
         22    1    3    3    0    0  0.10245527161E+03  0.34199471911E+02 -0.52752374078E+03  0.53846818258E+03  0.00000000000E+00 0. -1.
         22    1    3    3    0    0 -0.29671805084E+02 -0.21965963240E+02 -0.20585520067E+03  0.20913938701E+03  0.00000000000E+00 0. -1.
</event>
<event>
 7    1  0.8792454E-005  0.1681781E+03  0.7818608E-02  0.1307193E+00
          2   -1    0    0  502    0  0.00000000000E+00  0.00000000000E+00  0.26569635527E+02  0.26569635527E+02  0.00000000000E+00 0. -1.
          1   -1    0    0  501    0 -0.00000000000E+00 -0.00000000000E+00 -0.29269640860E+04  0.29269640860E+04  0.00000000000E+00 0. -1.
         25    2    1    2    0    0  0.15254443390E+03 -0.32054145595E+02 -0.49341370583E+03  0.53233374814E+03  0.12499944694E+03 0.  0.
          2    1    1    2  501    0 -0.17068800976E+03 -0.10530218016E+02 -0.22734689488E+04  0.22798917394E+04  0.00000000000E+00 0. -1.
          1    1    1    2  502    0  0.18143575856E+02  0.42584363611E+02 -0.13351179583E+03  0.14130823400E+03  0.00000000000E+00 0. -1.
         22    1    3    3    0    0  0.10985057691E+03 -0.28838386310E+01 -0.15505034300E+03  0.19004229697E+03  0.00000000000E+00 0.  1.
         22    1    3    3    0    0  0.42693856993E+02 -0.29170306964E+02 -0.33836336284E+03  0.34229145117E+03  0.00000000000E+00 0.  1.
</event>
<event>
 7    1  0.8792454E-005  0.2491404E+03  0.7818608E-02  0.1333204E+00
          2   -1    0    0  502    0  0.00000000000E+00  0.00000000000E+00  0.46997986472E+02  0.46997986472E+02  0.00000000000E+00 0. -1.
          1   -1    0    0  501    0 -0.00000000000E+00 -0.00000000000E+00 -0.24205109025E+04  0.24205109025E+04  0.00000000000E+00 0. -1.
         25    2    1    2    0    0  0.24896270147E+03  0.63523123982E+02 -0.13163443697E+04  0.13469984672E+04  0.12499902804E+03 0.  0.
          2    1    1    2  501    0 -0.16437184729E+02  0.18528136542E+02 -0.60477422036E+03  0.60528119952E+03  0.00000000000E+00 0. -1.
          1    1    1    2  502    0 -0.23252551674E+03 -0.82051260523E+02 -0.45239432600E+03  0.51522922227E+03  0.00000000000E+00 0. -1.
         22    1    3    3    0    0  0.23598502481E+03  0.47059320130E+02 -0.12946783294E+04  0.13168505945E+04  0.00000000000E+00 0.  1.
         22    1    3    3    0    0  0.12977676652E+02  0.16463803852E+02 -0.21666040337E+02  0.30147872768E+02  0.00000000000E+00 0.  1.
</event>
<event>
 7    1  0.8792454E-005  0.2342306E+03  0.7818608E-02  0.1204542E+00
          2   -1    0    0  502    0  0.00000000000E+00  0.00000000000E+00  0.47032803423E+03  0.47032803423E+03  0.00000000000E+00 0. -1.
          1   -1    0    0  501    0 -0.00000000000E+00 -0.00000000000E+00 -0.19771161815E+03  0.19771161815E+03  0.00000000000E+00 0. -1.
         25    2    1    2    0    0 -0.12386873232E+03  0.19115381254E+03  0.58880454838E+02  0.26642437570E+03  0.12502718548E+03 0.  0.
          2    1    1    2  501    0 -0.76489603165E+02 -0.50985105507E+02  0.33470223491E+02  0.97828401993E+02  0.00000000000E+00 0. -1.
          1    1    1    2  502    0  0.20035833549E+03 -0.14016870703E+03  0.18026573775E+03  0.30378687470E+03  0.00000000000E+00 0. -1.
         22    1    3    3    0    0 -0.92376619773E+02  0.16721232519E+03 -0.52152968500E+01  0.19110363915E+03  0.00000000000E+00 0.  1.
         22    1    3    3    0    0 -0.31492112549E+02  0.23941487351E+02  0.64095751688E+02  0.75320736546E+02  0.00000000000E+00 0.  1.
</event>
<event>
 7    1  0.8792454E-005  0.2288954E+03  0.7818608E-02  0.1337638E+00
          2   -1    0    0  502    0  0.00000000000E+00  0.00000000000E+00  0.55546934701E+03  0.55546934701E+03  0.00000000000E+00 0. -1.
          1   -1    0    0  501    0 -0.00000000000E+00 -0.00000000000E+00 -0.12927806083E+03  0.12927806083E+03  0.00000000000E+00 0. -1.
         25    2    1    2    0    0  0.28141199453E+02  0.21894958177E+03  0.23497569529E+03  0.34578987602E+03  0.12500485797E+03 0.  0.
          2    1    1    2  501    0 -0.74525740754E+01 -0.23459141099E+03  0.12091428527E+03  0.26402449764E+03  0.00000000000E+00 0. -1.
          1    1    1    2  502    0 -0.20688625378E+02  0.15641829214E+02  0.70301305619E+02  0.74933034190E+02  0.00000000000E+00 0. -1.
         22    1    3    3    0    0  0.50042928173E+02  0.72163806818E+02  0.15256319398E+03  0.17603249084E+03  0.00000000000E+00 0.  1.
         22    1    3    3    0    0 -0.21901728720E+02  0.14678577496E+03  0.82412501307E+02  0.16975738518E+03  0.00000000000E+00 0.  1.
</event>
<event>
 7    1  0.8792454E-005  0.1504880E+03  0.7818608E-02  0.1273078E+00
          2   -1    0    0  502    0  0.00000000000E+00  0.00000000000E+00  0.20293174128E+04  0.20293174128E+04  0.00000000000E+00 0. -1.
          1   -1    0    0  501    0 -0.00000000000E+00 -0.00000000000E+00 -0.42555312864E+02  0.42555312864E+02  0.00000000000E+00 0. -1.
         25    2    1    2    0    0 -0.12752946703E+03 -0.14560363222E+03  0.88827229825E+03  0.91766938588E+03  0.12500097312E+03 0.  0.
          2    1    1    2  501    0  0.68358366770E+02  0.19917144674E+02  0.30906054884E+02  0.77619219192E+02  0.00000000000E+00 0. -1.
          1    1    1    2  502    0  0.59171100262E+02  0.12568648754E+03  0.10675837468E+04  0.10765841206E+04  0.00000000000E+00 0. -1.
         22    1    3    3    0    0 -0.11174749488E+02 -0.94070191595E+02  0.26203349913E+03  0.27863171148E+03  0.00000000000E+00 0.  1.
         22    1    3    3    0    0 -0.11635471754E+03 -0.51533440622E+02  0.62623879911E+03  0.63903767441E+03  0.00000000000E+00 0.  1.
</event>
<event>
 7    1  0.8792454E-005  0.3200820E+03  0.7818608E-02  0.1267791E+00
          2   -1    0    0  502    0  0.00000000000E+00  0.00000000000E+00  0.90512884098E+03  0.90512884098E+03  0.00000000000E+00 0. -1.
          1   -1    0    0  501    0 -0.00000000000E+00 -0.00000000000E+00 -0.81015644919E+03  0.81015644919E+03  0.00000000000E+00 0. -1.
         25    2    1    2    0    0  0.20359754136E+03 -0.25094763484E+03 -0.55610809892E+03  0.65521550135E+03  0.12499784494E+03 0.  0.
          2    1    1    2  501    0  0.23904731855E+02  0.25878717814E+02 -0.17272897671E+03  0.17628512029E+03  0.00000000000E+00 0. -1.
          1    1    1    2  502    0 -0.22750227322E+03  0.22506891703E+03  0.82380946741E+03  0.88378466853E+03  0.00000000000E+00 0. -1.
         22    1    3    3    0    0  0.14054827613E+02 -0.96760799536E+02 -0.11491493271E+03  0.15088284285E+03  0.00000000000E+00 0.  1.
         22    1    3    3    0    0  0.18954271375E+03 -0.15418683530E+03 -0.44119316621E+03  0.50433265850E+03  0.00000000000E+00 0.  1.
</event>
<event>
 7    1  0.8792454E-005  0.2610242E+03  0.7818608E-02  0.1116824E+00
          2   -1    0    0  502    0  0.00000000000E+00  0.00000000000E+00  0.10895857504E+04  0.10895857504E+04  0.00000000000E+00 0. -1.
          1   -1    0    0  501    0 -0.00000000000E+00 -0.00000000000E+00 -0.22282173502E+04  0.22282173502E+04  0.00000000000E+00 0. -1.
         25    2    1    2    0    0 -0.18872844859E+03 -0.12564076677E+03  0.98407703131E+03  0.10175638774E+04  0.12499844584E+03 0.  0.
          2    1    1    2  501    0 -0.19224681122E+03  0.17656383762E+03 -0.17341789162E+04  0.17537132430E+04  0.00000000000E+00 0. -1.
          1    1    1    2  502    0  0.38097525981E+03 -0.50923070845E+02 -0.38852971488E+03  0.54652598024E+03  0.00000000000E+00 0. -1.
         22    1    3    3    0    0 -0.18966088101E+03 -0.90663684222E+02  0.68725606010E+03  0.71868772465E+03  0.00000000000E+00 0.  1.
         22    1    3    3    0    0  0.93243241614E+00 -0.34977082551E+02  0.29682097121E+03  0.29887615275E+03  0.00000000000E+00 0.  1.
</event>
<event>
 7    1  0.8792454E-005  0.5991521E+03  0.7818608E-02  0.1051012E+00
          2   -1    0    0  502    0  0.00000000000E+00  0.00000000000E+00  0.19445226794E+04  0.19445226794E+04  0.00000000000E+00 0. -1.
          1   -1    0    0  501    0 -0.00000000000E+00 -0.00000000000E+00 -0.39380690398E+03  0.39380690398E+03  0.00000000000E+00 0. -1.
         25    2    1    2    0    0  0.64051759941E+03 -0.10452270572E+03  0.14843522653E+04  0.16248428024E+04  0.12499877550E+03 0.  0.
          2    1    1    2  501    0 -0.22004819277E+03  0.97640920582E+02  0.15148308414E+03  0.28443291177E+03  0.00000000000E+00 0. -1.
          1    1    1    2  502    0 -0.42046940664E+03  0.68817851348E+01 -0.85119573937E+02  0.42905386929E+03  0.00000000000E+00 0. -1.
         22    1    3    3    0    0  0.33703237418E+03 -0.10963035711E+03  0.72228986250E+03  0.80455719617E+03  0.00000000000E+00 0. -1.
         22    1    3    3    0    0  0.30348522523E+03  0.51076513966E+01  0.76206240276E+03  0.82028560620E+03  0.00000000000E+00 0. -1.
</event>
<event>
 7    1  0.8792454E-005  0.1100091E+03  0.7818608E-02  0.1317669E+00
          2   -1    0    0  502    0  0.00000000000E+00  0.00000000000E+00  0.99054871890E+03  0.99054871890E+03  0.00000000000E+00 0. -1.
          1   -1    0    0  501    0 -0.00000000000E+00 -0.00000000000E+00 -0.33121929580E+02  0.33121929580E+02  0.00000000000E+00 0. -1.
         25    2    1    2    0    0  0.83404056997E+02  0.70425669216E+02  0.30886302515E+03  0.35062412924E+03  0.12499960038E+03 0.  0.
          2    1    1    2  501    0  0.31162770153E+02 -0.56324035749E+02  0.24177187022E+03  0.25019422950E+03  0.00000000000E+00 0. -1.
          1    1    1    2  502    0 -0.11456682715E+03 -0.14101633468E+02  0.40679189395E+03  0.42285228974E+03  0.00000000000E+00 0. -1.
         22    1    3    3    0    0  0.98930882007E+02  0.68798767951E+02  0.15676370561E+03  0.19772569201E+03  0.00000000000E+00 0.  1.
         22    1    3    3    0    0 -0.15526825010E+02  0.16269012653E+01  0.15209931954E+03  0.15289843723E+03  0.00000000000E+00 0.  1.
</event>
<event>
 7    1  0.8792454E-005  0.2217329E+03  0.7818608E-02  0.1165521E+00
          2   -1    0    0  502    0  0.00000000000E+00  0.00000000000E+00  0.11181846684E+04  0.11181846684E+04  0.00000000000E+00 0. -1.
          1   -1    0    0  501    0 -0.00000000000E+00 -0.00000000000E+00 -0.36986590478E+03  0.36986590478E+03  0.00000000000E+00 0. -1.
         25    2    1    2    0    0  0.32001128833E+03 -0.38665077873E+02 -0.89944904378E+01  0.34584437221E+03  0.12500086412E+03 0.  0.
          2    1    1    2  501    0 -0.17642199390E+03  0.82075644501E+02 -0.13535118060E+03  0.23702547003E+03  0.00000000000E+00 0. -1.
          1    1    1    2  502    0 -0.14358929443E+03 -0.43410566629E+02  0.89266443469E+03  0.90518073097E+03  0.00000000000E+00 0. -1.
         22    1    3    3    0    0  0.13176307708E+03  0.18536471697E+02 -0.54688493667E+02  0.14386083764E+03  0.00000000000E+00 0.  1.
         22    1    3    3    0    0  0.18824821124E+03 -0.57201549570E+02  0.45694003230E+02  0.20198353458E+03  0.00000000000E+00 0.  1.
</event>
<event>
 7    1  0.8792454E-005  0.2254843E+03  0.7818608E-02  0.1178434E+00
          2   -1    0    0  502    0  0.00000000000E+00  0.00000000000E+00  0.87914658235E+03  0.87914658235E+03  0.00000000000E+00 0. -1.
          1   -1    0    0  501    0 -0.00000000000E+00 -0.00000000000E+00 -0.17322896267E+04  0.17322896267E+04  0.00000000000E+00 0. -1.
         25    2    1    2    0    0  0.31011319461E+03  0.15555382953E+03  0.27802338405E+02  0.36981743419E+03  0.12499910903E+03 0.  0.
          2    1    1    2  501    0 -0.20292493763E+03 -0.86835555180E+02 -0.15474241974E+04  0.15630868788E+04  0.00000000000E+00 0. -1.
          1    1    1    2  502    0 -0.10718825698E+03 -0.68718274346E+02  0.66647881462E+03  0.67853189608E+03  0.00000000000E+00 0. -1.
         22    1    3    3    0    0  0.14785048364E+03  0.38741418093E+02 -0.41220257769E+02  0.15830278784E+03  0.00000000000E+00 0.  1.
         22    1    3    3    0    0  0.16226271097E+03  0.11681241143E+03  0.69022596174E+02  0.21151464635E+03  0.00000000000E+00 0.  1.
</event>
<event>
 7    1  0.8792454E-005  0.2599026E+03  0.7818608E-02  0.1152462E+00
          2   -1    0    0  502    0  0.00000000000E+00  0.00000000000E+00  0.18836322854E+04  0.18836322854E+04  0.00000000000E+00 0. -1.
          1   -1    0    0  501    0 -0.00000000000E+00 -0.00000000000E+00 -0.10750994585E+03  0.10750994585E+03  0.00000000000E+00 0. -1.
         25    2    1    2    0    0  0.24187925732E+03  0.18436823755E+03  0.15711017275E+04  0.16051425126E+04  0.12499850099E+03 0.  0.
          2    1    1    2  501    0 -0.85159316881E+02 -0.12229846225E+03  0.50562209348E+02  0.15737077281E+03  0.00000000000E+00 0. -1.
          1    1    1    2  502    0 -0.15671994044E+03 -0.62069775307E+02  0.15445840268E+03  0.22862894589E+03  0.00000000000E+00 0. -1.
         22    1    3    3    0    0  0.22466514211E+03  0.18005747103E+03  0.12168868088E+04  0.12504833563E+04  0.00000000000E+00 0.  1.
         22    1    3    3    0    0  0.17214115218E+02  0.43107665202E+01  0.35421491873E+03  0.35465915626E+03  0.00000000000E+00 0.  1.
</event>
<event>
 7    1  0.8792454E-005  0.2412807E+03  0.7818608E-02  0.1177228E+00
          2   -1    0    0  502    0  0.00000000000E+00  0.00000000000E+00  0.73164966885E+03  0.73164966885E+03  0.00000000000E+00 0. -1.
          1   -1    0    0  501    0 -0.00000000000E+00 -0.00000000000E+00 -0.12274090126E+04  0.12274090126E+04  0.00000000000E+00 0. -1.
         25    2    1    2    0    0  0.24831425716E+03  0.52649151613E+02 -0.96728658076E+03  0.10078195560E+04  0.12500009833E+03 0.  0.
          2    1    1    2  501    0 -0.21854320360E+03  0.64237561398E+02 -0.17894986233E+03  0.28967334942E+03  0.00000000000E+00 0. -1.
          1    1    1    2  502    0 -0.29771053553E+02 -0.11688671301E+03  0.65047709934E+03  0.66156577607E+03  0.00000000000E+00 0. -1.
         22    1    3    3    0    0  0.31952753778E+02  0.30117591977E+02 -0.36156289059E+03  0.36421940046E+03  0.00000000000E+00 0. -1.
         22    1    3    3    0    0  0.21636150338E+03  0.22531559636E+02 -0.60572369017E+03  0.64360015550E+03  0.00000000000E+00 0. -1.
</event>
<event>
 7    1  0.8792454E-005  0.6990028E+03  0.7818608E-02  0.1179291E+00
          2   -1    0    0  502    0  0.00000000000E+00  0.00000000000E+00  0.74105460871E+03  0.74105460871E+03  0.00000000000E+00 0. -1.
          1   -1    0    0  501    0 -0.00000000000E+00 -0.00000000000E+00 -0.78906050147E+03  0.78906050147E+03  0.00000000000E+00 0. -1.
         25    2    1    2    0    0  0.71609857068E+03  0.29251671696E+02  0.15245077980E+03  0.74331570169E+03  0.12499667551E+03 0.  0.
          2    1    1    2  501    0 -0.68955168943E+03  0.15693946521E+01 -0.23994431173E+03  0.73010770995E+03  0.00000000000E+00 0. -1.
          1    1    1    2  502    0 -0.26546881252E+02 -0.30821066349E+02  0.39487639172E+02  0.56691698532E+02  0.00000000000E+00 0. -1.
         22    1    3    3    0    0  0.65375352033E+03  0.53154233895E+02  0.16263607918E+03  0.67577328460E+03  0.00000000000E+00 0. -1.
         22    1    3    3    0    0  0.62345050356E+02 -0.23902562198E+02 -0.10185299386E+02  0.67542417096E+02  0.00000000000E+00 0. -1.
</event>
<event>
 7    1  0.8792454E-005  0.2276927E+03  0.7818608E-02  0.1266373E+00
          2   -1    0    0  502    0  0.00000000000E+00  0.00000000000E+00  0.19878317880E+04  0.19878317880E+04  0.00000000000E+00 0. -1.
          1   -1    0    0  501    0 -0.00000000000E+00 -0.00000000000E+00 -0.77175541078E+03  0.77175541078E+03  0.00000000000E+00 0. -1.
         25    2    1    2    0    0  0.25374477983E+03  0.43968983380E+02 -0.31111134722E+03  0.42276587319E+03  0.12498411248E+03 0.  0.
          2    1    1    2  501    0 -0.21254903114E+03 -0.15260786806E+02 -0.37641925206E+03  0.43255223450E+03  0.00000000000E+00 0. -1.
          1    1    1    2  502    0 -0.41195748688E+02 -0.28708196575E+02  0.19036069766E+04  0.19042690911E+04  0.00000000000E+00 0. -1.
         22    1    3    3    0    0  0.15627422869E+02 -0.26601728297E+02 -0.99668897729E+01  0.32422325420E+02  0.00000000000E+00 0. -1.
         22    1    3    3    0    0  0.23811735696E+03  0.70570711677E+02 -0.30114445745E+03  0.39034354777E+03  0.00000000000E+00 0. -1.
</event>
<event>
 7    1  0.8792454E-005  0.5087966E+03  0.7818608E-02  0.1066777E+00
          2   -1    0    0  502    0  0.00000000000E+00  0.00000000000E+00  0.60447128390E+03  0.60447128390E+03  0.00000000000E+00 0. -1.
          1   -1    0    0  501    0 -0.00000000000E+00 -0.00000000000E+00 -0.12238286618E+04  0.12238286618E+04  0.00000000000E+00 0. -1.
         25    2    1    2    0    0  0.34280766474E+03  0.52560472794E+03 -0.22057720476E+03  0.67679893333E+03  0.12500027145E+03 0.  0.
          2    1    1    2  501    0 -0.21667198868E+03 -0.68567133818E+02 -0.59610249049E+03  0.63795484298E+03  0.00000000000E+00 0. -1.
          1    1    1    2  502    0 -0.12613567606E+03 -0.45703759412E+03  0.19732231732E+03  0.51354616942E+03  0.00000000000E+00 0. -1.
         22    1    3    3    0    0  0.30653941978E+03  0.38426244260E+03 -0.19414040761E+03  0.52850216512E+03  0.00000000000E+00 0. -1.
         22    1    3    3    0    0  0.36268244959E+02  0.14134228534E+03 -0.26436797144E+02  0.14829676821E+03  0.00000000000E+00 0. -1.
</event>
<event>
 7    1  0.8792454E-005  0.2278146E+03  0.7818608E-02  0.1204963E+00
          2   -1    0    0  502    0  0.00000000000E+00  0.00000000000E+00  0.13717865506E+04  0.13717865506E+04  0.00000000000E+00 0. -1.
          1   -1    0    0  501    0 -0.00000000000E+00 -0.00000000000E+00 -0.66813843289E+02  0.66813843289E+02  0.00000000000E+00 0. -1.
         25    2    1    2    0    0 -0.27510401577E+03  0.23534304244E+02  0.50292137289E+03  0.58718954481E+03  0.12500228498E+03 0.  0.
          2    1    1    2  501    0  0.18244547196E+03 -0.39859537460E+02  0.45502898702E+03  0.49186025658E+03  0.00000000000E+00 0. -1.
          1    1    1    2  502    0  0.92658543807E+02  0.16325233216E+02  0.34702234741E+03  0.35955059253E+03  0.00000000000E+00 0. -1.
         22    1    3    3    0    0 -0.19045376732E+03 -0.42978602880E+02  0.31416462137E+03  0.36989080431E+03  0.00000000000E+00 0.  1.
         22    1    3    3    0    0 -0.84650248450E+02  0.66512907124E+02  0.18875675152E+03  0.21729874050E+03  0.00000000000E+00 0.  1.
</event>
<event>
 7    1  0.8792454E-005  0.8907904E+02  0.7818608E-02  0.1458642E+00
          2   -1    0    0  502    0  0.00000000000E+00  0.00000000000E+00  0.10804371912E+04  0.10804371912E+04  0.00000000000E+00 0. -1.
          1   -1    0    0  501    0 -0.00000000000E+00 -0.00000000000E+00 -0.81618370037E+02  0.81618370037E+02  0.00000000000E+00 0. -1.
         25    2    1    2    0    0 -0.57571602202E+02 -0.31854100713E+02  0.15826165485E+03  0.21213397296E+03  0.12499959191E+03 0.  0.
          2    1    1    2  501    0 -0.23685545326E+02 -0.93175811000E+01 -0.49263670406E+02  0.55450262369E+02  0.00000000000E+00 0. -1.
          1    1    1    2  502    0  0.81257147527E+02  0.41171681813E+02  0.88982083676E+03  0.89447132594E+03  0.00000000000E+00 0. -1.
         22    1    3    3    0    0 -0.62317245425E+02  0.24852918982E+02  0.13481785464E+03  0.15058871335E+03  0.00000000000E+00 0.  1.
         22    1    3    3    0    0  0.47456432239E+01 -0.56707019695E+02  0.23443800212E+02  0.61545259611E+02  0.00000000000E+00 0.  1.
</event>
<event>
 7    1  0.8792454E-005  0.1222870E+03  0.7818608E-02  0.1241263E+00
          2   -1    0    0  502    0  0.00000000000E+00  0.00000000000E+00  0.22102345136E+03  0.22102345136E+03  0.00000000000E+00 0. -1.
          1   -1    0    0  501    0 -0.00000000000E+00 -0.00000000000E+00 -0.12412855801E+04  0.12412855801E+04  0.00000000000E+00 0. -1.
         25    2    1    2    0    0  0.14173091737E+02  0.15289943962E+03 -0.95290464085E+02  0.21976982084E+03  0.12505753253E+03 0.  0.
          2    1    1    2  501    0 -0.10153777457E+03 -0.63881832553E+02 -0.10553280794E+04  0.10621243635E+04  0.00000000000E+00 0. -1.
          1    1    1    2  502    0  0.87364682835E+02 -0.89017607067E+02  0.13035641483E+03  0.18041484712E+03  0.00000000000E+00 0. -1.
         22    1    3    3    0    0 -0.28014752330E+02  0.12525892626E+01  0.10689707371E+02  0.30011084146E+02  0.00000000000E+00 0. -1.
         22    1    3    3    0    0  0.42187844067E+02  0.15164685036E+03 -0.10598017146E+03  0.18975873670E+03  0.00000000000E+00 0. -1.
</event>
<event>
 7    1  0.8792454E-005  0.6639760E+03  0.7818608E-02  0.1013116E+00
          2   -1    0    0  502    0  0.00000000000E+00  0.00000000000E+00  0.23274671777E+04  0.23274671777E+04  0.00000000000E+00 0. -1.
          1   -1    0    0  501    0 -0.00000000000E+00 -0.00000000000E+00 -0.23220080454E+04  0.23220080454E+04  0.00000000000E+00 0. -1.
         25    2    1    2    0    0 -0.23316154900E+02  0.86118411601E+03  0.13206110641E+03  0.88048143072E+03  0.12500275706E+03 0.  0.
          2    1    1    2  501    0  0.28426562954E+03 -0.58444566730E+03 -0.18725325071E+04  0.19821104097E+04  0.00000000000E+00 0. -1.
          1    1    1    2  502    0 -0.26094947464E+03 -0.27673844871E+03  0.17459305329E+04  0.17868833826E+04  0.00000000000E+00 0. -1.
         22    1    3    3    0    0  0.12769560740E+02  0.13556516152E+03  0.64980189205E+02  0.15087544428E+03  0.00000000000E+00 0. -1.
         22    1    3    3    0    0 -0.36085715641E+02  0.72561895449E+03  0.67080917205E+02  0.72960598644E+03  0.00000000000E+00 0. -1.
</event>
<event>
 7    1  0.8792454E-005  0.4514576E+03  0.7818608E-02  0.1132873E+00
          2   -1    0    0  502    0  0.00000000000E+00  0.00000000000E+00  0.23561577814E+04  0.23561577814E+04  0.00000000000E+00 0. -1.
          1   -1    0    0  501    0 -0.00000000000E+00 -0.00000000000E+00 -0.99090259335E+03  0.99090259335E+03  0.00000000000E+00 0. -1.
         25    2    1    2    0    0 -0.29983625428E+03 -0.36506962840E+03 -0.66728394907E+03  0.82708526582E+03  0.12499822116E+03 0.  0.
          2    1    1    2  501    0  0.32045200602E+03  0.25850804158E+03 -0.67425455035E+02  0.41720748760E+03  0.00000000000E+00 0. -1.
          1    1    1    2  502    0 -0.20615751742E+02  0.10656158683E+03  0.20999645921E+04  0.21027676213E+04  0.00000000000E+00 0. -1.
         22    1    3    3    0    0 -0.60414382782E+02 -0.14909644864E+03 -0.16687991663E+03  0.23179420876E+03  0.00000000000E+00 0.  1.
         22    1    3    3    0    0 -0.23942187150E+03 -0.21597317977E+03 -0.50040403244E+03  0.59529105706E+03  0.00000000000E+00 0.  1.
</event>
<event>
 7    1  0.8792454E-005  0.4025843E+03  0.7818608E-02  0.1066031E+00
          2   -1    0    0  502    0  0.00000000000E+00  0.00000000000E+00  0.33913234630E+03  0.33913234630E+03  0.00000000000E+00 0. -1.
          1   -1    0    0  501    0 -0.00000000000E+00 -0.00000000000E+00 -0.15773649911E+04  0.15773649911E+04  0.00000000000E+00 0. -1.
         25    2    1    2    0    0  0.17620783303E+02 -0.49855306071E+03 -0.40088822783E+03  0.65207556085E+03  0.12500207799E+03 0.  0.
          2    1    1    2  501    0  0.21683212241E+03  0.32753761210E+03 -0.88692732122E+03  0.97001913887E+03  0.00000000000E+00 0. -1.
          1    1    1    2  502    0 -0.23445290571E+03  0.17101544861E+03  0.49582904278E+02  0.29440263765E+03  0.00000000000E+00 0. -1.
         22    1    3    3    0    0  0.64394993568E+02 -0.23449705392E+03 -0.22554466586E+03  0.33167149379E+03  0.00000000000E+00 0. -1.
         22    1    3    3    0    0 -0.46774210265E+02 -0.26405600679E+03 -0.17534356198E+03  0.32040406707E+03  0.00000000000E+00 0. -1.
</event>
<event>
 7    1  0.8792454E-005  0.5161983E+03  0.7818608E-02  0.1186237E+00
          2   -1    0    0  502    0  0.00000000000E+00  0.00000000000E+00  0.33687451744E+04  0.33687451744E+04  0.00000000000E+00 0. -1.
          1   -1    0    0  501    0 -0.00000000000E+00 -0.00000000000E+00 -0.16993752802E+03  0.16993752802E+03  0.00000000000E+00 0. -1.
         25    2    1    2    0    0  0.23357151853E+03  0.46308859455E+03  0.41574117356E+03  0.67636699954E+03  0.12499957598E+03 0.  0.
          2    1    1    2  501    0 -0.27332706376E+03 -0.43119863249E+03  0.16290467825E+04  0.17071711584E+04  0.00000000000E+00 0. -1.
          1    1    1    2  502    0  0.39755545224E+02 -0.31889962055E+02  0.11540196903E+04  0.11551445445E+04  0.00000000000E+00 0. -1.
         22    1    3    3    0    0 -0.68858570500E+01  0.84631610162E+02  0.59326719739E+02  0.10358370596E+03  0.00000000000E+00 0. -1.
         22    1    3    3    0    0  0.24045737558E+03  0.37845698439E+03  0.35641445382E+03  0.57278329357E+03  0.00000000000E+00 0. -1.
</event>
<event>
 7    1  0.8792454E-005  0.1350415E+03  0.7818608E-02  0.1280136E+00
          2   -1    0    0  502    0  0.00000000000E+00  0.00000000000E+00  0.27772757674E+03  0.27772757674E+03  0.00000000000E+00 0. -1.
          1   -1    0    0  501    0 -0.00000000000E+00 -0.00000000000E+00 -0.30813231920E+03  0.30813231920E+03  0.00000000000E+00 0. -1.
         25    2    1    2    0    0  0.91229113625E+02 -0.74169499273E+02 -0.52055223283E+02  0.17932667630E+03  0.12499777905E+03 0.  0.
          2    1    1    2  501    0 -0.14645596573E+03  0.24669333116E+02 -0.15516824826E+03  0.21479085447E+03  0.00000000000E+00 0. -1.
          1    1    1    2  502    0  0.55226852106E+02  0.49500166157E+02  0.17681872908E+03  0.19174236516E+03  0.00000000000E+00 0. -1.
         22    1    3    3    0    0  0.49958067350E+02 -0.10384069754E+03 -0.56430880815E+02  0.12830878095E+03  0.00000000000E+00 0. -1.
         22    1    3    3    0    0  0.41271046275E+02  0.29671198268E+02  0.43756575326E+01  0.51017895352E+02  0.00000000000E+00 0. -1.
</event>
<event>
 7    1  0.8792454E-005  0.6509453E+02  0.7818608E-02  0.1400588E+00
          2   -1    0    0  502    0  0.00000000000E+00  0.00000000000E+00  0.19755224151E+03  0.19755224151E+03  0.00000000000E+00 0. -1.
          1   -1    0    0  501    0 -0.00000000000E+00 -0.00000000000E+00 -0.11331679381E+04  0.11331679381E+04  0.00000000000E+00 0. -1.
         25    2    1    2    0    0  0.30801876621E+02 -0.31744983927E+02 -0.69064752081E+02  0.14950353874E+03  0.12499947404E+03 0.  0.
          2    1    1    2  501    0  0.36300520274E+02  0.40125724535E+02 -0.10158639848E+04  0.10173040043E+04  0.00000000000E+00 0. -1.
          1    1    1    2  502    0 -0.67102396895E+02 -0.83807406073E+01  0.14931304020E+03  0.16391263666E+03  0.00000000000E+00 0. -1.
         22    1    3    3    0    0 -0.26400975252E+02  0.33124365302E+02 -0.40006150307E+02  0.58264286946E+02  0.00000000000E+00 0.  1.
         22    1    3    3    0    0  0.57202851872E+02 -0.64869349229E+02 -0.29058601774E+02  0.91239251799E+02  0.00000000000E+00 0.  1.
</event>
<event>
 7    1  0.8792454E-005  0.5738120E+03  0.7818608E-02  0.1240298E+00
          2   -1    0    0  502    0  0.00000000000E+00  0.00000000000E+00  0.14013273044E+04  0.14013273044E+04  0.00000000000E+00 0. -1.
          1   -1    0    0  501    0 -0.00000000000E+00 -0.00000000000E+00 -0.33468701486E+04  0.33468701486E+04  0.00000000000E+00 0. -1.
         25    2    1    2    0    0 -0.49157378168E+03 -0.30638704909E+03 -0.26662283054E+04  0.27312849717E+04  0.12500565308E+03 0.  0.
          2    1    1    2  501    0  0.46721140342E+03  0.29784419768E+03 -0.52953618032E+03  0.76642431319E+03  0.00000000000E+00 0. -1.
          1    1    1    2  502    0  0.24362378256E+02  0.85428514050E+01  0.12502216415E+04  0.12504881682E+04  0.00000000000E+00 0. -1.
         22    1    3    3    0    0 -0.69375668041E+02  0.11616235214E+01 -0.36272449313E+03  0.36930121933E+03  0.00000000000E+00 0. -1.
         22    1    3    3    0    0 -0.42219811364E+03 -0.30754867261E+03 -0.23035038123E+04  0.23619837524E+04  0.00000000000E+00 0. -1.
</event>
<event>
 7    1  0.8792454E-005  0.2803858E+03  0.7818608E-02  0.1257667E+00
          2   -1    0    0  502    0  0.00000000000E+00  0.00000000000E+00  0.66439631977E+03  0.66439631977E+03  0.00000000000E+00 0. -1.
          1   -1    0    0  501    0 -0.00000000000E+00 -0.00000000000E+00 -0.39861150091E+03  0.39861150091E+03  0.00000000000E+00 0. -1.
         25    2    1    2    0    0  0.41147816094E+02 -0.29070839354E+03  0.18093817364E+01  0.31911347402E+03  0.12500249034E+03 0.  0.
          2    1    1    2  501    0  0.37222784843E+02  0.24214107112E+02 -0.19904682261E+03  0.20393993303E+03  0.00000000000E+00 0. -1.
          1    1    1    2  502    0 -0.78370600937E+02  0.26649428643E+03  0.46302225973E+03  0.53995441363E+03  0.00000000000E+00 0. -1.
         22    1    3    3    0    0 -0.68267172431E+01 -0.38170651367E+00  0.23090188120E+02  0.24081249046E+02  0.00000000000E+00 0.  1.
         22    1    3    3    0    0  0.47974533337E+02 -0.29032668703E+03 -0.21280806384E+02  0.29503222497E+03  0.00000000000E+00 0.  1.
</event>
<event>
 7    1  0.8792454E-005  0.5803437E+02  0.7818608E-02  0.1466861E+00
          2   -1    0    0  502    0  0.00000000000E+00  0.00000000000E+00  0.77455902940E+02  0.77455902940E+02  0.00000000000E+00 0. -1.
          1   -1    0    0  501    0 -0.00000000000E+00 -0.00000000000E+00 -0.36867209156E+04  0.36867209156E+04  0.00000000000E+00 0. -1.
         25    2    1    2    0    0  0.92839622543E+01 -0.39490574465E+02 -0.12414502379E+04  0.12483867052E+04  0.12499990003E+03 0.  0.
          2    1    1    2  501    0  0.23644370075E+02  0.55947931537E+02 -0.24368216051E+04  0.24375784628E+04  0.00000000000E+00 0. -1.
          1    1    1    2  502    0 -0.32928332329E+02 -0.16457357072E+02  0.69006830271E+02  0.78211650640E+02  0.00000000000E+00 0. -1.
         22    1    3    3    0    0 -0.34538929199E+02  0.31157524724E+02 -0.54802786113E+03  0.54999842323E+03  0.00000000000E+00 0. -1.
         22    1    3    3    0    0  0.43822891453E+02 -0.70648099189E+02 -0.69342237676E+03  0.69838828192E+03  0.00000000000E+00 0. -1.
</event>
<event>
 7    1  0.8792454E-005  0.1134118E+03  0.7818608E-02  0.1317433E+00
          2   -1    0    0  502    0  0.00000000000E+00  0.00000000000E+00  0.25925760693E+03  0.25925760693E+03  0.00000000000E+00 0. -1.
          1   -1    0    0  501    0 -0.00000000000E+00 -0.00000000000E+00 -0.14967756623E+04  0.14967756623E+04  0.00000000000E+00 0. -1.
         25    2    1    2    0    0  0.71122680607E+02 -0.12861643296E+03 -0.59194268342E+03  0.62259242480E+03  0.12499825775E+03 0.  0.
          2    1    1    2  501    0 -0.12274725354E+02  0.10735427620E+03 -0.88214404373E+03  0.88873715090E+03  0.00000000000E+00 0. -1.
          1    1    1    2  502    0 -0.58847955254E+02  0.21262156763E+02  0.23656867179E+03  0.24470369352E+03  0.00000000000E+00 0. -1.
         22    1    3    3    0    0  0.28252989902E+02 -0.77550791208E+02 -0.51147144660E+03  0.51808821386E+03  0.00000000000E+00 0.  1.
         22    1    3    3    0    0  0.42869690705E+02 -0.51065641754E+02 -0.80471236825E+02  0.10450421094E+03  0.00000000000E+00 0.  1.
</event>
<event>
 7    1  0.8792454E-005  0.6822185E+03  0.7818608E-02  0.1043555E+00
          2   -1    0    0  502    0  0.00000000000E+00  0.00000000000E+00  0.11694445632E+04  0.11694445632E+04  0.00000000000E+00 0. -1.
          1   -1    0    0  501    0 -0.00000000000E+00 -0.00000000000E+00 -0.69860149835E+03  0.69860149835E+03  0.00000000000E+00 0. -1.
         25    2    1    2    0    0 -0.45926456433E+03  0.56682783536E+03  0.10647957281E+03  0.74778229005E+03  0.12499087527E+03 0.  0.
          2    1    1    2  501    0  0.23040804777E+03 -0.62147129221E+03 -0.27288350167E+02  0.66336949702E+03  0.00000000000E+00 0. -1.
          1    1    1    2  502    0  0.22885651656E+03  0.54643456845E+02  0.39165184222E+03  0.45689427449E+03  0.00000000000E+00 0. -1.
         22    1    3    3    0    0 -0.20257123526E+03  0.18362734644E+03 -0.42531443806E+01  0.27344505289E+03  0.00000000000E+00 0.  1.
         22    1    3    3    0    0 -0.25669332907E+03  0.38320048892E+03  0.11073271719E+03  0.47433723716E+03  0.00000000000E+00 0.  1.
</event>
<event>
 7    1  0.8792454E-005  0.1467918E+03  0.7818608E-02  0.1241183E+00
          2   -1    0    0  502    0  0.00000000000E+00  0.00000000000E+00  0.16446623907E+04  0.16446623907E+04  0.00000000000E+00 0. -1.
          1   -1    0    0  501    0 -0.00000000000E+00 -0.00000000000E+00 -0.21478137202E+04  0.21478137202E+04  0.00000000000E+00 0. -1.
         25    2    1    2    0    0  0.28493586018E+02  0.13901537690E+03  0.14338817206E+04  0.14462989214E+04  0.12500648692E+03 0.  0.
          2    1    1    2  501    0 -0.79936053455E+02  0.60112091578E+02 -0.20884132340E+04  0.20908067993E+04  0.00000000000E+00 0. -1.
          1    1    1    2  502    0  0.51442467437E+02 -0.19912746847E+03  0.15138018383E+03  0.25537039024E+03  0.00000000000E+00 0. -1.
         22    1    3    3    0    0  0.22215819152E+02  0.36024632064E+01  0.67698045195E+03  0.67735445129E+03  0.00000000000E+00 0.  1.
         22    1    3    3    0    0  0.62777668652E+01  0.13541291369E+03  0.75690126867E+03  0.76894447008E+03  0.00000000000E+00 0.  1.
</event>
<event>
 7    1  0.8792454E-005  0.1067211E+04  0.7818608E-02  0.1144307E+00
          2   -1    0    0  502    0  0.00000000000E+00  0.00000000000E+00  0.21259662756E+04  0.21259662756E+04  0.00000000000E+00 0. -1.
          1   -1    0    0  501    0 -0.00000000000E+00 -0.00000000000E+00 -0.23660390126E+04  0.23660390126E+04  0.00000000000E+00 0. -1.
         25    2    1    2    0    0  0.10781863516E+04 -0.16482793349E+03 -0.18215874360E+04  0.21268426592E+04  0.12499941394E+03 0.  0.
          2    1    1    2  501    0 -0.20693403964E+02  0.34214933697E+02 -0.24625738685E+03  0.24948262311E+03  0.00000000000E+00 0. -1.
          1    1    1    2  502    0 -0.10574929477E+04  0.13061299979E+03  0.18277720858E+04  0.21156800059E+04  0.00000000000E+00 0. -1.
         22    1    3    3    0    0  0.92481994285E+03 -0.13433414439E+03 -0.14679493456E+04  0.17401761033E+04  0.00000000000E+00 0.  1.
         22    1    3    3    0    0  0.15336640877E+03 -0.30493789094E+02 -0.35363809033E+03  0.38666655589E+03  0.00000000000E+00 0.  1.
</event>
<event>
 7    1  0.8792454E-005  0.9667012E+02  0.7818608E-02  0.1354015E+00
          2   -1    0    0  502    0  0.00000000000E+00  0.00000000000E+00  0.21547461695E+04  0.21547461695E+04  0.00000000000E+00 0. -1.
          1   -1    0    0  501    0 -0.00000000000E+00 -0.00000000000E+00 -0.80554346809E+02  0.80554346809E+02  0.00000000000E+00 0. -1.
         25    2    1    2    0    0  0.82316709386E+02 -0.32842815811E+02  0.12966480839E+03  0.20072759145E+03  0.12499564889E+03 0.  0.
          2    1    1    2  501    0 -0.62204896844E+02  0.82263388889E+02  0.14896296359E+02  0.10420467354E+03  0.00000000000E+00 0. -1.
          1    1    1    2  502    0 -0.20111812542E+02 -0.49420573077E+02  0.19296307180E+04  0.19303682514E+04  0.00000000000E+00 0. -1.
         22    1    3    3    0    0  0.24092292550E+02  0.46609953719E+02  0.29275045578E+02  0.60082898062E+02  0.00000000000E+00 0. -1.
         22    1    3    3    0    0  0.58224416836E+02 -0.79452769530E+02  0.10038976281E+03  0.14064469339E+03  0.00000000000E+00 0. -1.
</event>
<event>
 7    1  0.8792454E-005  0.9012118E+02  0.7818608E-02  0.1447389E+00
          2   -1    0    0  502    0  0.00000000000E+00  0.00000000000E+00  0.40537403664E+03  0.40537403664E+03  0.00000000000E+00 0. -1.
          1   -1    0    0  501    0 -0.00000000000E+00 -0.00000000000E+00 -0.11502325399E+03  0.11502325399E+03  0.00000000000E+00 0. -1.
         25    2    1    2    0    0  0.17055130058E+02  0.66583687539E+02  0.15034773657E+03  0.20725319984E+03  0.12500072818E+03 0.  0.
          2    1    1    2  501    0 -0.36431472400E+02 -0.85847600152E+02 -0.60255255183E+02  0.11103043912E+03  0.00000000000E+00 0. -1.
          1    1    1    2  502    0  0.19376342342E+02  0.19263912613E+02  0.20025830126E+03  0.20211365168E+03  0.00000000000E+00 0. -1.
         22    1    3    3    0    0 -0.16620667196E+02  0.19403974460E+02  0.14698649752E+03  0.14919045296E+03  0.00000000000E+00 0. -1.
         22    1    3    3    0    0  0.33675797254E+02  0.47179713079E+02  0.33612390525E+01  0.58062746877E+02  0.00000000000E+00 0. -1.
</event>
<event>
 7    1  0.8792454E-005  0.2342041E+03  0.7818608E-02  0.1220418E+00
          2   -1    0    0  502    0  0.00000000000E+00  0.00000000000E+00  0.89331497202E+03  0.89331497202E+03  0.00000000000E+00 0. -1.
          1   -1    0    0  501    0 -0.00000000000E+00 -0.00000000000E+00 -0.15948605845E+04  0.15948605845E+04  0.00000000000E+00 0. -1.
         25    2    1    2    0    0 -0.23948553502E+03 -0.10265770929E+03  0.65633968777E+03  0.71714612187E+03  0.12499939044E+03 0.  0.
          2    1    1    2  501    0  0.77288728551E+02 -0.75357630581E+01 -0.15167052975E+04  0.15186919684E+04  0.00000000000E+00 0. -1.
          1    1    1    2  502    0  0.16219680647E+03  0.11019347235E+03  0.15881999724E+03  0.25233746630E+03  0.00000000000E+00 0. -1.
         22    1    3    3    0    0  0.56550004516E+01 -0.29850611314E+02  0.43181039030E+02  0.52798107520E+02  0.00000000000E+00 0. -1.
         22    1    3    3    0    0 -0.24514053547E+03 -0.72807097974E+02  0.61315864874E+03  0.66434801435E+03  0.00000000000E+00 0. -1.
</event>
<event>
 7    1  0.8792454E-005  0.8204148E+03  0.7818608E-02  0.1004039E+00
          2   -1    0    0  502    0  0.00000000000E+00  0.00000000000E+00  0.21341481770E+04  0.21341481770E+04  0.00000000000E+00 0. -1.
          1   -1    0    0  501    0 -0.00000000000E+00 -0.00000000000E+00 -0.15679693751E+04  0.15679693751E+04  0.00000000000E+00 0. -1.
         25    2    1    2    0    0 -0.34638126105E+02  0.89798772551E+03 -0.53526712775E+03  0.10534310474E+04  0.12499727427E+03 0.  0.
          2    1    1    2  501    0 -0.28087412060E+03 -0.73679906074E+03 -0.54888737746E+03  0.96074995741E+03  0.00000000000E+00 0. -1.
          1    1    1    2  502    0  0.31551224671E+03 -0.16118866477E+03  0.16503333071E+04  0.16879365474E+04  0.00000000000E+00 0. -1.
         22    1    3    3    0    0  0.12025007832E+01 -0.25671741364E+01 -0.97243410560E+01  0.10129126327E+02  0.00000000000E+00 0. -1.
         22    1    3    3    0    0 -0.35840626889E+02  0.90055489965E+03 -0.52554278669E+03  0.10433019210E+04  0.00000000000E+00 0. -1.
</event>
<event>
 7    1  0.8792454E-005  0.2598201E+03  0.7818608E-02  0.1221606E+00
          2   -1    0    0  502    0  0.00000000000E+00  0.00000000000E+00  0.47799629132E+04  0.47799629132E+04  0.00000000000E+00 0. -1.
          1   -1    0    0  501    0 -0.00000000000E+00 -0.00000000000E+00 -0.20203430669E+03  0.20203430669E+03  0.00000000000E+00 0. -1.
         25    2    1    2    0    0  0.19310807211E+03  0.18297319432E+03  0.19265974697E+03  0.35144401471E+03  0.12500080008E+03 0.  0.
          2    1    1    2  501    0 -0.22845767573E+03 -0.12356133534E+03  0.15453004671E+02  0.26019052355E+03  0.00000000000E+00 0. -1.
          1    1    1    2  502    0  0.35349603619E+02 -0.59411858986E+02  0.43698158549E+04  0.43703626817E+04  0.00000000000E+00 0. -1.
         22    1    3    3    0    0  0.15061465850E+03  0.87645277924E+02  0.17239377782E+03  0.24512463101E+03  0.00000000000E+00 0. -1.
         22    1    3    3    0    0  0.42493413609E+02  0.95327916400E+02  0.20265969153E+02  0.10631938370E+03  0.00000000000E+00 0. -1.
</event>
<event>
 7    1  0.8792454E-005  0.3406765E+03  0.7818608E-02  0.1084574E+00
          2   -1    0    0  502    0  0.00000000000E+00  0.00000000000E+00  0.41034644900E+03  0.41034644900E+03  0.00000000000E+00 0. -1.
          1   -1    0    0  501    0 -0.00000000000E+00 -0.00000000000E+00 -0.12826987926E+04  0.12826987926E+04  0.00000000000E+00 0. -1.
         25    2    1    2    0    0 -0.44909624421E+02 -0.21229712643E+03  0.23835171929E+03  0.34571582602E+03  0.12498378301E+03 0.  0.
          2    1    1    2  501    0 -0.20839977478E+03  0.29522812793E+03 -0.99158759694E+03  0.10553843262E+04  0.00000000000E+00 0. -1.
          1    1    1    2  502    0  0.25330939920E+03 -0.82931001496E+02 -0.11911646592E+03  0.29194508934E+03  0.00000000000E+00 0. -1.
         22    1    3    3    0    0  0.23984345145E+02 -0.41527525796E+02  0.46454727069E+01  0.48180542001E+02  0.00000000000E+00 0. -1.
         22    1    3    3    0    0 -0.68893969567E+02 -0.17076960064E+03  0.23370624658E+03  0.29753528402E+03  0.00000000000E+00 0. -1.
</event>
<event>
 7    1  0.8792454E-005  0.6095345E+03  0.7818608E-02  0.1125077E+00
          2   -1    0    0  502    0  0.00000000000E+00  0.00000000000E+00  0.29364617630E+04  0.29364617630E+04  0.00000000000E+00 0. -1.
          1   -1    0    0  501    0 -0.00000000000E+00 -0.00000000000E+00 -0.50730017053E+03  0.50730017053E+03  0.00000000000E+00 0. -1.
         25    2    1    2    0    0  0.11129573154E+03  0.63901125919E+03  0.13412642706E+04  0.14951032161E+04  0.12498661504E+03 0.  0.
          2    1    1    2  501    0 -0.66383702902E+02 -0.58500259918E+02 -0.36913811139E+03  0.37959454909E+03  0.00000000000E+00 0. -1.
          1    1    1    2  502    0 -0.44912028637E+02 -0.58051099928E+03  0.14570354333E+04  0.15690641684E+04  0.00000000000E+00 0. -1.
         22    1    3    3    0    0 -0.25514851410E+02  0.15338228861E+03  0.34224478147E+03  0.37591039431E+03  0.00000000000E+00 0.  1.
         22    1    3    3    0    0  0.13681058295E+03  0.48562897059E+03  0.99901948909E+03  0.11191928218E+04  0.00000000000E+00 0.  1.
</event>
<event>
 7    1  0.8792454E-005  0.4683226E+03  0.7818608E-02  0.1046727E+00
          2   -1    0    0  502    0  0.00000000000E+00  0.00000000000E+00  0.73740108227E+03  0.73740108227E+03  0.00000000000E+00 0. -1.
          1   -1    0    0  501    0 -0.00000000000E+00 -0.00000000000E+00 -0.27466402557E+04  0.27466402557E+04  0.00000000000E+00 0. -1.
         25    2    1    2    0    0 -0.84212372690E+02 -0.56236443196E+03  0.94372058467E+02  0.58981080462E+03  0.12500088709E+03 0.  0.
          2    1    1    2  501    0  0.28509227929E+03  0.16108094865E+03 -0.23564883616E+04  0.23791305299E+04  0.00000000000E+00 0. -1.
          1    1    1    2  502    0 -0.20087990660E+03  0.40128348331E+03  0.25287712972E+03  0.51510000348E+03  0.00000000000E+00 0. -1.
         22    1    3    3    0    0 -0.62605569986E+02 -0.13738137163E+03 -0.11167473405E+02  0.15138629768E+03  0.00000000000E+00 0.  1.
         22    1    3    3    0    0 -0.21606802704E+02 -0.42498306033E+03  0.10553953187E+03  0.43842450693E+03  0.00000000000E+00 0.  1.
</event>
<event>
 7    1  0.8792454E-005  0.1266863E+04  0.7818608E-02  0.1118524E+00
          2   -1    0    0  502    0  0.00000000000E+00  0.00000000000E+00  0.26623060974E+04  0.26623060974E+04  0.00000000000E+00 0. -1.
          1   -1    0    0  501    0 -0.00000000000E+00 -0.00000000000E+00 -0.27682767876E+04  0.27682767876E+04  0.00000000000E+00 0. -1.
         25    2    1    2    0    0 -0.73646190692E+03 -0.10235754219E+04 -0.39446672133E+03  0.13271441731E+04  0.12499950936E+03 0.  0.
          2    1    1    2  501    0  0.77805613601E+03  0.10034782463E+04 -0.16958537153E+04  0.21185513365E+04  0.00000000000E+00 0. -1.
          1    1    1    2  502    0 -0.41594229095E+02  0.20097175566E+02  0.19843497465E+04  0.19848873754E+04  0.00000000000E+00 0. -1.
         22    1    3    3    0    0 -0.70760561903E+03 -0.10053364123E+04 -0.39941949149E+03  0.12926495829E+04  0.00000000000E+00 0. -1.
         22    1    3    3    0    0 -0.28856287890E+02 -0.18239009593E+02  0.49527701652E+01  0.34494590214E+02  0.00000000000E+00 0. -1.
</event>
<event>
 7    1  0.8792454E-005  0.4446738E+03  0.7818608E-02  0.1050389E+00
          2   -1    0    0  502    0  0.00000000000E+00  0.00000000000E+00  0.39761947184E+03  0.39761947184E+03  0.00000000000E+00 0. -1.
          1   -1    0    0  501    0 -0.00000000000E+00 -0.00000000000E+00 -0.13214441230E+04  0.13214441230E+04  0.00000000000E+00 0. -1.
         25    2    1    2    0    0  0.51696697099E+03  0.22301826113E+03 -0.73567162761E+03  0.93478928130E+03  0.12500505139E+03 0.  0.
          2    1    1    2  501    0 -0.29295549929E+03  0.14587120665E+03 -0.11285546557E+03  0.34617580736E+03  0.00000000000E+00 0. -1.
          1    1    1    2  502    0 -0.22401147170E+03 -0.36888946777E+03 -0.75297557980E+02  0.43809850619E+03  0.00000000000E+00 0. -1.
         22    1    3    3    0    0  0.40527327043E+03  0.20515306095E+03 -0.51418469087E+03  0.68609044482E+03  0.00000000000E+00 0.  1.
         22    1    3    3    0    0  0.11169370056E+03  0.17865200174E+02 -0.22148693674E+03  0.24869883648E+03  0.00000000000E+00 0.  1.
</event>
<event>
 7    1  0.8792454E-005  0.5658010E+02  0.7818608E-02  0.1495269E+00
          2   -1    0    0  502    0  0.00000000000E+00  0.00000000000E+00  0.33013248575E+04  0.33013248575E+04  0.00000000000E+00 0. -1.
          1   -1    0    0  501    0 -0.00000000000E+00 -0.00000000000E+00 -0.10500407364E+02  0.10500407364E+02  0.00000000000E+00 0. -1.
         25    2    1    2    0    0  0.63995754888E+02  0.58084506484E+01  0.49354646069E+03  0.51316959076E+03  0.12500290111E+03 0.  0.
          2    1    1    2  501    0 -0.17053493601E+02  0.25770499232E+02  0.87606048670E+03  0.87660533687E+03  0.00000000000E+00 0. -1.
          1    1    1    2  502    0 -0.46942261287E+02 -0.31578949880E+02  0.19212175028E+04  0.19220503372E+04  0.00000000000E+00 0. -1.
         22    1    3    3    0    0  0.61500131884E+02  0.59938039253E+02  0.28140083583E+03  0.29421295889E+03  0.00000000000E+00 0.  1.
         22    1    3    3    0    0  0.24956230042E+01 -0.54129588605E+02  0.21214562485E+03  0.21895663187E+03  0.00000000000E+00 0.  1.
</event>
<event>
 7    1  0.8792454E-005  0.2378234E+03  0.7818608E-02  0.1167269E+00
          2   -1    0    0  502    0  0.00000000000E+00  0.00000000000E+00  0.83810389333E+03  0.83810389333E+03  0.00000000000E+00 0. -1.
          1   -1    0    0  501    0 -0.00000000000E+00 -0.00000000000E+00 -0.53078441289E+03  0.53078441289E+03  0.00000000000E+00 0. -1.
         25    2    1    2    0    0 -0.24191949259E+03 -0.11927438638E+03  0.72932527274E+03  0.78758565238E+03  0.12499754492E+03 0.  0.
          2    1    1    2  501    0  0.13679488997E+03  0.87450079081E+01 -0.40530026365E+03  0.42785233528E+03  0.00000000000E+00 0. -1.
          1    1    1    2  502    0  0.10512460262E+03  0.11052937847E+03 -0.16705528646E+02  0.15345031856E+03  0.00000000000E+00 0. -1.
         22    1    3    3    0    0 -0.65120430122E+02  0.15713494893E+02  0.25564600546E+03  0.26427724921E+03  0.00000000000E+00 0. -1.
         22    1    3    3    0    0 -0.17679906246E+03 -0.13498788127E+03  0.47367926728E+03  0.52330840317E+03  0.00000000000E+00 0. -1.
</event>
<event>
 7    1  0.8792454E-005  0.3032605E+03  0.7818608E-02  0.1137046E+00
          2   -1    0    0  502    0  0.00000000000E+00  0.00000000000E+00  0.10632012693E+04  0.10632012693E+04  0.00000000000E+00 0. -1.
          1   -1    0    0  501    0 -0.00000000000E+00 -0.00000000000E+00 -0.86244712956E+03  0.86244712956E+03  0.00000000000E+00 0. -1.
         25    2    1    2    0    0  0.42063838157E+03  0.10788558344E+03  0.10124902526E+03  0.46308967476E+03  0.12499893833E+03 0.  0.
          2    1    1    2  501    0 -0.15319865312E+03 -0.10778566770E+02 -0.64631435291E+03  0.66431035488E+03  0.00000000000E+00 0. -1.
          1    1    1    2  502    0 -0.26743972845E+03 -0.97107016674E+02  0.74581946737E+03  0.79824836922E+03  0.00000000000E+00 0. -1.
         22    1    3    3    0    0  0.88106162712E+02  0.61889630317E+01  0.72317910956E+02  0.11415287739E+03  0.00000000000E+00 0.  1.
         22    1    3    3    0    0  0.33253221886E+03  0.10169662041E+03  0.28931114308E+02  0.34893679737E+03  0.00000000000E+00 0.  1.
</event>
<event>
 7    1  0.8792454E-005  0.7857955E+02  0.7818608E-02  0.1337438E+00
          2   -1    0    0  502    0  0.00000000000E+00  0.00000000000E+00  0.63060005271E+03  0.63060005271E+03  0.00000000000E+00 0. -1.
          1   -1    0    0  501    0 -0.00000000000E+00 -0.00000000000E+00 -0.45737581822E+03  0.45737581822E+03  0.00000000000E+00 0. -1.
         25    2    1    2    0    0 -0.10693186242E+03  0.76167738159E+02  0.14102828682E+02  0.18182484725E+03  0.12500175105E+03 0.  0.
          2    1    1    2  501    0  0.29830458200E+02 -0.69554343763E+02 -0.36682065016E+03  0.37454646222E+03  0.00000000000E+00 0. -1.
          1    1    1    2  502    0  0.77101404220E+02 -0.66133943954E+01  0.52594205597E+03  0.53160456145E+03  0.00000000000E+00 0. -1.
         22    1    3    3    0    0 -0.21741145774E+02  0.69550338601E+02  0.50801793485E+02  0.88829889341E+02  0.00000000000E+00 0. -1.
         22    1    3    3    0    0 -0.85190716646E+02  0.66173995579E+01 -0.36698964804E+02  0.92994957913E+02  0.00000000000E+00 0. -1.
</event>
<event>
 7    1  0.8792454E-005  0.5244638E+02  0.7818608E-02  0.1449350E+00
          2   -1    0    0  502    0  0.00000000000E+00  0.00000000000E+00  0.39251524269E+04  0.39251524269E+04  0.00000000000E+00 0. -1.
          1   -1    0    0  501    0 -0.00000000000E+00 -0.00000000000E+00 -0.14544033302E+02  0.14544033302E+02  0.00000000000E+00 0. -1.
         25    2    1    2    0    0 -0.17057366488E+02  0.59228673497E+01  0.91672893518E+03  0.92538953768E+03  0.12501128642E+03 0.  0.
          2    1    1    2  501    0  0.83367136051E-01  0.46275459361E+02  0.43800606860E+02  0.63717487791E+02  0.00000000000E+00 0. -1.
          1    1    1    2  502    0  0.16973999352E+02 -0.52198326710E+02  0.29500788516E+04  0.29505894347E+04  0.00000000000E+00 0. -1.
         22    1    3    3    0    0 -0.68829461413E+02 -0.73519785281E+01  0.40453204629E+03  0.41041165045E+03  0.00000000000E+00 0. -1.
         22    1    3    3    0    0  0.51772094925E+02  0.13274845878E+02  0.51219688889E+03  0.51497788723E+03  0.00000000000E+00 0. -1.
</event>
<event>
 7    1  0.8792454E-005  0.4261056E+03  0.7818608E-02  0.1047967E+00
          2   -1    0    0  502    0  0.00000000000E+00  0.00000000000E+00  0.10611411402E+04  0.10611411402E+04  0.00000000000E+00 0. -1.
          1   -1    0    0  501    0 -0.00000000000E+00 -0.00000000000E+00 -0.16534528355E+04  0.16534528355E+04  0.00000000000E+00 0. -1.
         25    2    1    2    0    0 -0.22994461455E+03  0.42523020704E+03 -0.23382793747E+03  0.55135858307E+03  0.12500211216E+03 0.  0.
          2    1    1    2  501    0  0.42093997726E+03 -0.12770851748E+03 -0.11851426219E+04  0.12641451515E+04  0.00000000000E+00 0. -1.
          1    1    1    2  502    0 -0.19099536271E+03 -0.29752168956E+03  0.82665886395E+03  0.89909024113E+03  0.00000000000E+00 0. -1.
         22    1    3    3    0    0 -0.85349788729E+02  0.12493094836E+03 -0.13743158200E+03  0.20440099810E+03  0.00000000000E+00 0.  1.
         22    1    3    3    0    0 -0.14459482582E+03  0.30029925869E+03 -0.96396355468E+02  0.34695758497E+03  0.00000000000E+00 0.  1.
</event>
<event>
 7    1  0.8792454E-005  0.3088030E+03  0.7818608E-02  0.1146326E+00
          2   -1    0    0  502    0  0.00000000000E+00  0.00000000000E+00  0.49958374472E+03  0.49958374472E+03  0.00000000000E+00 0. -1.
          1   -1    0    0  501    0 -0.00000000000E+00 -0.00000000000E+00 -0.50884098152E+03  0.50884098152E+03  0.00000000000E+00 0. -1.
         25    2    1    2    0    0 -0.11863421841E+03  0.15461510820E+03 -0.33613761853E+03  0.40815751009E+03  0.12499657992E+03 0.  0.
          2    1    1    2  501    0 -0.80756339594E+02  0.10805340294E+03 -0.14653997342E+01  0.13490467623E+03  0.00000000000E+00 0. -1.
          1    1    1    2  502    0  0.19939055801E+03 -0.26266851114E+03  0.32834578145E+03  0.46536253992E+03  0.00000000000E+00 0. -1.
         22    1    3    3    0    0 -0.10875284679E+03  0.59305131743E+02 -0.25132351899E+03  0.28019241876E+03  0.00000000000E+00 0.  1.
         22    1    3    3    0    0 -0.98813716231E+01  0.95309976457E+02 -0.84814099539E+02  0.12796509133E+03  0.00000000000E+00 0.  1.
</event>
<event>
 7    1  0.8792454E-005  0.2202723E+03  0.7818608E-02  0.1210617E+00
          2   -1    0    0  502    0  0.00000000000E+00  0.00000000000E+00  0.13098655942E+04  0.13098655942E+04  0.00000000000E+00 0. -1.
          1   -1    0    0  501    0 -0.00000000000E+00 -0.00000000000E+00 -0.13444389001E+03  0.13444389001E+03  0.00000000000E+00 0. -1.
         25    2    1    2    0    0 -0.10377720960E+03  0.19708956265E+03  0.10879885617E+04  0.11175651912E+04  0.12497536316E+03 0.  0.
          2    1    1    2  501    0 -0.69713242575E+02 -0.59397702925E+02  0.41458675724E+02  0.10053280607E+03  0.00000000000E+00 0. -1.
          1    1    1    2  502    0  0.17349045217E+03 -0.13769185972E+03  0.45974466853E+02  0.22621148696E+03  0.00000000000E+00 0. -1.
         22    1    3    3    0    0 -0.32713111404E+02  0.14472509216E+03  0.86689261711E+03  0.87949889685E+03  0.00000000000E+00 0.  1.
         22    1    3    3    0    0 -0.71064098193E+02  0.52364470491E+02  0.22109594455E+03  0.23806629437E+03  0.00000000000E+00 0.  1.
</event>
<event>
 7    1  0.8792454E-005  0.4404270E+03  0.7818608E-02  0.1159040E+00
          2   -1    0    0  502    0  0.00000000000E+00  0.00000000000E+00  0.66743142177E+03  0.66743142177E+03  0.00000000000E+00 0. -1.
          1   -1    0    0  501    0 -0.00000000000E+00 -0.00000000000E+00 -0.10646551919E+04  0.10646551919E+04  0.00000000000E+00 0. -1.
         25    2    1    2    0    0 -0.21343656358E+02  0.44181974226E+03  0.30524448041E+03  0.55177771147E+03  0.12499685492E+03 0.  0.
          2    1    1    2  501    0 -0.80555465024E+02 -0.11793313996E+02 -0.73282444902E+03  0.73733299009E+03  0.00000000000E+00 0. -1.
          1    1    1    2  502    0  0.10189912138E+03 -0.43002642827E+03  0.30356198457E+02  0.44297591213E+03  0.00000000000E+00 0. -1.
         22    1    3    3    0    0 -0.28527080289E+02  0.43792752996E+03  0.26925256295E+03  0.51487013748E+03  0.00000000000E+00 0.  1.
         22    1    3    3    0    0  0.71834239310E+01  0.38922122964E+01  0.35991917455E+02  0.36907573993E+02  0.00000000000E+00 0.  1.
</event>
<event>
 7    1  0.8792454E-005  0.9836381E+02  0.7818608E-02  0.1288071E+00
          2   -1    0    0  502    0  0.00000000000E+00  0.00000000000E+00  0.21163687166E+04  0.21163687166E+04  0.00000000000E+00 0. -1.
          1   -1    0    0  501    0 -0.00000000000E+00 -0.00000000000E+00 -0.78721177241E+02  0.78721177241E+02  0.00000000000E+00 0. -1.
         25    2    1    2    0    0 -0.48522853407E+02 -0.11579764929E+03  0.10379254379E+04  0.10529378346E+04  0.12500122387E+03 0.  0.
          2    1    1    2  501    0  0.90868908277E+02  0.25799009479E+02 -0.36426507929E+02  0.10124049517E+03  0.00000000000E+00 0. -1.
          1    1    1    2  502    0 -0.42346054870E+02  0.89998639806E+02  0.10361486094E+04  0.10409115641E+04  0.00000000000E+00 0. -1.
         22    1    3    3    0    0  0.93846056005E+01  0.11675078108E+02  0.37928735016E+03  0.37958302420E+03  0.00000000000E+00 0.  1.
         22    1    3    3    0    0 -0.57907459008E+02 -0.12747272739E+03  0.65863808776E+03  0.67335481040E+03  0.00000000000E+00 0.  1.
</event>
<event>
 7    1  0.8792454E-005  0.8207762E+02  0.7818608E-02  0.1384431E+00
          2   -1    0    0  502    0  0.00000000000E+00  0.00000000000E+00  0.39207945731E+04  0.39207945731E+04  0.00000000000E+00 0. -1.
          1   -1    0    0  501    0 -0.00000000000E+00 -0.00000000000E+00 -0.43802242137E+02  0.43802242137E+02  0.00000000000E+00 0. -1.
         25    2    1    2    0    0 -0.61685760705E+01 -0.87913086275E+02  0.26268252505E+03  0.30395908057E+03  0.12498900602E+03 0.  0.
          2    1    1    2  501    0  0.46137168595E+02  0.16018681427E+02  0.35787462530E+01  0.48969826479E+02  0.00000000000E+00 0. -1.
          1    1    1    2  502    0 -0.39968592525E+02  0.71894404848E+02  0.36107310597E+04  0.36116679082E+04  0.00000000000E+00 0. -1.
         22    1    3    3    0    0  0.42908513841E+02 -0.25492709416E+02  0.30305419094E+02  0.58390386365E+02  0.00000000000E+00 0.  1.
         22    1    3    3    0    0 -0.49077089911E+02 -0.62420376859E+02  0.23237710596E+03  0.24556869421E+03  0.00000000000E+00 0.  1.
</event>
<event>
 7    1  0.8792454E-005  0.1644699E+03  0.7818608E-02  0.1253926E+00
          2   -1    0    0  502    0  0.00000000000E+00  0.00000000000E+00  0.14876342437E+04  0.14876342437E+04  0.00000000000E+00 0. -1.
          1   -1    0    0  501    0 -0.00000000000E+00 -0.00000000000E+00 -0.54579571342E+02  0.54579571342E+02  0.00000000000E+00 0. -1.
         25    2    1    2    0    0 -0.17289524104E+03 -0.65549095570E+02  0.12635896218E+04  0.12831497690E+04  0.12500059571E+03 0.  0.
          2    1    1    2  501    0  0.57039392890E+02  0.54015029196E+02  0.55849370053E+02  0.96386035584E+02  0.00000000000E+00 0. -1.
          1    1    1    2  502    0  0.11585584815E+03  0.11534066374E+02  0.11361568042E+03  0.16267801042E+03  0.00000000000E+00 0. -1.
         22    1    3    3    0    0 -0.12704005289E+03 -0.99917149702E+02  0.81114604569E+03  0.82709160271E+03  0.00000000000E+00 0. -1.
         22    1    3    3    0    0 -0.45855188157E+02  0.34368054132E+02  0.45244357616E+03  0.45605816628E+03  0.00000000000E+00 0. -1.
</event>
<event>
 7    1  0.8792454E-005  0.5900001E+02  0.7818608E-02  0.1449877E+00
          2   -1    0    0  502    0  0.00000000000E+00  0.00000000000E+00  0.89051130897E+03  0.89051130897E+03  0.00000000000E+00 0. -1.
          1   -1    0    0  501    0 -0.00000000000E+00 -0.00000000000E+00 -0.92533321340E+02  0.92533321340E+02  0.00000000000E+00 0. -1.
         25    2    1    2    0    0  0.19330272529E+02  0.27794673193E+02  0.26743787002E+03  0.29714399633E+03  0.12500134774E+03 0.  0.
          2    1    1    2  501    0 -0.21947561454E+02  0.34602248228E+02 -0.70543921094E+02  0.81580977192E+02  0.00000000000E+00 0. -1.
          1    1    1    2  502    0  0.26172889252E+01 -0.62396921421E+02  0.60108403870E+03  0.60431965679E+03  0.00000000000E+00 0. -1.
         22    1    3    3    0    0  0.70131607809E+02  0.34682323469E+02  0.16173360036E+03  0.17966375111E+03  0.00000000000E+00 0. -1.
         22    1    3    3    0    0 -0.50801335280E+02 -0.68876502769E+01  0.10570426966E+03  0.11748024522E+03  0.00000000000E+00 0. -1.
</event>
<event>
 7    1  0.8792454E-005  0.1439810E+03  0.7818608E-02  0.1212245E+00
          2   -1    0    0  502    0  0.00000000000E+00  0.00000000000E+00  0.10985008261E+04  0.10985008261E+04  0.00000000000E+00 0. -1.
          1   -1    0    0  501    0 -0.00000000000E+00 -0.00000000000E+00 -0.38854672203E+03  0.38854672203E+03  0.00000000000E+00 0. -1.
         25    2    1    2    0    0  0.71581007186E+02 -0.13469302072E+03 -0.20035863598E+03  0.28112880602E+03  0.12499508847E+03 0.  0.
          2    1    1    2  501    0  0.64696994184E+02  0.15447944514E+03 -0.94103243834E+02  0.19210679459E+03  0.00000000000E+00 0. -1.
          1    1    1    2  502    0 -0.13627800137E+03 -0.19786424421E+02  0.10044159839E+04  0.10138119475E+04  0.00000000000E+00 0. -1.
         22    1    3    3    0    0  0.12757858432E+02  0.24197519421E+02 -0.21795488521E+02  0.34976080652E+02  0.00000000000E+00 0.  1.
         22    1    3    3    0    0  0.58823148754E+02 -0.15889054014E+03 -0.17856314746E+03  0.24615272537E+03  0.00000000000E+00 0.  1.
</event>
<event>
 7    1  0.8792454E-005  0.2584943E+03  0.7818608E-02  0.1209426E+00
          2   -1    0    0  502    0  0.00000000000E+00  0.00000000000E+00  0.77507317364E+03  0.77507317364E+03  0.00000000000E+00 0. -1.
          1   -1    0    0  501    0 -0.00000000000E+00 -0.00000000000E+00 -0.13802737312E+04  0.13802737312E+04  0.00000000000E+00 0. -1.
         25    2    1    2    0    0 -0.65805246537E+02  0.18329077940E+03 -0.90580339195E+03  0.93489633193E+03  0.12500210519E+03 0.  0.
          2    1    1    2  501    0  0.27688325475E+02  0.74034222572E+02 -0.43400532349E+03  0.44114434179E+03  0.00000000000E+00 0. -1.
          1    1    1    2  502    0  0.38116921061E+02 -0.25732500198E+03  0.73460815785E+03  0.77930623114E+03  0.00000000000E+00 0. -1.
         22    1    3    3    0    0 -0.19743602036E+02  0.16765560138E+03 -0.81053335621E+03  0.82792664652E+03  0.00000000000E+00 0.  1.
         22    1    3    3    0    0 -0.46061644501E+02  0.15635178023E+02 -0.95270035737E+02  0.10696968540E+03  0.00000000000E+00 0.  1.
</event>
<event>
 7    1  0.8792454E-005  0.3751179E+03  0.7818608E-02  0.1159282E+00
          2   -1    0    0  502    0  0.00000000000E+00  0.00000000000E+00  0.51124945388E+03  0.51124945388E+03  0.00000000000E+00 0. -1.
          1   -1    0    0  501    0 -0.00000000000E+00 -0.00000000000E+00 -0.57563944824E+03  0.57563944824E+03  0.00000000000E+00 0. -1.
         25    2    1    2    0    0 -0.24475513632E+03 -0.32548991497E+03  0.10581303844E+03  0.43893876762E+03  0.12498832390E+03 0.  0.
          2    1    1    2  501    0 -0.20582368384E+02  0.93071020807E+02 -0.26589558398E+03  0.28246470644E+03  0.00000000000E+00 0. -1.
          1    1    1    2  502    0  0.26533750470E+03  0.23241889417E+03  0.95692551183E+02  0.36548542805E+03  0.00000000000E+00 0. -1.
         22    1    3    3    0    0 -0.22114034465E+03 -0.26706389201E+03  0.13157094274E+03  0.37085992966E+03  0.00000000000E+00 0. -1.
         22    1    3    3    0    0 -0.23614791666E+02 -0.58426022959E+02 -0.25757904303E+02  0.68078837962E+02  0.00000000000E+00 0. -1.
</event>
<event>
 7    1  0.8792454E-005  0.4747097E+02  0.7818608E-02  0.1571347E+00
          2   -1    0    0  502    0  0.00000000000E+00  0.00000000000E+00  0.77051922925E+01  0.77051922925E+01  0.00000000000E+00 0. -1.
          1   -1    0    0  501    0 -0.00000000000E+00 -0.00000000000E+00 -0.13739354507E+04  0.13739354507E+04  0.00000000000E+00 0. -1.
         25    2    1    2    0    0  0.23570564858E+02 -0.22003019924E+02 -0.83730037461E+03  0.84719346347E+03  0.12500057124E+03 0.  0.
          2    1    1    2  501    0 -0.30217089215E+02  0.43331623956E+02 -0.41489265901E+03  0.41824229893E+03  0.00000000000E+00 0. -1.
          1    1    1    2  502    0  0.66465243576E+01 -0.21328604031E+02 -0.11403722483E+03  0.11620488063E+03  0.00000000000E+00 0. -1.
         22    1    3    3    0    0  0.31447586260E+02  0.47837985774E+02 -0.44220276149E+03  0.44589315518E+03  0.00000000000E+00 0. -1.
         22    1    3    3    0    0 -0.78770214022E+01 -0.69841005698E+02 -0.39509761312E+03  0.40130030830E+03  0.00000000000E+00 0. -1.
</event>
<event>
 7    1  0.8792454E-005  0.4618365E+02  0.7818608E-02  0.1482252E+00
          2   -1    0    0  502    0  0.00000000000E+00  0.00000000000E+00  0.19635151498E+04  0.19635151498E+04  0.00000000000E+00 0. -1.
          1   -1    0    0  501    0 -0.00000000000E+00 -0.00000000000E+00 -0.76812134887E+02  0.76812134887E+02  0.00000000000E+00 0. -1.
         25    2    1    2    0    0  0.27646077756E+02  0.71744675041E+02  0.35590458395E+03  0.38497333269E+03  0.12499915995E+03 0.  0.
          2    1    1    2  501    0 -0.32055922998E+02 -0.26290984427E+02 -0.55012719336E+02  0.68885392865E+02  0.00000000000E+00 0. -1.
          1    1    1    2  502    0  0.44098452411E+01 -0.45453690615E+02  0.15858111503E+04  0.15864685592E+04  0.00000000000E+00 0. -1.
         22    1    3    3    0    0  0.25597452688E+02  0.39632739248E+02  0.26722742500E+02  0.54222583590E+02  0.00000000000E+00 0.  1.
         22    1    3    3    0    0  0.20486250680E+01  0.32111935793E+02  0.32918184145E+03  0.33075074909E+03  0.00000000000E+00 0.  1.
</event>
<event>
 7    1  0.8792454E-005  0.2121863E+03  0.7818608E-02  0.1187867E+00
          2   -1    0    0  502    0  0.00000000000E+00  0.00000000000E+00  0.23323961616E+04  0.23323961616E+04  0.00000000000E+00 0. -1.
          1   -1    0    0  501    0 -0.00000000000E+00 -0.00000000000E+00 -0.24452658154E+03  0.24452658154E+03  0.00000000000E+00 0. -1.
         25    2    1    2    0    0  0.42502910913E+02  0.23318174305E+03  0.12691776977E+03  0.29650155706E+03  0.12499932131E+03 0.  0.
          2    1    1    2  501    0 -0.13960987284E+03 -0.15972064680E+03 -0.86687738064E+02  0.22916449450E+03  0.00000000000E+00 0. -1.
          1    1    1    2  502    0  0.97106961931E+02 -0.73461096253E+02  0.20476395483E+04  0.20512566915E+04  0.00000000000E+00 0. -1.
         22    1    3    3    0    0 -0.11156441806E+02 -0.11232705657E+02 -0.19323851711E+00  0.15832789118E+02  0.00000000000E+00 0.  1.
         22    1    3    3    0    0  0.53659352719E+02  0.24441444871E+03  0.12711100828E+03  0.28066876794E+03  0.00000000000E+00 0.  1.
</event>
<event>
 7    1  0.8792454E-005  0.2924233E+03  0.7818608E-02  0.1121208E+00
          2   -1    0    0  502    0  0.00000000000E+00  0.00000000000E+00  0.48535771028E+03  0.48535771028E+03  0.00000000000E+00 0. -1.
          1   -1    0    0  501    0 -0.00000000000E+00 -0.00000000000E+00 -0.42770886783E+03  0.42770886783E+03  0.00000000000E+00 0. -1.
         25    2    1    2    0    0  0.24168141920E+03  0.21874753210E+03 -0.87507687527E+02  0.35991990782E+03  0.12499741390E+03 0.  0.
          2    1    1    2  501    0  0.53088938440E+02 -0.18609863037E+03 -0.47786030955E+02  0.19933549701E+03  0.00000000000E+00 0. -1.
          1    1    1    2  502    0 -0.29477035764E+03 -0.32648901723E+02  0.19294256093E+03  0.35381117329E+03  0.00000000000E+00 0. -1.
         22    1    3    3    0    0  0.13365826517E+03  0.70077000424E+02 -0.90789087595E+02  0.17611921038E+03  0.00000000000E+00 0.  1.
         22    1    3    3    0    0  0.10802315403E+03  0.14867053167E+03  0.32814000679E+01  0.18380069744E+03  0.00000000000E+00 0.  1.
</event>
<event>
 7    1  0.8792454E-005  0.2665578E+03  0.7818608E-02  0.1173288E+00
          2   -1    0    0  502    0  0.00000000000E+00  0.00000000000E+00  0.74126710935E+03  0.74126710935E+03  0.00000000000E+00 0. -1.
          1   -1    0    0  501    0 -0.00000000000E+00 -0.00000000000E+00 -0.36711058108E+03  0.36711058108E+03  0.00000000000E+00 0. -1.
         25    2    1    2    0    0 -0.12338136095E+03 -0.20623687835E+03  0.98454787712E+01  0.27106861772E+03  0.12499860736E+03 0.  0.
          2    1    1    2  501    0  0.90672248629E+02 -0.69371418247E+02 -0.18756256245E+03  0.21957587566E+03  0.00000000000E+00 0. -1.
          1    1    1    2  502    0  0.32709112318E+02  0.27560829659E+03  0.55187361194E+03  0.61773319705E+03  0.00000000000E+00 0. -1.
         22    1    3    3    0    0 -0.25603677845E+02 -0.15178497707E+03 -0.20043896544E+02  0.15522881617E+03  0.00000000000E+00 0. -1.
         22    1    3    3    0    0 -0.97777683102E+02 -0.54451901279E+02  0.29889375315E+02  0.11583980155E+03  0.00000000000E+00 0. -1.
</event>
<event>
 7    1  0.8792454E-005  0.2649777E+03  0.7818608E-02  0.1123677E+00
          2   -1    0    0  502    0  0.00000000000E+00  0.00000000000E+00  0.11573207780E+04  0.11573207780E+04  0.00000000000E+00 0. -1.
          1   -1    0    0  501    0 -0.00000000000E+00 -0.00000000000E+00 -0.71501015302E+03  0.71501015302E+03  0.00000000000E+00 0. -1.
         25    2    1    2    0    0  0.82531183404E+02 -0.19791568920E+03 -0.46553901799E+02  0.25253553099E+03  0.12499964950E+03 0.  0.
          2    1    1    2  501    0  0.10535904367E+03  0.28503128802E+03 -0.51327188688E+03  0.59648251701E+03  0.00000000000E+00 0. -1.
          1    1    1    2  502    0 -0.18789022708E+03 -0.87115598821E+02  0.10021364137E+04  0.10233128830E+04  0.00000000000E+00 0. -1.
         22    1    3    3    0    0  0.79782895530E+01  0.12311734691E+02  0.15163877145E+02  0.21099172623E+02  0.00000000000E+00 0.  1.
         22    1    3    3    0    0  0.74552893851E+02 -0.21022742389E+03 -0.61717778944E+02  0.23143635837E+03  0.00000000000E+00 0.  1.
</event>
<event>
 7    1  0.8792454E-005  0.5757685E+03  0.7818608E-02  0.1167238E+00
          2   -1    0    0  502    0  0.00000000000E+00  0.00000000000E+00  0.87749291250E+03  0.87749291250E+03  0.00000000000E+00 0. -1.
          1   -1    0    0  501    0 -0.00000000000E+00 -0.00000000000E+00 -0.15474336241E+04  0.15474336241E+04  0.00000000000E+00 0. -1.
         25    2    1    2    0    0 -0.55187210289E+03  0.78141133111E+02 -0.23090881854E+03  0.61612900170E+03  0.12500883819E+03 0.  0.
          2    1    1    2  501    0  0.56843559992E+03 -0.13230409237E+03 -0.10467418091E+04  0.11984539287E+04  0.00000000000E+00 0. -1.
          1    1    1    2  502    0 -0.16563497035E+02  0.54162959260E+02  0.60770991607E+03  0.61034360625E+03  0.00000000000E+00 0. -1.
         22    1    3    3    0    0 -0.15331096838E+03 -0.31645770026E+02 -0.82026496615E+02  0.17673158725E+03  0.00000000000E+00 0.  1.
         22    1    3    3    0    0 -0.39856113451E+03  0.10978690314E+03 -0.14888232193E+03  0.43939741445E+03  0.00000000000E+00 0.  1.
</event>
<event>
 7    1  0.8792454E-005  0.2371430E+03  0.7818608E-02  0.1168181E+00
          2   -1    0    0  502    0  0.00000000000E+00  0.00000000000E+00  0.26366975249E+03  0.26366975249E+03  0.00000000000E+00 0. -1.
          1   -1    0    0  501    0 -0.00000000000E+00 -0.00000000000E+00 -0.46763450126E+03  0.46763450126E+03  0.00000000000E+00 0. -1.
         25    2    1    2    0    0  0.96595469960E+02  0.19552891271E+03 -0.49673854735E+02  0.25623144114E+03  0.12499927625E+03 0.  0.
          2    1    1    2  501    0 -0.11466919006E+03  0.73187331491E+02 -0.15436132762E+03  0.20574943038E+03  0.00000000000E+00 0. -1.
          1    1    1    2  502    0  0.18073720099E+02 -0.26871624420E+03  0.70433582785E-01  0.26932338223E+03  0.00000000000E+00 0. -1.
         22    1    3    3    0    0  0.31371155506E+02 -0.39977971575E+01  0.17097648031E+02  0.35950818462E+02  0.00000000000E+00 0.  1.
         22    1    3    3    0    0  0.65224314454E+02  0.19952670986E+03 -0.66771502766E+02  0.22028062268E+03  0.00000000000E+00 0.  1.
</event>
<event>
 7    1  0.8792454E-005  0.1663207E+03  0.7818608E-02  0.1251485E+00
          2   -1    0    0  502    0  0.00000000000E+00  0.00000000000E+00  0.15972189895E+04  0.15972189895E+04  0.00000000000E+00 0. -1.
          1   -1    0    0  501    0 -0.00000000000E+00 -0.00000000000E+00 -0.61059695220E+03  0.61059695220E+03  0.00000000000E+00 0. -1.
         25    2    1    2    0    0 -0.18199155975E+03 -0.38736744037E+02  0.15541432423E+03  0.27276467755E+03  0.12500197592E+03 0.  0.
          2    1    1    2  501    0  0.49970455439E+02 -0.61949017197E+02 -0.54403297322E+03  0.54982415652E+03  0.00000000000E+00 0. -1.
          1    1    1    2  502    0  0.13202110432E+03  0.10068576123E+03  0.13752406863E+04  0.13852271077E+04  0.00000000000E+00 0. -1.
         22    1    3    3    0    0 -0.82446074995E+02  0.39206333134E+02  0.97920050457E+02  0.13387616712E+03  0.00000000000E+00 0. -1.
         22    1    3    3    0    0 -0.99545484759E+02 -0.77943077171E+02  0.57494273776E+02  0.13888851044E+03  0.00000000000E+00 0. -1.
</event>
<event>
 7    1  0.8792454E-005  0.1875944E+03  0.7818608E-02  0.1185344E+00
          2   -1    0    0  502    0  0.00000000000E+00  0.00000000000E+00  0.21601259443E+04  0.21601259443E+04  0.00000000000E+00 0. -1.
          1   -1    0    0  501    0 -0.00000000000E+00 -0.00000000000E+00 -0.12976918789E+04  0.12976918789E+04  0.00000000000E+00 0. -1.
         25    2    1    2    0    0  0.27070433001E+03 -0.93546848889E+02  0.61269848190E+03  0.68779300574E+03  0.12501176664E+03 0.  0.
          2    1    1    2  501    0 -0.13390928822E+03  0.13027575541E+03 -0.12498646194E+04  0.12637503855E+04  0.00000000000E+00 0. -1.
          1    1    1    2  502    0 -0.13679504179E+03 -0.36728906521E+02  0.14996002029E+04  0.15062744320E+04  0.00000000000E+00 0. -1.
         22    1    3    3    0    0  0.20961841408E+03 -0.10953784338E+03  0.55051441492E+03  0.59916987549E+03  0.00000000000E+00 0. -1.
         22    1    3    3    0    0  0.61085915928E+02  0.15990994493E+02  0.62184066980E+02  0.88623130253E+02  0.00000000000E+00 0. -1.
</event>
<event>
 7    1  0.8792454E-005  0.4902401E+03  0.7818608E-02  0.1084046E+00
          2   -1    0    0  502    0  0.00000000000E+00  0.00000000000E+00  0.97671415187E+03  0.97671415187E+03  0.00000000000E+00 0. -1.
          1   -1    0    0  501    0 -0.00000000000E+00 -0.00000000000E+00 -0.71055907670E+03  0.71055907670E+03  0.00000000000E+00 0. -1.
         25    2    1    2    0    0 -0.19795223624E+03 -0.51426169149E+03  0.67096748265E+03  0.87719459977E+03  0.12499131142E+03 0.  0.
          2    1    1    2  501    0  0.11666935456E+03  0.14554447982E+03 -0.38988928192E+03  0.43221358846E+03  0.00000000000E+00 0. -1.
          1    1    1    2  502    0  0.81282881681E+02  0.36871721167E+03 -0.14923125554E+02  0.37786504034E+03  0.00000000000E+00 0. -1.
         22    1    3    3    0    0  0.14325940727E+01 -0.38808023352E+02  0.12287718415E+02  0.40732088409E+02  0.00000000000E+00 0.  1.
         22    1    3    3    0    0 -0.19938483031E+03 -0.47545366814E+03  0.65867976423E+03  0.83646251136E+03  0.00000000000E+00 0.  1.
</event>
<event>
 7    1  0.8792454E-005  0.2955685E+03  0.7818608E-02  0.1180153E+00
          2   -1    0    0  502    0  0.00000000000E+00  0.00000000000E+00  0.79415070186E+02  0.79415070186E+02  0.00000000000E+00 0. -1.
          1   -1    0    0  501    0 -0.00000000000E+00 -0.00000000000E+00 -0.18163948163E+04  0.18163948163E+04  0.00000000000E+00 0. -1.
         25    2    1    2    0    0  0.26921316925E+03  0.49965992849E+01 -0.50732858755E+03  0.58779984640E+03  0.12500266869E+03 0.  0.
          2    1    1    2  501    0  0.63619089089E+02  0.70918492036E+02 -0.39318990325E+03  0.40456782005E+03  0.00000000000E+00 0. -1.
          1    1    1    2  502    0 -0.33283225834E+03 -0.75915091321E+02 -0.83646125528E+03  0.90344222000E+03  0.00000000000E+00 0. -1.
         22    1    3    3    0    0  0.25901534516E+03 -0.17991103731E+02 -0.49676156805E+03  0.56052179648E+03  0.00000000000E+00 0. -1.
         22    1    3    3    0    0  0.10197824096E+02  0.22987703016E+02 -0.10567019500E+02  0.27278049919E+02  0.00000000000E+00 0. -1.
</event>
<event>
 7    1  0.8792454E-005  0.1911548E+03  0.7818608E-02  0.1180821E+00
          2   -1    0    0  502    0  0.00000000000E+00  0.00000000000E+00  0.70522469533E+03  0.70522469533E+03  0.00000000000E+00 0. -1.
          1   -1    0    0  501    0 -0.00000000000E+00 -0.00000000000E+00 -0.16415070132E+03  0.16415070132E+03  0.00000000000E+00 0. -1.
         25    2    1    2    0    0 -0.10432384073E+03 -0.81756447596E+02  0.24864764373E+03  0.30825381925E+03  0.12500874320E+03 0.  0.
          2    1    1    2  501    0  0.14310094175E+03 -0.12673701775E+03 -0.10383492715E+02  0.19143659033E+03  0.00000000000E+00 0. -1.
          1    1    1    2  502    0 -0.38777101016E+02  0.20849346535E+03  0.30280984299E+03  0.36968498707E+03  0.00000000000E+00 0. -1.
         22    1    3    3    0    0 -0.30363160892E+02  0.14304601601E+02  0.22425411319E+01  0.33638848926E+02  0.00000000000E+00 0. -1.
         22    1    3    3    0    0 -0.73960679840E+02 -0.96061049198E+02  0.24640510260E+03  0.27461497032E+03  0.00000000000E+00 0. -1.
</event>
<event>
 7    1  0.8792454E-005  0.2810430E+03  0.7818608E-02  0.1099263E+00
          2   -1    0    0  502    0  0.00000000000E+00  0.00000000000E+00  0.88502372014E+03  0.88502372014E+03  0.00000000000E+00 0. -1.
          1   -1    0    0  501    0 -0.00000000000E+00 -0.00000000000E+00 -0.20385823327E+04  0.20385823327E+04  0.00000000000E+00 0. -1.
         25    2    1    2    0    0 -0.12198564552E+03  0.24856651374E+03 -0.41735449210E+02  0.30664963984E+03  0.12500537761E+03 0.  0.
          2    1    1    2  501    0 -0.14423847278E+03 -0.25309716523E+03 -0.18289447636E+04  0.18519994223E+04  0.00000000000E+00 0. -1.
          1    1    1    2  502    0  0.26622411830E+03  0.45306514941E+01  0.71712160026E+03  0.76495699064E+03  0.00000000000E+00 0. -1.
         22    1    3    3    0    0 -0.49775128779E+02  0.80921708567E+02 -0.75084114064E+02  0.12109298306E+03  0.00000000000E+00 0. -1.
         22    1    3    3    0    0 -0.72210516738E+02  0.16764480517E+03  0.33348664854E+02  0.18555665678E+03  0.00000000000E+00 0. -1.
</event>
<event>
 7    1  0.8792454E-005  0.1938989E+03  0.7818608E-02  0.1217702E+00
          2   -1    0    0  502    0  0.00000000000E+00  0.00000000000E+00  0.10939042728E+04  0.10939042728E+04  0.00000000000E+00 0. -1.
          1   -1    0    0  501    0 -0.00000000000E+00 -0.00000000000E+00 -0.74578284587E+03  0.74578284587E+03  0.00000000000E+00 0. -1.
         25    2    1    2    0    0  0.95187685827E+02 -0.19091690213E+03  0.60233788173E+03  0.65110709455E+03  0.12497826116E+03 0.  0.
          2    1    1    2  501    0 -0.15567317853E+03  0.11570656651E+03 -0.70313807048E+03  0.72940064039E+03  0.00000000000E+00 0. -1.
          1    1    1    2  502    0  0.60485492702E+02  0.75210335617E+02  0.44892161568E+03  0.45917938372E+03  0.00000000000E+00 0. -1.
         22    1    3    3    0    0  0.11289431637E+03 -0.89766441595E+02  0.36809097069E+03  0.39534049048E+03  0.00000000000E+00 0.  1.
         22    1    3    3    0    0 -0.17706630542E+02 -0.10115046053E+03  0.23424691103E+03  0.25576660407E+03  0.00000000000E+00 0.  1.
</event>
<event>
 7    1  0.8792454E-005  0.1494390E+03  0.7818608E-02  0.1264028E+00
          2   -1    0    0  502    0  0.00000000000E+00  0.00000000000E+00  0.34791472584E+04  0.34791472584E+04  0.00000000000E+00 0. -1.
          1   -1    0    0  501    0 -0.00000000000E+00 -0.00000000000E+00 -0.27876040750E+02  0.27876040750E+02  0.00000000000E+00 0. -1.
         25    2    1    2    0    0 -0.50213241576E+02  0.12367954574E+03  0.39993910516E+03  0.43976696497E+03  0.12500278386E+03 0.  0.
          2    1    1    2  501    0  0.66797375004E+02 -0.20017648730E+03  0.16058343367E+04  0.16196408343E+04  0.00000000000E+00 0. -1.
          1    1    1    2  502    0 -0.16584133428E+02  0.76496941561E+02  0.14454977758E+04  0.14476154998E+04  0.00000000000E+00 0. -1.
         22    1    3    3    0    0  0.14534445814E+02  0.75570222068E+02  0.30795131672E+03  0.31742104853E+03  0.00000000000E+00 0. -1.
         22    1    3    3    0    0 -0.64747687390E+02  0.48109323671E+02  0.91987788440E+02  0.12234591644E+03  0.00000000000E+00 0. -1.
</event>
<event>
 7    1  0.8792454E-005  0.1238063E+03  0.7818608E-02  0.1293314E+00
          2   -1    0    0  502    0  0.00000000000E+00  0.00000000000E+00  0.15906578980E+04  0.15906578980E+04  0.00000000000E+00 0. -1.
          1   -1    0    0  501    0 -0.00000000000E+00 -0.00000000000E+00 -0.32004993829E+03  0.32004993829E+03  0.00000000000E+00 0. -1.
         25    2    1    2    0    0 -0.15151181003E+03 -0.14549171794E+02  0.64229956689E+03  0.67181867907E+03  0.12499638769E+03 0.  0.
          2    1    1    2  501    0  0.11448062509E+03 -0.46562754349E+02 -0.29133972107E+03  0.31646917178E+03  0.00000000000E+00 0. -1.
          1    1    1    2  502    0  0.37031184946E+02  0.61111926143E+02  0.91964811388E+03  0.92241998544E+03  0.00000000000E+00 0. -1.
         22    1    3    3    0    0 -0.92129778443E+02 -0.47270060138E+02  0.20898461354E+03  0.23323148021E+03  0.00000000000E+00 0. -1.
         22    1    3    3    0    0 -0.59382031591E+02  0.32720888344E+02  0.43331495335E+03  0.43858719886E+03  0.00000000000E+00 0. -1.
</event>
<event>
 7    1  0.8792454E-005  0.1254870E+03  0.7818608E-02  0.1314140E+00
          2   -1    0    0  502    0  0.00000000000E+00  0.00000000000E+00  0.12600369388E+03  0.12600369388E+03  0.00000000000E+00 0. -1.
          1   -1    0    0  501    0 -0.00000000000E+00 -0.00000000000E+00 -0.62808363624E+03  0.62808363624E+03  0.00000000000E+00 0. -1.
         25    2    1    2    0    0  0.63553118573E+02  0.64688161799E+02 -0.21204028550E+03  0.26231464924E+03  0.12499734147E+03 0.  0.
          2    1    1    2  501    0 -0.10360557142E+02  0.57320815220E+02 -0.34345114299E+03  0.34835571565E+03  0.00000000000E+00 0. -1.
          1    1    1    2  502    0 -0.53192561431E+02 -0.12200897702E+03  0.53411486134E+02  0.14341696523E+03  0.00000000000E+00 0. -1.
         22    1    3    3    0    0  0.78070017593E+02  0.77489804225E+02 -0.10014242303E+03  0.14875517569E+03  0.00000000000E+00 0. -1.
         22    1    3    3    0    0 -0.14516899020E+02 -0.12801642426E+02 -0.11189786248E+03  0.11355947355E+03  0.00000000000E+00 0. -1.
</event>
<event>
 7    1  0.8792454E-005  0.1654241E+03  0.7818608E-02  0.1296637E+00
          2   -1    0    0  502    0  0.00000000000E+00  0.00000000000E+00  0.51505291379E+03  0.51505291379E+03  0.00000000000E+00 0. -1.
          1   -1    0    0  501    0 -0.00000000000E+00 -0.00000000000E+00 -0.15156111629E+03  0.15156111629E+03  0.00000000000E+00 0. -1.
         25    2    1    2    0    0  0.17316452797E+03 -0.14800234715E+02  0.68639983235E+02  0.22480748172E+03  0.12498782279E+03 0.  0.
          2    1    1    2  501    0 -0.15098691360E+03  0.61671477489E+02  0.22592909270E+02  0.16465375417E+03  0.00000000000E+00 0. -1.
          1    1    1    2  502    0 -0.22177614372E+02 -0.46871242774E+02  0.27225890499E+03  0.27715279419E+03  0.00000000000E+00 0. -1.
         22    1    3    3    0    0  0.16830680570E+03 -0.27619813462E+02  0.94901681944E+02  0.19518289930E+03  0.00000000000E+00 0. -1.
         22    1    3    3    0    0  0.48577222675E+01  0.12819578747E+02 -0.26261698709E+02  0.29624582427E+02  0.00000000000E+00 0. -1.
</event>
<event>
 7    1  0.8792454E-005  0.9310377E+02  0.7818608E-02  0.1363810E+00
          2   -1    0    0  502    0  0.00000000000E+00  0.00000000000E+00  0.34745774220E+04  0.34745774220E+04  0.00000000000E+00 0. -1.
          1   -1    0    0  501    0 -0.00000000000E+00 -0.00000000000E+00 -0.31803113417E+04  0.31803113417E+04  0.00000000000E+00 0. -1.
         25    2    1    2    0    0  0.99665352339E+02  0.20089624772E+02 -0.80996390441E+00  0.16112707912E+03  0.12499801640E+03 0.  0.
          2    1    1    2  501    0 -0.29745254337E+02  0.41446571012E+02 -0.30984938509E+04  0.30989138004E+04  0.00000000000E+00 0. -1.
          1    1    1    2  502    0 -0.69920098003E+02 -0.61536195783E+02  0.33935698951E+04  0.33948478841E+04  0.00000000000E+00 0. -1.
         22    1    3    3    0    0  0.13337399042E+01 -0.76516157774E+01 -0.47972464551E+02  0.48597154662E+02  0.00000000000E+00 0. -1.
         22    1    3    3    0    0  0.98331612435E+02  0.27741240549E+02  0.47162500647E+02  0.11252992446E+03  0.00000000000E+00 0. -1.
</event>
<event>
 7    1  0.8792454E-005  0.2913477E+03  0.7818608E-02  0.1226294E+00
          2   -1    0    0  502    0  0.00000000000E+00  0.00000000000E+00  0.24449853539E+04  0.24449853539E+04  0.00000000000E+00 0. -1.
          1   -1    0    0  501    0 -0.00000000000E+00 -0.00000000000E+00 -0.11442480043E+04  0.11442480043E+04  0.00000000000E+00 0. -1.
         25    2    1    2    0    0 -0.26999895498E+03 -0.20634155743E+03  0.30637620683E+03  0.47430743612E+03  0.12499955932E+03 0.  0.
          2    1    1    2  501    0  0.56273266623E+02  0.16738545630E+02 -0.10495258788E+04  0.10511666993E+04  0.00000000000E+00 0. -1.
          1    1    1    2  502    0  0.21372568836E+03  0.18960301180E+03  0.20438870216E+04  0.20637592227E+04  0.00000000000E+00 0. -1.
         22    1    3    3    0    0 -0.28280151793E+03 -0.19633891204E+03  0.30067351506E+03  0.45708886399E+03  0.00000000000E+00 0. -1.
         22    1    3    3    0    0  0.12802562945E+02 -0.10002645390E+02  0.57026917689E+01  0.17218572129E+02  0.00000000000E+00 0. -1.
</event>
<event>
 7    1  0.8792454E-005  0.3769243E+03  0.7818608E-02  0.1131221E+00
          2   -1    0    0  502    0  0.00000000000E+00  0.00000000000E+00  0.63953120735E+03  0.63953120735E+03  0.00000000000E+00 0. -1.
          1   -1    0    0  501    0 -0.00000000000E+00 -0.00000000000E+00 -0.38740061436E+03  0.38740061436E+03  0.00000000000E+00 0. -1.
         25    2    1    2    0    0  0.32852672089E+03 -0.14093224063E+02 -0.79217886087E+02  0.36059376217E+03  0.12499585009E+03 0.  0.
          2    1    1    2  501    0  0.59327105365E+02  0.11864891668E+03 -0.18136510554E+02  0.13388877427E+03  0.00000000000E+00 0. -1.
          1    1    1    2  502    0 -0.38785382625E+03 -0.10455569262E+03  0.34948498963E+03  0.53244928526E+03  0.00000000000E+00 0. -1.
         22    1    3    3    0    0  0.47584715178E+02 -0.21477617936E+02 -0.59068631237E+02  0.78833345654E+02  0.00000000000E+00 0.  1.
         22    1    3    3    0    0  0.28094200571E+03  0.73843938732E+01 -0.20149254850E+02  0.28176041652E+03  0.00000000000E+00 0.  1.
</event>
<event>
 7    1  0.8792454E-005  0.6458046E+02  0.7818608E-02  0.1413900E+00
          2   -1    0    0  502    0  0.00000000000E+00  0.00000000000E+00  0.36673956828E+03  0.36673956828E+03  0.00000000000E+00 0. -1.
          1   -1    0    0  501    0 -0.00000000000E+00 -0.00000000000E+00 -0.24135229232E+03  0.24135229232E+03  0.00000000000E+00 0. -1.
         25    2    1    2    0    0 -0.56438868541E+02 -0.26461265690E+02  0.23168216568E+03  0.27053087363E+03  0.12499913292E+03 0.  0.
          2    1    1    2  501    0  0.28206911557E+02 -0.40236078170E+02 -0.20742783218E+03  0.21316865953E+03  0.00000000000E+00 0. -1.
          1    1    1    2  502    0  0.28231956984E+02  0.66697343860E+02  0.10113294246E+03  0.12439232743E+03  0.00000000000E+00 0. -1.
         22    1    3    3    0    0 -0.77113832239E+02  0.92325770766E+01  0.21006116191E+03  0.22395864651E+03  0.00000000000E+00 0. -1.
         22    1    3    3    0    0  0.20674963698E+02 -0.35693842767E+02  0.21621003768E+02  0.46572227124E+02  0.00000000000E+00 0. -1.
</event>
<event>
 7    1  0.8792454E-005  0.7919447E+03  0.7818608E-02  0.1003363E+00
          2   -1    0    0  502    0  0.00000000000E+00  0.00000000000E+00  0.24136564715E+04  0.24136564715E+04  0.00000000000E+00 0. -1.
          1   -1    0    0  501    0 -0.00000000000E+00 -0.00000000000E+00 -0.93063544558E+03  0.93063544558E+03  0.00000000000E+00 0. -1.
         25    2    1    2    0    0 -0.27554800496E+03  0.72210596575E+03  0.14458922854E+04  0.16442604321E+04  0.12499655415E+03 0.  0.
          2    1    1    2  501    0 -0.35925190776E+03 -0.92376571575E+02 -0.52576188446E+03  0.64344457675E+03  0.00000000000E+00 0. -1.
          1    1    1    2  502    0  0.63479991271E+03 -0.62972939417E+03  0.56289062495E+03  0.10565869083E+04  0.00000000000E+00 0. -1.
         22    1    3    3    0    0 -0.45102066495E+01  0.88678642750E+01  0.72278823580E+02  0.72960327020E+02  0.00000000000E+00 0. -1.
         22    1    3    3    0    0 -0.27103779831E+03  0.71323810147E+03  0.13736134618E+04  0.15713001050E+04  0.00000000000E+00 0. -1.
</event>
<event>
 7    1  0.8792454E-005  0.4174684E+03  0.7818608E-02  0.1158424E+00
          2   -1    0    0  502    0  0.00000000000E+00  0.00000000000E+00  0.50075617066E+04  0.50075617066E+04  0.00000000000E+00 0. -1.
          1   -1    0    0  501    0 -0.00000000000E+00 -0.00000000000E+00 -0.52124503294E+03  0.52124503294E+03  0.00000000000E+00 0. -1.
         25    2    1    2    0    0  0.32045530007E+03  0.30436871381E+03 -0.29450939606E+03  0.54561287205E+03  0.12500283395E+03 0.  0.
          2    1    1    2  501    0 -0.26504380263E+03 -0.23793200328E+03  0.21393879534E+03  0.41548726052E+03  0.00000000000E+00 0. -1.
          1    1    1    2  502    0 -0.55411497438E+02 -0.66436710526E+02  0.45668872743E+04  0.45677066069E+04  0.00000000000E+00 0. -1.
         22    1    3    3    0    0  0.14556579430E+03  0.14852137319E+03 -0.21273468558E+03  0.29749629445E+03  0.00000000000E+00 0. -1.
         22    1    3    3    0    0  0.17488950577E+03  0.15584734062E+03 -0.81774710476E+02  0.24811657760E+03  0.00000000000E+00 0. -1.
</event>
<event>
 7    1  0.8792454E-005  0.3234287E+02  0.7818608E-02  0.1644940E+00
          2   -1    0    0  502    0  0.00000000000E+00  0.00000000000E+00  0.47924268037E+03  0.47924268037E+03  0.00000000000E+00 0. -1.
          1   -1    0    0  501    0 -0.00000000000E+00 -0.00000000000E+00 -0.40957089623E+02  0.40957089623E+02  0.00000000000E+00 0. -1.
         25    2    1    2    0    0  0.36016725958E+02 -0.99055821833E+01  0.95161194460E+02  0.16144689953E+03  0.12495648575E+03 0.  0.
          2    1    1    2  501    0 -0.20896992614E+02  0.24697104519E+02  0.27614015538E+02  0.42534281774E+02  0.00000000000E+00 0. -1.
          1    1    1    2  502    0 -0.15119733344E+02 -0.14791522335E+02  0.31551038075E+03  0.31621858869E+03  0.00000000000E+00 0. -1.
         22    1    3    3    0    0 -0.24265659261E+01 -0.63622703714E+02  0.38392254271E+02  0.74348516045E+02  0.00000000000E+00 0. -1.
         22    1    3    3    0    0  0.38443291884E+02  0.53717121531E+02  0.56768940189E+02  0.87098383490E+02  0.00000000000E+00 0. -1.
</event>
<event>
 7    1  0.8792454E-005  0.2261011E+03  0.7818608E-02  0.1202446E+00
          2   -1    0    0  502    0  0.00000000000E+00  0.00000000000E+00  0.19328695636E+03  0.19328695636E+03  0.00000000000E+00 0. -1.
          1   -1    0    0  501    0 -0.00000000000E+00 -0.00000000000E+00 -0.97547731816E+03  0.97547731816E+03  0.00000000000E+00 0. -1.
         25    2    1    2    0    0 -0.21540344943E+03 -0.20501956126E+03 -0.31242778458E+03  0.44907792936E+03  0.12501279748E+03 0.  0.
          2    1    1    2  501    0  0.16954939837E+03  0.11907842411E+03 -0.55364202887E+03  0.59113971758E+03  0.00000000000E+00 0. -1.
          1    1    1    2  502    0  0.45854051055E+02  0.85941137146E+02  0.83879451644E+02  0.12854662757E+03  0.00000000000E+00 0. -1.
         22    1    3    3    0    0 -0.61016080021E+02 -0.13268046112E+03 -0.18775333871E+03  0.23786210918E+03  0.00000000000E+00 0. -1.
         22    1    3    3    0    0 -0.15438736941E+03 -0.72339100137E+02 -0.12467444587E+03  0.21121582018E+03  0.00000000000E+00 0. -1.
</event>
<event>
 7    1  0.8792454E-005  0.1136918E+04  0.7818608E-02  0.1042458E+00
          2   -1    0    0  502    0  0.00000000000E+00  0.00000000000E+00  0.21391102720E+04  0.21391102720E+04  0.00000000000E+00 0. -1.
          1   -1    0    0  501    0 -0.00000000000E+00 -0.00000000000E+00 -0.16535943173E+04  0.16535943173E+04  0.00000000000E+00 0. -1.
         25    2    1    2    0    0  0.12332238180E+04 -0.72341317905E+01  0.23462624605E+03  0.12615738168E+04  0.12500280741E+03 0.  0.
          2    1    1    2  501    0 -0.11010528572E+04  0.62983530188E+02 -0.86776415570E+03  0.14033171236E+04  0.00000000000E+00 0. -1.
          1    1    1    2  502    0 -0.13217096088E+03 -0.55749398398E+02  0.11186538644E+04  0.11278136489E+04  0.00000000000E+00 0. -1.
         22    1    3    3    0    0  0.66999209415E+01 -0.20577819183E+01 -0.86627521829E+01  0.11143010474E+02  0.00000000000E+00 0.  1.
         22    1    3    3    0    0  0.12265238971E+04 -0.51763498723E+01  0.24328899823E+03  0.12504308063E+04  0.00000000000E+00 0.  1.
</event>
<event>
 7    1  0.8792454E-005  0.1844849E+03  0.7818608E-02  0.1164772E+00
          2   -1    0    0  502    0  0.00000000000E+00  0.00000000000E+00  0.20777912886E+04  0.20777912886E+04  0.00000000000E+00 0. -1.
          1   -1    0    0  501    0 -0.00000000000E+00 -0.00000000000E+00 -0.77317143970E+03  0.77317143970E+03  0.00000000000E+00 0. -1.
         25    2    1    2    0    0 -0.73169947484E+02 -0.45037267607E+02  0.62237854132E+03  0.64059535947E+03  0.12500067676E+03 0.  0.
          2    1    1    2  501    0  0.13115183397E+03 -0.13009922507E+03 -0.74688036051E+03  0.76938734383E+03  0.00000000000E+00 0. -1.
          1    1    1    2  502    0 -0.57981886489E+02  0.17513649267E+03  0.14291216681E+04  0.14409800250E+04  0.00000000000E+00 0. -1.
         22    1    3    3    0    0 -0.39260656492E+02 -0.88019590370E+02  0.42261774445E+03  0.43346811343E+03  0.00000000000E+00 0. -1.
         22    1    3    3    0    0 -0.33909290992E+02  0.42982322763E+02  0.19976079687E+03  0.20712724604E+03  0.00000000000E+00 0. -1.
</event>
<event>
 7    1  0.8792454E-005  0.1399494E+03  0.7818608E-02  0.1364635E+00
          2   -1    0    0  502    0  0.00000000000E+00  0.00000000000E+00  0.11255418535E+04  0.11255418535E+04  0.00000000000E+00 0. -1.
          1   -1    0    0  501    0 -0.00000000000E+00 -0.00000000000E+00 -0.90735640112E+03  0.90735640112E+03  0.00000000000E+00 0. -1.
         25    2    1    2    0    0 -0.52970323987E+01  0.16241619494E+03 -0.79683942518E+02  0.21995844884E+03  0.12500043836E+03 0.  0.
          2    1    1    2  501    0 -0.21753166459E+02 -0.25746722067E+02 -0.75255851617E+03  0.75331295900E+03  0.00000000000E+00 0. -1.
          1    1    1    2  502    0  0.27050198858E+02 -0.13666947287E+03  0.10504279110E+04  0.10596268467E+04  0.00000000000E+00 0. -1.
         22    1    3    3    0    0 -0.21570664919E+01  0.37774468362E+02 -0.87196012355E+02  0.95051080828E+02  0.00000000000E+00 0. -1.
         22    1    3    3    0    0 -0.31399659068E+01  0.12464172658E+03  0.75120698371E+01  0.12490736801E+03  0.00000000000E+00 0. -1.
</event>
<event>
 7    1  0.8792454E-005  0.1221694E+03  0.7818608E-02  0.1279020E+00
          2   -1    0    0  502    0  0.00000000000E+00  0.00000000000E+00  0.38778257926E+04  0.38778257926E+04  0.00000000000E+00 0. -1.
          1   -1    0    0  501    0 -0.00000000000E+00 -0.00000000000E+00 -0.60833706444E+02  0.60833706444E+02  0.00000000000E+00 0. -1.
         25    2    1    2    0    0  0.14930037899E+03  0.80081377333E+02  0.67555921710E+03  0.70760620586E+03  0.12499062603E+03 0.  0.
          2    1    1    2  501    0 -0.11849389328E+03 -0.31677702884E+01  0.35111392269E+02  0.12362704955E+03  0.00000000000E+00 0. -1.
          1    1    1    2  502    0 -0.30806485712E+02 -0.76913607045E+02  0.31063214767E+04  0.31074262436E+04  0.00000000000E+00 0. -1.
         22    1    3    3    0    0  0.95584316556E+02  0.34293500681E+02  0.57990591446E+03  0.58873022293E+03  0.00000000000E+00 0.  1.
         22    1    3    3    0    0  0.53716062434E+02  0.45787876652E+02  0.95653302640E+02  0.11887598293E+03  0.00000000000E+00 0.  1.
</event>
<event>
 7    1  0.8792454E-005  0.5590911E+03  0.7818608E-02  0.1062031E+00
          2   -1    0    0  502    0  0.00000000000E+00  0.00000000000E+00  0.71002784915E+03  0.71002784915E+03  0.00000000000E+00 0. -1.
          1   -1    0    0  501    0 -0.00000000000E+00 -0.00000000000E+00 -0.22738623237E+04  0.22738623237E+04  0.00000000000E+00 0. -1.
         25    2    1    2    0    0  0.15671384653E+03  0.57698808758E+03  0.30058864582E+03  0.68077399802E+03  0.12500087793E+03 0.  0.
          2    1    1    2  501    0 -0.21206354943E+03 -0.61836302006E+02 -0.17609720728E+04  0.17747724695E+04  0.00000000000E+00 0. -1.
          1    1    1    2  502    0  0.55349702896E+02 -0.51515178558E+03 -0.10345104763E+03  0.52834370541E+03  0.00000000000E+00 0. -1.
         22    1    3    3    0    0  0.90821669823E+02  0.36930968596E+03  0.12306725078E+03  0.39972961870E+03  0.00000000000E+00 0.  1.
         22    1    3    3    0    0  0.65892176706E+02  0.20767840162E+03  0.17752139504E+03  0.28104437932E+03  0.00000000000E+00 0.  1.
</event>
<event>
 7    1  0.8792454E-005  0.3804128E+03  0.7818608E-02  0.1185745E+00
          2   -1    0    0  502    0  0.00000000000E+00  0.00000000000E+00  0.13159246213E+04  0.13159246213E+04  0.00000000000E+00 0. -1.
          1   -1    0    0  501    0 -0.00000000000E+00 -0.00000000000E+00 -0.66750227960E+03  0.66750227960E+03  0.00000000000E+00 0. -1.
         25    2    1    2    0    0  0.37168398689E+03 -0.11495999721E+03  0.10424490833E+03  0.42172895788E+03  0.12499410360E+03 0.  0.
          2    1    1    2  501    0  0.52175133795E+01  0.69340473014E+02 -0.47190709415E+03  0.47700275591E+03  0.00000000000E+00 0. -1.
          1    1    1    2  502    0 -0.37690150027E+03  0.45619524191E+02  0.10160845276E+04  0.10846951872E+04  0.00000000000E+00 0. -1.
         22    1    3    3    0    0  0.24670213759E+02 -0.48530940608E+02  0.23546662785E+02  0.59315402482E+02  0.00000000000E+00 0. -1.
         22    1    3    3    0    0  0.34701377313E+03 -0.66429056597E+02  0.80698245548E+02  0.36241355540E+03  0.00000000000E+00 0. -1.
</event>
<event>
 7    1  0.8792454E-005  0.4707302E+03  0.7818608E-02  0.1086658E+00
          2   -1    0    0  502    0  0.00000000000E+00  0.00000000000E+00  0.58523354388E+03  0.58523354388E+03  0.00000000000E+00 0. -1.
          1   -1    0    0  501    0 -0.00000000000E+00 -0.00000000000E+00 -0.94519302547E+03  0.94519302547E+03  0.00000000000E+00 0. -1.
         25    2    1    2    0    0  0.34186270081E+03 -0.35546415048E+03 -0.62280180448E+03  0.80419653631E+03  0.12500045151E+03 0.  0.
          2    1    1    2  501    0 -0.15429941292E+03  0.35097850036E+03  0.35020838078E+03  0.51926883838E+03  0.00000000000E+00 0. -1.
          1    1    1    2  502    0 -0.18756328789E+03  0.44856501138E+01 -0.87366057894E+02  0.20696119465E+03  0.00000000000E+00 0. -1.
         22    1    3    3    0    0  0.77968636322E+02 -0.78711272790E+02 -0.23374207143E+03  0.25866953564E+03  0.00000000000E+00 0.  1.
         22    1    3    3    0    0  0.26389406448E+03 -0.27675287769E+03 -0.38905973305E+03  0.54552700067E+03  0.00000000000E+00 0.  1.
</event>
<event>
 7    1  0.8792454E-005  0.3566747E+03  0.7818608E-02  0.1199033E+00
          2   -1    0    0  502    0  0.00000000000E+00  0.00000000000E+00  0.37421375196E+04  0.37421375196E+04  0.00000000000E+00 0. -1.
          1   -1    0    0  501    0 -0.00000000000E+00 -0.00000000000E+00 -0.10212459801E+04  0.10212459801E+04  0.00000000000E+00 0. -1.
         25    2    1    2    0    0  0.12366854105E+03  0.34938171439E+03 -0.14548992002E+03  0.41731746766E+03  0.12500024636E+03 0.  0.
          2    1    1    2  501    0 -0.64046041995E+02  0.19999177377E+01 -0.72962883472E+03  0.73243711786E+03  0.00000000000E+00 0. -1.
          1    1    1    2  502    0 -0.59622499055E+02 -0.35138163213E+03  0.35960102942E+04  0.36136289142E+04  0.00000000000E+00 0. -1.
         22    1    3    3    0    0 -0.18634217159E+02  0.99233133390E+02 -0.18037980055E+02  0.10256616175E+03  0.00000000000E+00 0.  1.
         22    1    3    3    0    0  0.14230275821E+03  0.25014858100E+03 -0.12745193997E+03  0.31475130591E+03  0.00000000000E+00 0.  1.
</event>
<event>
 7    1  0.8792454E-005  0.5306976E+03  0.7818608E-02  0.1138055E+00
          2   -1    0    0  502    0  0.00000000000E+00  0.00000000000E+00  0.41372817433E+03  0.41372817433E+03  0.00000000000E+00 0. -1.
          1   -1    0    0  501    0 -0.00000000000E+00 -0.00000000000E+00 -0.20060173008E+04  0.20060173008E+04  0.00000000000E+00 0. -1.
         25    2    1    2    0    0 -0.35635541288E+03 -0.41296976227E+03 -0.13352481476E+03  0.57531469376E+03  0.12499966343E+03 0.  0.
          2    1    1    2  501    0  0.40447779932E+03  0.34085788985E+03 -0.15964101463E+04  0.16817585280E+04  0.00000000000E+00 0. -1.
          1    1    1    2  502    0 -0.48122386437E+02  0.72111872427E+02  0.13764583463E+03  0.16267225336E+03  0.00000000000E+00 0. -1.
         22    1    3    3    0    0 -0.19208458937E+03 -0.26319352058E+03 -0.21916925324E+02  0.32656954905E+03  0.00000000000E+00 0.  1.
         22    1    3    3    0    0 -0.16427082351E+03 -0.14977624169E+03 -0.11160788944E+03  0.24874514471E+03  0.00000000000E+00 0.  1.
</event>
<event>
 7    1  0.8792454E-005  0.4425936E+03  0.7818608E-02  0.1195501E+00
          2   -1    0    0  502    0  0.00000000000E+00  0.00000000000E+00  0.98525611407E+03  0.98525611407E+03  0.00000000000E+00 0. -1.
          1   -1    0    0  501    0 -0.00000000000E+00 -0.00000000000E+00 -0.21805032073E+04  0.21805032073E+04  0.00000000000E+00 0. -1.
         25    2    1    2    0    0  0.35671420808E+03 -0.21997844447E+03  0.30013855392E+03  0.53041845966E+03  0.12500019410E+03 0.  0.
          2    1    1    2  501    0 -0.35007752558E+03  0.27323327810E+03 -0.20401583000E+04  0.20879311740E+04  0.00000000000E+00 0. -1.
          1    1    1    2  502    0 -0.66366824943E+01 -0.53254833623E+02  0.54477265289E+03  0.54740968770E+03  0.00000000000E+00 0. -1.
         22    1    3    3    0    0  0.19989316946E+03 -0.16272212306E+03  0.24223923872E+03  0.35371686037E+03  0.00000000000E+00 0.  1.
         22    1    3    3    0    0  0.15682103861E+03 -0.57256321416E+02  0.57899315201E+02  0.17670159930E+03  0.00000000000E+00 0.  1.
</event>
<event>
 7    1  0.8792454E-005  0.2536884E+03  0.7818608E-02  0.1140828E+00
          2   -1    0    0  502    0  0.00000000000E+00  0.00000000000E+00  0.23372643121E+03  0.23372643121E+03  0.00000000000E+00 0. -1.
          1   -1    0    0  501    0 -0.00000000000E+00 -0.00000000000E+00 -0.33501429895E+04  0.33501429895E+04  0.00000000000E+00 0. -1.
         25    2    1    2    0    0 -0.22290920718E+03 -0.24686137479E+03 -0.10350204122E+04  0.10943133438E+04  0.12500155094E+03 0.  0.
          2    1    1    2  501    0  0.23339566461E+03  0.71788261723E+02 -0.22398922743E+04  0.22531632189E+04  0.00000000000E+00 0. -1.
          1    1    1    2  502    0 -0.10486457422E+02  0.17507311307E+03  0.15849612811E+03  0.23639285805E+03  0.00000000000E+00 0. -1.
         22    1    3    3    0    0 -0.91026396646E+02 -0.73588529008E+02 -0.55503935968E+03  0.56724753616E+03  0.00000000000E+00 0. -1.
         22    1    3    3    0    0 -0.13188281054E+03 -0.17327284578E+03 -0.47998105247E+03  0.52706580759E+03  0.00000000000E+00 0. -1.
</event>
<event>
 7    1  0.8792454E-005  0.3152170E+03  0.7818608E-02  0.1176139E+00
          2   -1    0    0  502    0  0.00000000000E+00  0.00000000000E+00  0.71950643267E+03  0.71950643267E+03  0.00000000000E+00 0. -1.
          1   -1    0    0  501    0 -0.00000000000E+00 -0.00000000000E+00 -0.33943846072E+03  0.33943846072E+03  0.00000000000E+00 0. -1.
         25    2    1    2    0    0  0.33886516051E+02 -0.29019531707E+03  0.17801942050E+03  0.36424902760E+03  0.12499928805E+03 0.  0.
          2    1    1    2  501    0 -0.83644750497E+02 -0.41716397645E+02 -0.16977374265E+03  0.19380357533E+03  0.00000000000E+00 0. -1.
          1    1    1    2  502    0  0.49758234446E+02  0.33191171472E+03  0.37182229410E+03  0.50089229047E+03  0.00000000000E+00 0. -1.
         22    1    3    3    0    0 -0.89041486270E+01 -0.19394290383E+03  0.17093870265E+03  0.25867580845E+03  0.00000000000E+00 0.  1.
         22    1    3    3    0    0  0.42790664678E+02 -0.96252413237E+02  0.70807178465E+01  0.10557321915E+03  0.00000000000E+00 0.  1.
</event>
<event>
 7    1  0.8792454E-005  0.1276268E+03  0.7818608E-02  0.1233210E+00
          2   -1    0    0  502    0  0.00000000000E+00  0.00000000000E+00  0.12842053987E+04  0.12842053987E+04  0.00000000000E+00 0. -1.
          1   -1    0    0  501    0 -0.00000000000E+00 -0.00000000000E+00 -0.27100175295E+03  0.27100175295E+03  0.00000000000E+00 0. -1.
         25    2    1    2    0    0 -0.15579178767E+03 -0.10238331100E+03  0.11014951810E+04  0.11241319788E+04  0.12501059347E+03 0.  0.
          2    1    1    2  501    0  0.32749422760E+02  0.12315570733E+03 -0.21709843430E+03  0.25173713099E+03  0.00000000000E+00 0. -1.
          1    1    1    2  502    0  0.12304236491E+03 -0.20772396336E+02  0.12880689896E+03  0.17933804179E+03  0.00000000000E+00 0. -1.
         22    1    3    3    0    0 -0.66060989018E+02 -0.11433177032E+03  0.72329673040E+03  0.73525095592E+03  0.00000000000E+00 0.  1.
         22    1    3    3    0    0 -0.89730798657E+02  0.11948459320E+02  0.37819845065E+03  0.38888102291E+03  0.00000000000E+00 0.  1.
</event>
<event>
 7    1  0.8792454E-005  0.4181041E+03  0.7818608E-02  0.1131091E+00
          2   -1    0    0  502    0  0.00000000000E+00  0.00000000000E+00  0.15982055715E+04  0.15982055715E+04  0.00000000000E+00 0. -1.
          1   -1    0    0  501    0 -0.00000000000E+00 -0.00000000000E+00 -0.20285318804E+03  0.20285318804E+03  0.00000000000E+00 0. -1.
         25    2    1    2    0    0 -0.45463965832E+03 -0.11378854006E+02  0.21832663254E+03  0.51973163478E+03  0.12501102543E+03 0.  0.
          2    1    1    2  501    0  0.35005848202E+03 -0.47016923473E+02  0.63888925378E+03  0.73002123977E+03  0.00000000000E+00 0. -1.
          1    1    1    2  502    0  0.10458117630E+03  0.58395777479E+02  0.53813649717E+03  0.55130588501E+03  0.00000000000E+00 0. -1.
         22    1    3    3    0    0 -0.20405247553E+00 -0.16650176276E+02  0.33515026828E+01  0.16985363631E+02  0.00000000000E+00 0.  1.
         22    1    3    3    0    0 -0.45443560585E+03  0.52713222702E+01  0.21497512986E+03  0.50274627115E+03  0.00000000000E+00 0.  1.
</event>
<event>
 7    1  0.8792454E-005  0.3116749E+03  0.7818608E-02  0.1132442E+00
          2   -1    0    0  502    0  0.00000000000E+00  0.00000000000E+00  0.10084928762E+04  0.10084928762E+04  0.00000000000E+00 0. -1.
          1   -1    0    0  501    0 -0.00000000000E+00 -0.00000000000E+00 -0.44297745828E+03  0.44297745828E+03  0.00000000000E+00 0. -1.
         25    2    1    2    0    0 -0.35163173493E+03 -0.40815671387E+02 -0.18003022855E+03  0.41634884763E+03  0.12499873475E+03 0.  0.
          2    1    1    2  501    0  0.26268974938E+03 -0.89828695152E+02  0.47609691660E+01  0.27766484424E+03  0.00000000000E+00 0. -1.
          1    1    1    2  502    0  0.88941985551E+02  0.13064436654E+03  0.74078467728E+03  0.75745664258E+03  0.00000000000E+00 0. -1.
         22    1    3    3    0    0 -0.34968644162E+02  0.27259121305E+02  0.27750619711E+01  0.44424843700E+02  0.00000000000E+00 0. -1.
         22    1    3    3    0    0 -0.31666309077E+03 -0.68074792693E+02 -0.18280529053E+03  0.37192400393E+03  0.00000000000E+00 0. -1.
</event>
<event>
 7    1  0.8792454E-005  0.7314684E+02  0.7818608E-02  0.1365580E+00
          2   -1    0    0  502    0  0.00000000000E+00  0.00000000000E+00  0.16148901593E+04  0.16148901593E+04  0.00000000000E+00 0. -1.
          1   -1    0    0  501    0 -0.00000000000E+00 -0.00000000000E+00 -0.23339830391E+03  0.23339830391E+03  0.00000000000E+00 0. -1.
         25    2    1    2    0    0 -0.52497657640E+01  0.22511326580E+02  0.58125717229E+03  0.59499714425E+03  0.12500952547E+03 0.  0.
          2    1    1    2  501    0  0.92587298023E+00  0.63975661893E+02 -0.22013958296E+03  0.22924916258E+03  0.00000000000E+00 0. -1.
          1    1    1    2  502    0  0.43238927838E+01 -0.86486988473E+02  0.10203742661E+04  0.10240421564E+04  0.00000000000E+00 0. -1.
         22    1    3    3    0    0 -0.39569971880E+02  0.45127179532E+02  0.50332227992E+03  0.50688811633E+03  0.00000000000E+00 0.  1.
         22    1    3    3    0    0  0.34320206116E+02 -0.22615852952E+02  0.77934892368E+02  0.88109027920E+02  0.00000000000E+00 0.  1.
</event>
<event>
 7    1  0.8792454E-005  0.1525403E+03  0.7818608E-02  0.1209921E+00
          2   -1    0    0  502    0  0.00000000000E+00  0.00000000000E+00  0.48253175301E+03  0.48253175301E+03  0.00000000000E+00 0. -1.
          1   -1    0    0  501    0 -0.00000000000E+00 -0.00000000000E+00 -0.19818139825E+03  0.19818139825E+03  0.00000000000E+00 0. -1.
         25    2    1    2    0    0  0.98177654045E+02 -0.18915222528E+03  0.31199784869E+03  0.39797890161E+03  0.12500852954E+03 0.  0.
          2    1    1    2  501    0  0.27701502579E+02  0.14548409535E+03 -0.17019290013E+02  0.14907263826E+03  0.00000000000E+00 0. -1.
          1    1    1    2  502    0 -0.12587915662E+03  0.43668129925E+02 -0.10628203916E+02  0.13366161140E+03  0.00000000000E+00 0. -1.
         22    1    3    3    0    0  0.12346945725E+03 -0.18297542759E+03  0.28481811522E+03  0.36034160561E+03  0.00000000000E+00 0.  1.
         22    1    3    3    0    0 -0.25291803200E+02 -0.61767976850E+01  0.27179733467E+02  0.37637295999E+02  0.00000000000E+00 0.  1.
</event>
<event>
 7    1  0.8792454E-005  0.1800377E+03  0.7818608E-02  0.1237298E+00
          2   -1    0    0  502    0  0.00000000000E+00  0.00000000000E+00  0.12837457153E+04  0.12837457153E+04  0.00000000000E+00 0. -1.
          1   -1    0    0  501    0 -0.00000000000E+00 -0.00000000000E+00 -0.83679165727E+03  0.83679165727E+03  0.00000000000E+00 0. -1.
         25    2    1    2    0    0  0.40644417010E+02 -0.24672747925E+03  0.12139742374E+04  0.12457459506E+04  0.12499242662E+03 0.  0.
          2    1    1    2  501    0 -0.67592285401E+02  0.16628840533E+03 -0.76926389544E+03  0.78992878895E+03  0.00000000000E+00 0. -1.
          1    1    1    2  502    0  0.26947868391E+02  0.80439073921E+02  0.22437160909E+01  0.84862633037E+02  0.00000000000E+00 0. -1.
         22    1    3    3    0    0 -0.11039780677E+02 -0.21399596601E+03  0.10234233548E+04  0.10456153755E+04  0.00000000000E+00 0.  1.
         22    1    3    3    0    0  0.51684197686E+02 -0.32731513238E+02  0.19055088252E+03  0.20013057508E+03  0.00000000000E+00 0.  1.
</event>
<event>
 7    1  0.8792454E-005  0.7188166E+03  0.7818608E-02  0.1237202E+00
          2   -1    0    0  502    0  0.00000000000E+00  0.00000000000E+00  0.86116060272E+03  0.86116060272E+03  0.00000000000E+00 0. -1.
          1   -1    0    0  501    0 -0.00000000000E+00 -0.00000000000E+00 -0.96912612654E+03  0.96912612654E+03  0.00000000000E+00 0. -1.
         25    2    1    2    0    0  0.62399464920E+03 -0.38975461249E+03 -0.56872711232E+03  0.93826785521E+03  0.12497223548E+03 0.  0.
          2    1    1    2  501    0 -0.19073717457E+02  0.94096187797E+01 -0.21267176870E+02  0.30077241151E+02  0.00000000000E+00 0. -1.
          1    1    1    2  502    0 -0.60492093174E+03  0.38034499371E+03  0.48202876537E+03  0.86194163291E+03  0.00000000000E+00 0. -1.
         22    1    3    3    0    0  0.51633195409E+03 -0.26189489356E+03 -0.43340607888E+03  0.72320705977E+03  0.00000000000E+00 0. -1.
         22    1    3    3    0    0  0.10766269510E+03 -0.12785971894E+03 -0.13532103344E+03  0.21506079544E+03  0.00000000000E+00 0. -1.
</event>
<event>
 7    1  0.8792454E-005  0.5970177E+03  0.7818608E-02  0.9995403E-01
          2   -1    0    0  502    0  0.00000000000E+00  0.00000000000E+00  0.94853518963E+03  0.94853518963E+03  0.00000000000E+00 0. -1.
          1   -1    0    0  501    0 -0.00000000000E+00 -0.00000000000E+00 -0.21945521617E+04  0.21945521617E+04  0.00000000000E+00 0. -1.
         25    2    1    2    0    0  0.20102827680E+03 -0.26186418972E+03 -0.34623868610E+03  0.49446172936E+03  0.12500380844E+03 0.  0.
          2    1    1    2  501    0  0.50841128523E+03  0.12055786494E+03 -0.15747990839E+04  0.16592192105E+04  0.00000000000E+00 0. -1.
          1    1    1    2  502    0 -0.70943956203E+03  0.14130632477E+03  0.67502079789E+03  0.98940641153E+03  0.00000000000E+00 0. -1.
         22    1    3    3    0    0  0.16752635797E+03 -0.15600860029E+03 -0.29158254238E+03  0.37070762469E+03  0.00000000000E+00 0.  1.
         22    1    3    3    0    0  0.33501918831E+02 -0.10585558942E+03 -0.54656143713E+02  0.12375410467E+03  0.00000000000E+00 0.  1.
</event>
<event>
 7    1  0.8792454E-005  0.7601653E+02  0.7818608E-02  0.1364130E+00
          2   -1    0    0  502    0  0.00000000000E+00  0.00000000000E+00  0.92514897441E+03  0.92514897441E+03  0.00000000000E+00 0. -1.
          1   -1    0    0  501    0 -0.00000000000E+00 -0.00000000000E+00 -0.12308022091E+03  0.12308022091E+03  0.00000000000E+00 0. -1.
         25    2    1    2    0    0  0.11151394591E+03 -0.89134428160E+01  0.33750023080E+03  0.37689077934E+03  0.12500177665E+03 0.  0.
          2    1    1    2  501    0 -0.46056301316E+02  0.41978086193E+02 -0.91362492320E+02  0.11059135416E+03  0.00000000000E+00 0. -1.
          1    1    1    2  502    0 -0.65457644592E+02 -0.33064643377E+02  0.55593101503E+03  0.56074706183E+03  0.00000000000E+00 0. -1.
         22    1    3    3    0    0  0.28945522592E+02  0.48530365861E+02  0.19100518470E+03  0.19918840396E+03  0.00000000000E+00 0.  1.
         22    1    3    3    0    0  0.82568423315E+02 -0.57443808677E+02  0.14649504609E+03  0.17770237537E+03  0.00000000000E+00 0.  1.
</event>
<event>
 7    1  0.8792454E-005  0.1499181E+03  0.7818608E-02  0.1238195E+00
          2   -1    0    0  502    0  0.00000000000E+00  0.00000000000E+00  0.36292150319E+03  0.36292150319E+03  0.00000000000E+00 0. -1.
          1   -1    0    0  501    0 -0.00000000000E+00 -0.00000000000E+00 -0.16277100130E+04  0.16277100130E+04  0.00000000000E+00 0. -1.
         25    2    1    2    0    0 -0.10251811872E+03 -0.89352125444E+02 -0.24912445359E+03  0.31013177231E+03  0.12499982332E+03 0.  0.
          2    1    1    2  501    0  0.79891960833E+02 -0.61710098439E+02 -0.13285182840E+04  0.13323481874E+04  0.00000000000E+00 0. -1.
          1    1    1    2  502    0  0.22626157890E+02  0.15106222388E+03  0.31285422771E+03  0.34815155651E+03  0.00000000000E+00 0. -1.
         22    1    3    3    0    0  0.75085528401E+01 -0.12835391321E+02 -0.12992759948E+03  0.13077578806E+03  0.00000000000E+00 0. -1.
         22    1    3    3    0    0 -0.11002667156E+03 -0.76516734122E+02 -0.11919685411E+03  0.17935598425E+03  0.00000000000E+00 0. -1.
</event>
<event>
 7    1  0.8792454E-005  0.1315914E+03  0.7818608E-02  0.1237930E+00
          2   -1    0    0  502    0  0.00000000000E+00  0.00000000000E+00  0.19621776917E+03  0.19621776917E+03  0.00000000000E+00 0. -1.
          1   -1    0    0  501    0 -0.00000000000E+00 -0.00000000000E+00 -0.61188980412E+03  0.61188980412E+03  0.00000000000E+00 0. -1.
         25    2    1    2    0    0  0.67754279350E+02 -0.15525509322E+03 -0.37770360084E+02  0.21388464993E+03  0.12500102813E+03 0.  0.
          2    1    1    2  501    0  0.51216980085E+02  0.10332239159E+03 -0.43673303442E+03  0.45170171464E+03  0.00000000000E+00 0. -1.
          1    1    1    2  502    0 -0.11897125943E+03  0.51932701625E+02  0.58831359553E+02  0.14252120872E+03  0.00000000000E+00 0. -1.
         22    1    3    3    0    0  0.65877668097E+01  0.21839200507E+01  0.30815267787E+02  0.31587163645E+02  0.00000000000E+00 0.  1.
         22    1    3    3    0    0  0.61166512540E+02 -0.15743901327E+03 -0.68585627872E+02  0.18229748628E+03  0.00000000000E+00 0.  1.
</event>
<event>
 7    1  0.8792454E-005  0.1991307E+03  0.7818608E-02  0.1230574E+00
          2   -1    0    0  502    0  0.00000000000E+00  0.00000000000E+00  0.28568483322E+04  0.28568483322E+04  0.00000000000E+00 0. -1.
          1   -1    0    0  501    0 -0.00000000000E+00 -0.00000000000E+00 -0.15488418176E+03  0.15488418176E+03  0.00000000000E+00 0. -1.
         25    2    1    2    0    0  0.10869344320E+03  0.20546048731E+03  0.75686611236E+03  0.80156071052E+03  0.12499993670E+03 0.  0.
          2    1    1    2  501    0 -0.81163733636E+02 -0.12857690533E+02 -0.11475880505E+03  0.14114692770E+03  0.00000000000E+00 0. -1.
          1    1    1    2  502    0 -0.27529709565E+02 -0.19260279677E+03  0.20598568431E+04  0.20690248757E+04  0.00000000000E+00 0. -1.
         22    1    3    3    0    0  0.11371779429E+03  0.21409201641E+03  0.64172004820E+03  0.68598232374E+03  0.00000000000E+00 0.  1.
         22    1    3    3    0    0 -0.50243510855E+01 -0.86315291057E+01  0.11514606416E+03  0.11557838678E+03  0.00000000000E+00 0.  1.
</event>
<event>
 7    1  0.8792454E-005  0.2154343E+03  0.7818608E-02  0.1160444E+00
          2   -1    0    0  502    0  0.00000000000E+00  0.00000000000E+00  0.14625864802E+03  0.14625864802E+03  0.00000000000E+00 0. -1.
          1   -1    0    0  501    0 -0.00000000000E+00 -0.00000000000E+00 -0.26526775051E+04  0.26526775051E+04  0.00000000000E+00 0. -1.
         25    2    1    2    0    0  0.49461612191E+02  0.24518673269E+03 -0.10163492984E+04  0.10541125340E+04  0.12499741172E+03 0.  0.
          2    1    1    2  501    0 -0.15426189301E+03 -0.54907872103E+02 -0.15171061277E+04  0.15259169731E+04  0.00000000000E+00 0. -1.
          1    1    1    2  502    0  0.10480028082E+03 -0.19027886059E+03  0.27036568986E+02  0.21890664610E+03  0.00000000000E+00 0. -1.
         22    1    3    3    0    0  0.11826301018E+02  0.80576661469E+02 -0.58914607426E+03  0.59474831364E+03  0.00000000000E+00 0.  1.
         22    1    3    3    0    0  0.37635311173E+02  0.16461007122E+03 -0.42720322418E+03  0.45936422036E+03  0.00000000000E+00 0.  1.
</event>
<event>
 7    1  0.8792454E-005  0.2150906E+03  0.7818608E-02  0.1188110E+00
          2   -1    0    0  502    0  0.00000000000E+00  0.00000000000E+00  0.79593207570E+03  0.79593207570E+03  0.00000000000E+00 0. -1.
          1   -1    0    0  501    0 -0.00000000000E+00 -0.00000000000E+00 -0.55255311448E+03  0.55255311448E+03  0.00000000000E+00 0. -1.
         25    2    1    2    0    0  0.24768793231E+03 -0.10090358925E+03  0.35603283609E+03  0.46251022156E+03  0.12500191413E+03 0.  0.
          2    1    1    2  501    0 -0.50899447734E+02  0.10844457242E+03 -0.46616487328E+03  0.48131140455E+03  0.00000000000E+00 0. -1.
          1    1    1    2  502    0 -0.19678848458E+03 -0.75409831771E+01  0.35351099841E+03  0.40466356407E+03  0.00000000000E+00 0. -1.
         22    1    3    3    0    0  0.24556307709E+03 -0.71428603909E+02  0.27159762513E+03  0.37305299927E+03  0.00000000000E+00 0. -1.
         22    1    3    3    0    0  0.21248552231E+01 -0.29474985338E+02  0.84435210958E+02  0.89457222290E+02  0.00000000000E+00 0. -1.
</event>
<event>
 7    1  0.8792454E-005  0.4549519E+03  0.7818608E-02  0.1064873E+00
          2   -1    0    0  502    0  0.00000000000E+00  0.00000000000E+00  0.14905250740E+04  0.14905250740E+04  0.00000000000E+00 0. -1.
          1   -1    0    0  501    0 -0.00000000000E+00 -0.00000000000E+00 -0.74352257479E+03  0.74352257479E+03  0.00000000000E+00 0. -1.
         25    2    1    2    0    0 -0.12175155638E+03  0.19033491987E+03  0.11653652786E+04  0.11936300052E+04  0.12500213456E+03 0.  0.
          2    1    1    2  501    0  0.14069457685E+03 -0.45059149204E+03 -0.56884058050E+03  0.73919365709E+03  0.00000000000E+00 0. -1.
          1    1    1    2  502    0 -0.18943020465E+02  0.26025657217E+03  0.15047780110E+03  0.30122398643E+03  0.00000000000E+00 0. -1.
         22    1    3    3    0    0 -0.13159383249E+03  0.95779280885E+02  0.70348831532E+03  0.72207092255E+03  0.00000000000E+00 0. -1.
         22    1    3    3    0    0  0.98422761112E+01  0.94555638985E+02  0.46187696326E+03  0.47155908268E+03  0.00000000000E+00 0. -1.
</event>
<event>
 7    1  0.8792454E-005  0.6373206E+02  0.7818608E-02  0.1408010E+00
          2   -1    0    0  502    0  0.00000000000E+00  0.00000000000E+00  0.68279734302E+03  0.68279734302E+03  0.00000000000E+00 0. -1.
          1   -1    0    0  501    0 -0.00000000000E+00 -0.00000000000E+00 -0.67167640814E+02  0.67167640814E+02  0.00000000000E+00 0. -1.
         25    2    1    2    0    0 -0.74898421311E+02  0.17487444598E+01  0.32213273215E+03  0.35356350519E+03  0.12499929385E+03 0.  0.
          2    1    1    2  501    0  0.45808238420E+02 -0.45008070630E+02 -0.28465935736E+02  0.70245502534E+02  0.00000000000E+00 0. -1.
          1    1    1    2  502    0  0.29090182891E+02  0.43259326170E+02  0.32196290580E+03  0.32615597611E+03  0.00000000000E+00 0. -1.
         22    1    3    3    0    0  0.32300924815E+02  0.90158840631E+00  0.38010023809E+02  0.49889122216E+02  0.00000000000E+00 0. -1.
         22    1    3    3    0    0 -0.10719934613E+03  0.84715605347E+00  0.28412270834E+03  0.30367438298E+03  0.00000000000E+00 0. -1.
</event>
<event>
 7    1  0.8792454E-005  0.2660319E+03  0.7818608E-02  0.1171441E+00
          2   -1    0    0  502    0  0.00000000000E+00  0.00000000000E+00  0.55676800507E+03  0.55676800507E+03  0.00000000000E+00 0. -1.
          1   -1    0    0  501    0 -0.00000000000E+00 -0.00000000000E+00 -0.53198489288E+03  0.53198489288E+03  0.00000000000E+00 0. -1.
         25    2    1    2    0    0 -0.15425405474E+03  0.21461627681E+03  0.40139921284E+03  0.49658819390E+03  0.12499618626E+03 0.  0.
          2    1    1    2  501    0  0.23477843520E+03 -0.12997814362E+03 -0.39123900144E+03  0.47442932846E+03  0.00000000000E+00 0. -1.
          1    1    1    2  502    0 -0.80524380458E+02 -0.84638133190E+02  0.14622900798E+02  0.11773537559E+03  0.00000000000E+00 0. -1.
         22    1    3    3    0    0 -0.45493963892E+02  0.88794576343E+02  0.58937314036E+02  0.11587831775E+03  0.00000000000E+00 0.  1.
         22    1    3    3    0    0 -0.10876009085E+03  0.12582170047E+03  0.34246189880E+03  0.38070987615E+03  0.00000000000E+00 0.  1.
</event>
<event>
 7    1  0.8792454E-005  0.4100506E+03  0.7818608E-02  0.1115090E+00
          2   -1    0    0  502    0  0.00000000000E+00  0.00000000000E+00  0.34182231859E+04  0.34182231859E+04  0.00000000000E+00 0. -1.
          1   -1    0    0  501    0 -0.00000000000E+00 -0.00000000000E+00 -0.30874965279E+03  0.30874965279E+03  0.00000000000E+00 0. -1.
         25    2    1    2    0    0 -0.21399856113E+03 -0.34934046661E+03  0.15638308031E+04  0.16214273375E+04  0.12500273785E+03 0.  0.
          2    1    1    2  501    0  0.13376781605E+03 -0.65672312544E+02 -0.23343339337E+03  0.27694373145E+03  0.00000000000E+00 0. -1.
          1    1    1    2  502    0  0.80230745079E+02  0.41501277916E+03  0.17790761234E+04  0.18286017697E+04  0.00000000000E+00 0. -1.
         22    1    3    3    0    0 -0.66155688577E+02 -0.22682715454E+03  0.87326105649E+03  0.90466126586E+03  0.00000000000E+00 0.  1.
         22    1    3    3    0    0 -0.14784287255E+03 -0.12251331208E+03  0.69056974657E+03  0.71676607166E+03  0.00000000000E+00 0.  1.
</event>
<event>
 7    1  0.8792454E-005  0.2625713E+03  0.7818608E-02  0.1188904E+00
          2   -1    0    0  502    0  0.00000000000E+00  0.00000000000E+00  0.18562465583E+03  0.18562465583E+03  0.00000000000E+00 0. -1.
          1   -1    0    0  501    0 -0.00000000000E+00 -0.00000000000E+00 -0.86234439934E+03  0.86234439934E+03  0.00000000000E+00 0. -1.
         25    2    1    2    0    0  0.24984224966E+03 -0.13213831130E+03 -0.26978626358E+03  0.41023274594E+03  0.12499837918E+03 0.  0.
          2    1    1    2  501    0  0.65104772794E+01  0.97055915270E+02 -0.36235197300E+03  0.37518154184E+03  0.00000000000E+00 0. -1.
          1    1    1    2  502    0 -0.25635272694E+03  0.35082396033E+02 -0.44581506923E+02  0.26255476739E+03  0.00000000000E+00 0. -1.
         22    1    3    3    0    0  0.24068804613E+03 -0.76808741116E+02 -0.21348833017E+03  0.33076817468E+03  0.00000000000E+00 0. -1.
         22    1    3    3    0    0  0.91542035237E+01 -0.55329570187E+02 -0.56297933412E+02  0.79464571261E+02  0.00000000000E+00 0. -1.
</event>
<event>
 7    1  0.8792454E-005  0.3493108E+03  0.7818608E-02  0.1066139E+00
          2   -1    0    0  502    0  0.00000000000E+00  0.00000000000E+00  0.14328660600E+04  0.14328660600E+04  0.00000000000E+00 0. -1.
          1   -1    0    0  501    0 -0.00000000000E+00 -0.00000000000E+00 -0.19800581512E+04  0.19800581512E+04  0.00000000000E+00 0. -1.
         25    2    1    2    0    0 -0.30316717416E+03 -0.39075253609E+03 -0.56073686824E+03  0.75805627870E+03  0.12500242532E+03 0.  0.
          2    1    1    2  501    0  0.33402291664E+03  0.58224722963E+02 -0.12772937331E+04  0.13215296848E+04  0.00000000000E+00 0. -1.
          1    1    1    2  502    0 -0.30855742478E+02  0.33252781313E+03  0.12908385102E+04  0.13333382477E+04  0.00000000000E+00 0. -1.
         22    1    3    3    0    0 -0.60911321478E+02 -0.15315193667E+02 -0.80585562190E+02  0.10217033363E+03  0.00000000000E+00 0.  1.
         22    1    3    3    0    0 -0.24225585268E+03 -0.37543734242E+03 -0.48015130605E+03  0.65588594507E+03  0.00000000000E+00 0.  1.
</event>
<event>
 7    1  0.8792454E-005  0.7392422E+03  0.7818608E-02  0.1060275E+00
          2   -1    0    0  502    0  0.00000000000E+00  0.00000000000E+00  0.31560007602E+04  0.31560007602E+04  0.00000000000E+00 0. -1.
          1   -1    0    0  501    0 -0.00000000000E+00 -0.00000000000E+00 -0.23602668122E+04  0.23602668122E+04  0.00000000000E+00 0. -1.
         25    2    1    2    0    0  0.57828637770E+03 -0.37191301826E+03  0.22354300706E+03  0.73371215252E+03  0.12501047541E+03 0.  0.
          2    1    1    2  501    0 -0.49403157351E+02 -0.16392884871E+03 -0.20486114396E+04  0.20557534312E+04  0.00000000000E+00 0. -1.
          1    1    1    2  502    0 -0.52888322034E+03  0.53584186697E+03  0.26208023806E+04  0.27268019887E+04  0.00000000000E+00 0. -1.
         22    1    3    3    0    0 -0.14453024634E+01 -0.12204268507E+02 -0.62566980551E+01  0.13790552547E+02  0.00000000000E+00 0.  1.
         22    1    3    3    0    0  0.57973168016E+03 -0.35970874975E+03  0.22979970512E+03  0.71992159997E+03  0.00000000000E+00 0.  1.
</event>
<event>
 7    1  0.8792454E-005  0.5394079E+02  0.7818608E-02  0.1441885E+00
          2   -1    0    0  502    0  0.00000000000E+00  0.00000000000E+00  0.15472212422E+04  0.15472212422E+04  0.00000000000E+00 0. -1.
          1   -1    0    0  501    0 -0.00000000000E+00 -0.00000000000E+00 -0.30260020530E+03  0.30260020530E+03  0.00000000000E+00 0. -1.
         25    2    1    2    0    0 -0.29297515719E+01  0.58275891005E+01 -0.22212461642E+03  0.25495822766E+03  0.12498723292E+03 0.  0.
          2    1    1    2  501    0 -0.16208678823E+02  0.44705889172E+02 -0.54687315027E+02  0.72470961224E+02  0.00000000000E+00 0. -1.
          1    1    1    2  502    0  0.19138430395E+02 -0.50533478272E+02  0.15214329683E+04  0.15223922586E+04  0.00000000000E+00 0. -1.
         22    1    3    3    0    0  0.47805681668E+02  0.26381503543E+02 -0.48927187086E+02  0.73316004836E+02  0.00000000000E+00 0.  1.
         22    1    3    3    0    0 -0.50735433240E+02 -0.20553914443E+02 -0.17319742933E+03  0.18164222283E+03  0.00000000000E+00 0.  1.
</event>
<event>
 7    1  0.8792454E-005  0.6637887E+03  0.7818608E-02  0.1123442E+00
          2   -1    0    0  502    0  0.00000000000E+00  0.00000000000E+00  0.12486623162E+04  0.12486623162E+04  0.00000000000E+00 0. -1.
          1   -1    0    0  501    0 -0.00000000000E+00 -0.00000000000E+00 -0.24017868853E+04  0.24017868853E+04  0.00000000000E+00 0. -1.
         25    2    1    2    0    0 -0.44291794774E+03 -0.49867260184E+03 -0.38575630687E+02  0.67967503605E+03  0.12497761035E+03 0.  0.
          2    1    1    2  501    0  0.67073984017E+02 -0.48743598712E+02 -0.19228849367E+04  0.19246717480E+04  0.00000000000E+00 0. -1.
          1    1    1    2  502    0  0.37584396372E+03  0.54741620055E+03  0.80833599831E+03  0.10461024175E+04  0.00000000000E+00 0. -1.
         22    1    3    3    0    0 -0.30289711011E+03 -0.25928336402E+03  0.61281380358E+01  0.39876318316E+03  0.00000000000E+00 0.  1.
         22    1    3    3    0    0 -0.14002083763E+03 -0.23938923782E+03 -0.44703768723E+02  0.28091185288E+03  0.00000000000E+00 0.  1.
</event>
<event>
 7    1  0.8792454E-005  0.2248407E+03  0.7818608E-02  0.1353015E+00
          2   -1    0    0  502    0  0.00000000000E+00  0.00000000000E+00  0.32756054607E+04  0.32756054607E+04  0.00000000000E+00 0. -1.
          1   -1    0    0  501    0 -0.00000000000E+00 -0.00000000000E+00 -0.24965316844E+02  0.24965316844E+02  0.00000000000E+00 0. -1.
         25    2    1    2    0    0 -0.19335196401E+03 -0.12005271826E+03  0.15246471374E+04  0.15465991648E+04  0.12498978369E+03 0.  0.
          2    1    1    2  501    0  0.20093912330E+03  0.98196281151E+02  0.89040039125E+03  0.91805876589E+03  0.00000000000E+00 0. -1.
          1    1    1    2  502    0 -0.75871592890E+01  0.21856437108E+02  0.83559261524E+03  0.83591284682E+03  0.00000000000E+00 0. -1.
         22    1    3    3    0    0 -0.41848112659E+02 -0.96390378732E+02  0.69520035198E+03  0.70309736099E+03  0.00000000000E+00 0.  1.
         22    1    3    3    0    0 -0.15150385135E+03 -0.23662339527E+02  0.82944678538E+03  0.84350180383E+03  0.00000000000E+00 0.  1.
</event>
<event>
 7    1  0.8792454E-005  0.2935816E+03  0.7818608E-02  0.1232549E+00
          2   -1    0    0  502    0  0.00000000000E+00  0.00000000000E+00  0.99220761326E+03  0.99220761326E+03  0.00000000000E+00 0. -1.
          1   -1    0    0  501    0 -0.00000000000E+00 -0.00000000000E+00 -0.74192506946E+03  0.74192506946E+03  0.00000000000E+00 0. -1.
         25    2    1    2    0    0  0.18418177173E+03  0.25483964597E+03 -0.10919822563E+03  0.35555038052E+03  0.12500260162E+03 0.  0.
          2    1    1    2  501    0 -0.54238841951E+02  0.64101667463E+01 -0.48347799473E+03  0.48655309433E+03  0.00000000000E+00 0. -1.
          1    1    1    2  502    0 -0.12994292978E+03 -0.26124981271E+03  0.84295876415E+03  0.89202920788E+03  0.00000000000E+00 0. -1.
         22    1    3    3    0    0  0.63759883152E+02  0.81092353974E+02 -0.10042874517E+03  0.14396952951E+03  0.00000000000E+00 0.  1.
         22    1    3    3    0    0  0.12042188857E+03  0.17374729199E+03 -0.87694804584E+01  0.21158085100E+03  0.00000000000E+00 0.  1.
</event>
<event>
 7    1  0.8792454E-005  0.4030902E+03  0.7818608E-02  0.1169732E+00
          2   -1    0    0  502    0  0.00000000000E+00  0.00000000000E+00  0.36780663897E+03  0.36780663897E+03  0.00000000000E+00 0. -1.
          1   -1    0    0  501    0 -0.00000000000E+00 -0.00000000000E+00 -0.16550674395E+04  0.16550674395E+04  0.00000000000E+00 0. -1.
         25    2    1    2    0    0  0.38296161651E+02 -0.44547438346E+03 -0.12761654176E+03  0.48148585647E+03  0.12501450289E+03 0.  0.
          2    1    1    2  501    0  0.25637578416E+02  0.74324326222E+02 -0.11621072761E+04  0.11647638009E+04  0.00000000000E+00 0. -1.
          1    1    1    2  502    0 -0.63933740067E+02  0.37115005724E+03  0.24630172542E+01  0.37662442109E+03  0.00000000000E+00 0. -1.
         22    1    3    3    0    0 -0.31780226797E+02 -0.50255598918E+02 -0.36895593774E+02  0.69977802750E+02  0.00000000000E+00 0. -1.
         22    1    3    3    0    0  0.70076388448E+02 -0.39521878454E+03 -0.90720947982E+02  0.41150805372E+03  0.00000000000E+00 0. -1.
</event>
<event>
 7    1  0.8792454E-005  0.1341367E+04  0.7818608E-02  0.1054267E+00
          2   -1    0    0  502    0  0.00000000000E+00  0.00000000000E+00  0.25215886689E+04  0.25215886689E+04  0.00000000000E+00 0. -1.
          1   -1    0    0  501    0 -0.00000000000E+00 -0.00000000000E+00 -0.20071008423E+04  0.20071008423E+04  0.00000000000E+00 0. -1.
         25    2    1    2    0    0 -0.13123962205E+04 -0.40005122001E+03  0.11575696039E+04  0.17994494271E+04  0.12500413929E+03 0.  0.
          2    1    1    2  501    0  0.45712118350E+02  0.91939074728E+02 -0.12759829545E+04  0.12801073749E+04  0.00000000000E+00 0. -1.
          1    1    1    2  502    0  0.12666841021E+04  0.30811214528E+03  0.63290117719E+03  0.14491327091E+04  0.00000000000E+00 0. -1.
         22    1    3    3    0    0 -0.11920918672E+04 -0.36433155996E+03  0.10003599705E+04  0.15982930194E+04  0.00000000000E+00 0. -1.
         22    1    3    3    0    0 -0.12030435330E+03 -0.35719660046E+02  0.15720963334E+03  0.20115640769E+03  0.00000000000E+00 0. -1.
</event>
<event>
 7    1  0.8792454E-005  0.2297162E+03  0.7818608E-02  0.1151368E+00
          2   -1    0    0  502    0  0.00000000000E+00  0.00000000000E+00  0.55660042663E+03  0.55660042663E+03  0.00000000000E+00 0. -1.
          1   -1    0    0  501    0 -0.00000000000E+00 -0.00000000000E+00 -0.43006823481E+03  0.43006823481E+03  0.00000000000E+00 0. -1.
         25    2    1    2    0    0  0.37716361102E+02  0.21993640913E+03 -0.55332918083E+02  0.26169007959E+03  0.12500167190E+03 0.  0.
          2    1    1    2  501    0  0.15457026184E+03 -0.72674589142E+02 -0.20606484746E+03  0.26764955279E+03  0.00000000000E+00 0. -1.
          1    1    1    2  502    0 -0.19228662294E+03 -0.14726181999E+03  0.38792995737E+03  0.45732902905E+03  0.00000000000E+00 0. -1.
         22    1    3    3    0    0  0.51074103706E+02  0.22062909322E+02 -0.25250657074E+02  0.61097722706E+02  0.00000000000E+00 0. -1.
         22    1    3    3    0    0 -0.13357742605E+02  0.19787349981E+03 -0.30082261009E+02  0.20059235689E+03  0.00000000000E+00 0. -1.
</event>
<event>
 7    1  0.8792454E-005  0.8256091E+03  0.7818608E-02  0.1070367E+00
          2   -1    0    0  502    0  0.00000000000E+00  0.00000000000E+00  0.10067640493E+04  0.10067640493E+04  0.00000000000E+00 0. -1.
          1   -1    0    0  501    0 -0.00000000000E+00 -0.00000000000E+00 -0.16670860160E+04  0.16670860160E+04  0.00000000000E+00 0. -1.
         25    2    1    2    0    0 -0.78688886427E+03  0.72618277019E+02 -0.22386403791E+03  0.83079378009E+03  0.12504278744E+03 0.  0.
          2    1    1    2  501    0 -0.34475652061E+02  0.12876693344E+03 -0.87867101026E+03  0.88872506322E+03  0.00000000000E+00 0. -1.
          1    1    1    2  502    0  0.82136451633E+03 -0.20138521046E+03  0.44221308148E+03  0.95433122191E+03  0.00000000000E+00 0. -1.
         22    1    3    3    0    0 -0.64676598999E+03  0.13196784076E+02 -0.16505193794E+03  0.66762455252E+03  0.00000000000E+00 0. -1.
         22    1    3    3    0    0 -0.14012287429E+03  0.59421492943E+02 -0.58812099965E+02  0.16316922757E+03  0.00000000000E+00 0. -1.
</event>
<event>
 7    1  0.8792454E-005  0.5550277E+02  0.7818608E-02  0.1530700E+00
          2   -1    0    0  502    0  0.00000000000E+00  0.00000000000E+00  0.66961147022E+03  0.66961147022E+03  0.00000000000E+00 0. -1.
          1   -1    0    0  501    0 -0.00000000000E+00 -0.00000000000E+00 -0.17700831170E+03  0.17700831170E+03  0.00000000000E+00 0. -1.
         25    2    1    2    0    0 -0.62019712028E+02 -0.50189596616E+02 -0.44398525757E+02  0.15479634207E+03  0.12500095256E+03 0.  0.
          2    1    1    2  501    0  0.17449827423E+02  0.17622087608E+02 -0.74148235524E+02  0.78185646254E+02  0.00000000000E+00 0. -1.
          1    1    1    2  502    0  0.44569884604E+02  0.32567509008E+02  0.61114991980E+03  0.61363779359E+03  0.00000000000E+00 0. -1.
         22    1    3    3    0    0  0.31848449497E+02 -0.10566052254E+02 -0.40824661659E+02  0.52845228689E+02  0.00000000000E+00 0. -1.
         22    1    3    3    0    0 -0.93868161524E+02 -0.39623544362E+02 -0.35738640975E+01  0.10195111338E+03  0.00000000000E+00 0. -1.
</event>
<event>
 7    1  0.8792454E-005  0.3878541E+03  0.7818608E-02  0.1059984E+00
          2   -1    0    0  502    0  0.00000000000E+00  0.00000000000E+00  0.40026036195E+03  0.40026036195E+03  0.00000000000E+00 0. -1.
          1   -1    0    0  501    0 -0.00000000000E+00 -0.00000000000E+00 -0.17038812757E+04  0.17038812757E+04  0.00000000000E+00 0. -1.
         25    2    1    2    0    0 -0.44318262987E+03  0.39069395989E+03 -0.87345502735E+03  0.10618860138E+04  0.12500243100E+03 0.  0.
          2    1    1    2  501    0  0.32511311152E+03 -0.40714787294E+02 -0.56161322302E+03  0.65020430748E+03  0.00000000000E+00 0. -1.
          1    1    1    2  502    0  0.11806951835E+03 -0.34997917260E+03  0.13144733659E+03  0.39205131643E+03  0.00000000000E+00 0. -1.
         22    1    3    3    0    0 -0.14169953299E+03  0.14269378654E+03 -0.20096878133E+03  0.28430393144E+03  0.00000000000E+00 0. -1.
         22    1    3    3    0    0 -0.30148309688E+03  0.24800017335E+03 -0.67248624602E+03  0.77758208234E+03  0.00000000000E+00 0. -1.
</event>
<event>
 7    1  0.1080735E-004  0.1223778E+03  0.7818608E-02  0.1251934E+00
          2   -1    0    0  502    0  0.00000000000E+00  0.00000000000E+00  0.10292657032E+04  0.10292657032E+04  0.00000000000E+00 0. -1.
          1   -1    0    0  501    0 -0.00000000000E+00 -0.00000000000E+00 -0.17042765777E+04  0.17042765777E+04  0.00000000000E+00 0. -1.
         25    2    1    2    0    0 -0.10169801750E+03 -0.64578521644E+02 -0.16443178831E+02  0.17436960576E+03  0.12498603546E+03 0.  0.
          2    1    1    2  501    0  0.89923966764E+02 -0.59247384988E+02 -0.16029857327E+04  0.16065988397E+04  0.00000000000E+00 0. -1.
          1    1    1    2  502    0  0.11774050738E+02  0.12382590663E+03  0.94441803702E+03  0.95257383549E+03  0.00000000000E+00 0. -1.
         22    1    3    3    0    0 -0.36095701409E+02 -0.33136265157E+02 -0.68996193394E+02  0.84624975224E+02  0.00000000000E+00 0.  1.
         22    1    3    3    0    0 -0.65602316093E+02 -0.31442256487E+02  0.52553014563E+02  0.89744630533E+02  0.00000000000E+00 0.  1.
</event>
<event>
 7    1  0.8792454E-005  0.9534417E+02  0.7818608E-02  0.1324614E+00
          2   -1    0    0  502    0  0.00000000000E+00  0.00000000000E+00  0.59316624521E+03  0.59316624521E+03  0.00000000000E+00 0. -1.
          1   -1    0    0  501    0 -0.00000000000E+00 -0.00000000000E+00 -0.78358297106E+03  0.78358297106E+03  0.00000000000E+00 0. -1.
         25    2    1    2    0    0 -0.29226664881E+02 -0.56315646713E+02 -0.21389498350E+03  0.25573697660E+03  0.12499874890E+03 0.  0.
          2    1    1    2  501    0  0.60598002857E+02 -0.34661421719E+02 -0.54246843959E+03  0.54694198966E+03  0.00000000000E+00 0. -1.
          1    1    1    2  502    0 -0.31371337975E+02  0.90977068433E+02  0.56594669724E+03  0.57407025001E+03  0.00000000000E+00 0. -1.
         22    1    3    3    0    0 -0.13302653503E+02 -0.94133752878E+02 -0.17522111251E+03  0.19935035062E+03  0.00000000000E+00 0. -1.
         22    1    3    3    0    0 -0.15924011378E+02  0.37818106165E+02 -0.38673870994E+02  0.56386625985E+02  0.00000000000E+00 0. -1.
</event>
<event>
 7    1  0.8792454E-005  0.1825546E+03  0.7818608E-02  0.1277082E+00
          2   -1    0    0  502    0  0.00000000000E+00  0.00000000000E+00  0.30099590440E+04  0.30099590440E+04  0.00000000000E+00 0. -1.
          1   -1    0    0  501    0 -0.00000000000E+00 -0.00000000000E+00 -0.32221771939E+03  0.32221771939E+03  0.00000000000E+00 0. -1.
         25    2    1    2    0    0  0.93738024740E+02 -0.20458872121E+03  0.71173023733E+03  0.75685393041E+03  0.12499831647E+03 0.  0.
          2    1    1    2  501    0 -0.45442750689E+02  0.17529936219E+03 -0.27190821705E+03  0.32669402883E+03  0.00000000000E+00 0. -1.
          1    1    1    2  502    0 -0.48295274051E+02  0.29289359015E+02  0.22479193044E+04  0.22486288042E+04  0.00000000000E+00 0. -1.
         22    1    3    3    0    0  0.17031297543E+01  0.12366503198E+02  0.10860575796E+03  0.10932082013E+03  0.00000000000E+00 0.  1.
         22    1    3    3    0    0  0.92034894985E+02 -0.21695522441E+03  0.60312447937E+03  0.64753311028E+03  0.00000000000E+00 0.  1.
</event>
<event>
 7    1  0.8792454E-005  0.5633970E+03  0.7818608E-02  0.1108512E+00
          2   -1    0    0  502    0  0.00000000000E+00  0.00000000000E+00  0.62834922993E+03  0.62834922993E+03  0.00000000000E+00 0. -1.
          1   -1    0    0  501    0 -0.00000000000E+00 -0.00000000000E+00 -0.76436399500E+03  0.76436399500E+03  0.00000000000E+00 0. -1.
         25    2    1    2    0    0 -0.28959767023E+03  0.48826318949E+03  0.17319050030E+03  0.60653767956E+03  0.12500101806E+03 0.  0.
          2    1    1    2  501    0 -0.92312356098E+02 -0.73346860700E+02 -0.16729768108E+03  0.20467009347E+03  0.00000000000E+00 0. -1.
          1    1    1    2  502    0  0.38191002633E+03 -0.41491632879E+03 -0.14190758428E+03  0.58150545190E+03  0.00000000000E+00 0. -1.
         22    1    3    3    0    0 -0.25035380039E+03  0.47928512296E+03  0.15619396411E+03  0.56283906127E+03  0.00000000000E+00 0. -1.
         22    1    3    3    0    0 -0.39243869836E+02  0.89780665326E+01  0.16996536190E+02  0.43698618294E+02  0.00000000000E+00 0. -1.
</event>
<event>
 7    1  0.8792454E-005  0.2942901E+03  0.7818608E-02  0.1196286E+00
          2   -1    0    0  502    0  0.00000000000E+00  0.00000000000E+00  0.32578948626E+04  0.32578948626E+04  0.00000000000E+00 0. -1.
          1   -1    0    0  501    0 -0.00000000000E+00 -0.00000000000E+00 -0.19805654569E+03  0.19805654569E+03  0.00000000000E+00 0. -1.
         25    2    1    2    0    0  0.20020403217E+03 -0.16780671741E+03  0.31880099713E+03  0.43069709544E+03  0.12500065338E+03 0.  0.
          2    1    1    2  501    0 -0.18959464123E+03  0.24712199211E+03  0.29865170137E+02  0.31290147868E+03  0.00000000000E+00 0. -1.
          1    1    1    2  502    0 -0.10609390936E+02 -0.79315274702E+02  0.27111721497E+04  0.27123528342E+04  0.00000000000E+00 0. -1.
         22    1    3    3    0    0  0.19086247190E+03 -0.14505684921E+03  0.20858255572E+03  0.31776824138E+03  0.00000000000E+00 0.  1.
         22    1    3    3    0    0  0.93415602677E+01 -0.22749868201E+02  0.11021844141E+03  0.11292885406E+03  0.00000000000E+00 0.  1.
</event>
<event>
 7    1  0.8792454E-005  0.2540147E+03  0.7818608E-02  0.1284597E+00
          2   -1    0    0  502    0  0.00000000000E+00  0.00000000000E+00  0.97713246289E+02  0.97713246289E+02  0.00000000000E+00 0. -1.
          1   -1    0    0  501    0 -0.00000000000E+00 -0.00000000000E+00 -0.14581932630E+04  0.14581932630E+04  0.00000000000E+00 0. -1.
         25    2    1    2    0    0 -0.50457668351E+02  0.24979917776E+03 -0.53885900009E+03  0.60904903222E+03  0.12500438459E+03 0.  0.
          2    1    1    2  501    0 -0.36299471088E+02 -0.10526872970E+02 -0.62265483797E+03  0.62380086078E+03  0.00000000000E+00 0. -1.
          1    1    1    2  502    0  0.86757139439E+02 -0.23927230479E+03 -0.19896617863E+03  0.32305661628E+03  0.00000000000E+00 0. -1.
         22    1    3    3    0    0 -0.22542285005E+02  0.19414600165E+03 -0.49692973856E+03  0.53398500881E+03  0.00000000000E+00 0.  1.
         22    1    3    3    0    0 -0.27915383346E+02  0.55653176105E+02 -0.41929261530E+02  0.75064023409E+02  0.00000000000E+00 0.  1.
</event>
<event>
 7    1  0.8792454E-005  0.4559551E+03  0.7818608E-02  0.1042807E+00
          2   -1    0    0  502    0  0.00000000000E+00  0.00000000000E+00  0.20551601563E+04  0.20551601563E+04  0.00000000000E+00 0. -1.
          1   -1    0    0  501    0 -0.00000000000E+00 -0.00000000000E+00 -0.14957252146E+04  0.14957252146E+04  0.00000000000E+00 0. -1.
         25    2    1    2    0    0  0.24812002811E+03 -0.62848048059E+03  0.64743089502E+03  0.94411022680E+03  0.12500437469E+03 0.  0.
          2    1    1    2  501    0  0.61769496491E+02  0.35047692654E+03 -0.12881812436E+04  0.13364357310E+04  0.00000000000E+00 0. -1.
          1    1    1    2  502    0 -0.30988952460E+03  0.27800355404E+03  0.12001852903E+04  0.12703394131E+04  0.00000000000E+00 0. -1.
         22    1    3    3    0    0  0.19447737687E+03 -0.49699955347E+03  0.57568643185E+03  0.78501265854E+03  0.00000000000E+00 0.  1.
         22    1    3    3    0    0  0.53642651243E+02 -0.13148092712E+03  0.71744463170E+02  0.15909756825E+03  0.00000000000E+00 0.  1.
</event>
<event>
 7    1  0.8792454E-005  0.6329123E+02  0.7818608E-02  0.1387313E+00
          2   -1    0    0  502    0  0.00000000000E+00  0.00000000000E+00  0.68243755747E+02  0.68243755747E+02  0.00000000000E+00 0. -1.
          1   -1    0    0  501    0 -0.00000000000E+00 -0.00000000000E+00 -0.12672544669E+04  0.12672544669E+04  0.00000000000E+00 0. -1.
         25    2    1    2    0    0  0.44497495450E+02 -0.98114688745E+02 -0.97691910144E+03  0.99075966831E+03  0.12500908106E+03 0.  0.
          2    1    1    2  501    0 -0.50576975256E+02  0.35646424593E+02 -0.26276254576E+03  0.26994972396E+03  0.00000000000E+00 0. -1.
          1    1    1    2  502    0  0.60794798055E+01  0.62468264152E+02  0.40670936086E+02  0.74788830335E+02  0.00000000000E+00 0. -1.
         22    1    3    3    0    0  0.38419422573E+01 -0.11647896050E+03 -0.60033963749E+03  0.61154704570E+03  0.00000000000E+00 0. -1.
         22    1    3    3    0    0  0.40655553193E+02  0.18364271753E+02 -0.37657946395E+03  0.37921262261E+03  0.00000000000E+00 0. -1.
</event>
<event>
 7    1  0.8792454E-005  0.9175658E+02  0.7818608E-02  0.1325138E+00
          2   -1    0    0  502    0  0.00000000000E+00  0.00000000000E+00  0.58422529766E+03  0.58422529766E+03  0.00000000000E+00 0. -1.
          1   -1    0    0  501    0 -0.00000000000E+00 -0.00000000000E+00 -0.20855361356E+03  0.20855361356E+03  0.00000000000E+00 0. -1.
         25    2    1    2    0    0  0.66563987398E+02 -0.27883323741E+02  0.51679189784E+03  0.53656937739E+03  0.12499834766E+03 0.  0.
          2    1    1    2  501    0  0.32247385656E+02  0.85903291060E+02 -0.29855563037E+02  0.96491574455E+02  0.00000000000E+00 0. -1.
          1    1    1    2  502    0 -0.98811373054E+02 -0.58019967319E+02 -0.11126465070E+03  0.15971795938E+03  0.00000000000E+00 0. -1.
         22    1    3    3    0    0  0.99784829419E+02 -0.97232703775E+01  0.29504772448E+03  0.31161629272E+03  0.00000000000E+00 0. -1.
         22    1    3    3    0    0 -0.33220842021E+02 -0.18160053364E+02  0.22174417336E+03  0.22495308467E+03  0.00000000000E+00 0. -1.
</event>
<event>
 7    1  0.8792454E-005  0.1174734E+03  0.7818608E-02  0.1374478E+00
          2   -1    0    0  502    0  0.00000000000E+00  0.00000000000E+00  0.14258865098E+04  0.14258865098E+04  0.00000000000E+00 0. -1.
          1   -1    0    0  501    0 -0.00000000000E+00 -0.00000000000E+00 -0.60029981951E+03  0.60029981951E+03  0.00000000000E+00 0. -1.
         25    2    1    2    0    0  0.10359120027E+03 -0.76622018707E+02  0.27793176746E+03  0.33086639928E+03  0.12499774511E+03 0.  0.
          2    1    1    2  501    0  0.60049065856E+01  0.36520588222E+02 -0.57019490072E+03  0.57139481716E+03  0.00000000000E+00 0. -1.
          1    1    1    2  502    0 -0.10959610685E+03  0.40101430485E+02  0.11178498236E+04  0.11239251129E+04  0.00000000000E+00 0. -1.
         22    1    3    3    0    0  0.98290505585E+02  0.36683800492E+01  0.13831103132E+03  0.16971865509E+03  0.00000000000E+00 0. -1.
         22    1    3    3    0    0  0.53006946820E+01 -0.80290398756E+02  0.13962073614E+03  0.16114774419E+03  0.00000000000E+00 0. -1.
</event>
<event>
 7    1  0.8792454E-005  0.2351129E+03  0.7818608E-02  0.1350552E+00
          2   -1    0    0  502    0  0.00000000000E+00  0.00000000000E+00  0.15299394583E+04  0.15299394583E+04  0.00000000000E+00 0. -1.
          1   -1    0    0  501    0 -0.00000000000E+00 -0.00000000000E+00 -0.57445552127E+02  0.57445552127E+02  0.00000000000E+00 0. -1.
         25    2    1    2    0    0  0.15740288660E+03  0.17893678432E+03  0.82595288025E+03  0.86868717012E+03  0.12500079059E+03 0.  0.
          2    1    1    2  501    0 -0.20633906717E+02  0.92042437377E+01 -0.80690104552E+01  0.23991355504E+02  0.00000000000E+00 0. -1.
          1    1    1    2  502    0 -0.13676897988E+03 -0.18814102806E+03  0.65461003636E+03  0.69470648478E+03  0.00000000000E+00 0. -1.
         22    1    3    3    0    0  0.38178645563E+02 -0.14316338995E+02  0.15875423044E+03  0.16390690108E+03  0.00000000000E+00 0. -1.
         22    1    3    3    0    0  0.11922424104E+03  0.19325312331E+03  0.66719864981E+03  0.70478026904E+03  0.00000000000E+00 0. -1.
</event>
<event>
 7    1  0.8792454E-005  0.2167885E+03  0.7818608E-02  0.1254870E+00
          2   -1    0    0  502    0  0.00000000000E+00  0.00000000000E+00  0.15243557972E+03  0.15243557972E+03  0.00000000000E+00 0. -1.
          1   -1    0    0  501    0 -0.00000000000E+00 -0.00000000000E+00 -0.12385490142E+04  0.12385490142E+04  0.00000000000E+00 0. -1.
         25    2    1    2    0    0  0.20937625387E+03  0.35494337627E+02  0.10326724456E+02  0.24663859044E+03  0.12500275743E+03 0.  0.
          2    1    1    2  501    0 -0.21659035197E+03  0.23106212828E+02 -0.10403494921E+04  0.10629074952E+04  0.00000000000E+00 0. -1.
          1    1    1    2  502    0  0.72140981001E+01 -0.58600550455E+02 -0.56090666851E+02  0.81438508292E+02  0.00000000000E+00 0. -1.
         22    1    3    3    0    0  0.47583334279E+02 -0.11341278251E+02  0.53769567671E+02  0.72690884580E+02  0.00000000000E+00 0. -1.
         22    1    3    3    0    0  0.16179291960E+03  0.46835615878E+02 -0.43442843215E+02  0.17394770586E+03  0.00000000000E+00 0. -1.
</event>
<event>
 7    1  0.8792454E-005  0.5301512E+03  0.7818608E-02  0.1136891E+00
          2   -1    0    0  502    0  0.00000000000E+00  0.00000000000E+00  0.14976483139E+04  0.14976483139E+04  0.00000000000E+00 0. -1.
          1   -1    0    0  501    0 -0.00000000000E+00 -0.00000000000E+00 -0.86269148597E+03  0.86269148597E+03  0.00000000000E+00 0. -1.
         25    2    1    2    0    0 -0.49563173027E+03  0.61190284683E+02  0.29376883255E+03  0.59272256057E+03  0.12499937535E+03 0.  0.
          2    1    1    2  501    0 -0.50701605167E+02 -0.71945107006E+02 -0.63919853367E+03  0.64522981691E+03  0.00000000000E+00 0. -1.
          1    1    1    2  502    0  0.54633333544E+03  0.10754822323E+02  0.98038652904E+03  0.11223874224E+04  0.00000000000E+00 0. -1.
         22    1    3    3    0    0 -0.41380910132E+03  0.19967437031E+02  0.28008944532E+03  0.50008676073E+03  0.00000000000E+00 0.  1.
         22    1    3    3    0    0 -0.81822628951E+02  0.41222847652E+02  0.13679387234E+02  0.92635799841E+02  0.00000000000E+00 0.  1.
</event>
<event>
 7    1  0.8792454E-005  0.1799183E+03  0.7818608E-02  0.1178042E+00
          2   -1    0    0  502    0  0.00000000000E+00  0.00000000000E+00  0.11361802497E+04  0.11361802497E+04  0.00000000000E+00 0. -1.
          1   -1    0    0  501    0 -0.00000000000E+00 -0.00000000000E+00 -0.97061270224E+03  0.97061270224E+03  0.00000000000E+00 0. -1.
         25    2    1    2    0    0 -0.15954130980E+03 -0.37756112622E+02 -0.24440268049E+03  0.31975250888E+03  0.12502017088E+03 0.  0.
          2    1    1    2  501    0  0.11947057241E+03 -0.13764322405E+03 -0.66889209616E+03  0.69327881195E+03  0.00000000000E+00 0. -1.
          1    1    1    2  502    0  0.40070737391E+02  0.17539933667E+03  0.10788623242E+04  0.10937616312E+04  0.00000000000E+00 0. -1.
         22    1    3    3    0    0 -0.94532124645E+02 -0.11973471930E+02 -0.39333970713E+02  0.10308660375E+03  0.00000000000E+00 0. -1.
         22    1    3    3    0    0 -0.65009185159E+02 -0.25782640692E+02 -0.20506870978E+03  0.21666590513E+03  0.00000000000E+00 0. -1.
</event>
<event>
 7    1  0.8792454E-005  0.2939206E+03  0.7818608E-02  0.1262835E+00
          2   -1    0    0  502    0  0.00000000000E+00  0.00000000000E+00  0.45991851288E+03  0.45991851288E+03  0.00000000000E+00 0. -1.
          1   -1    0    0  501    0 -0.00000000000E+00 -0.00000000000E+00 -0.17073241717E+04  0.17073241717E+04  0.00000000000E+00 0. -1.
         25    2    1    2    0    0 -0.15740575356E+03  0.25929487104E+03 -0.41896938405E+03  0.53213812362E+03  0.12500094573E+03 0.  0.
          2    1    1    2  501    0  0.11784159605E+03 -0.26676875600E+03 -0.12134436723E+04  0.12479974987E+04  0.00000000000E+00 0. -1.
          1    1    1    2  502    0  0.39564157517E+02  0.74738849614E+01  0.38500739752E+03  0.38710706227E+03  0.00000000000E+00 0. -1.
         22    1    3    3    0    0 -0.10506823380E+03  0.64944801048E+02 -0.12384691384E+03  0.17491489074E+03  0.00000000000E+00 0. -1.
         22    1    3    3    0    0 -0.52337519764E+02  0.19435006999E+03 -0.29512247022E+03  0.35722323287E+03  0.00000000000E+00 0. -1.
</event>
<event>
 7    1  0.8792454E-005  0.2215902E+03  0.7818608E-02  0.1194406E+00
          2   -1    0    0  502    0  0.00000000000E+00  0.00000000000E+00  0.94513752288E+03  0.94513752288E+03  0.00000000000E+00 0. -1.
          1   -1    0    0  501    0 -0.00000000000E+00 -0.00000000000E+00 -0.59354305809E+03  0.59354305809E+03  0.00000000000E+00 0. -1.
         25    2    1    2    0    0 -0.23167523033E+03 -0.72733198193E+02  0.31372610231E+02  0.27490534808E+03  0.12500071704E+03 0.  0.
          2    1    1    2  501    0  0.72000846127E+02 -0.81147345579E+02 -0.44967622796E+03  0.46257726223E+03  0.00000000000E+00 0. -1.
          1    1    1    2  502    0  0.15967438420E+03  0.15388054377E+03  0.76989808252E+03  0.80119797066E+03  0.00000000000E+00 0. -1.
         22    1    3    3    0    0 -0.78989935308E+02  0.49187098367E+01  0.62446859241E+02  0.10081276613E+03  0.00000000000E+00 0.  1.
         22    1    3    3    0    0 -0.15268529502E+03 -0.77651908029E+02 -0.31074249010E+02  0.17409258195E+03  0.00000000000E+00 0.  1.
</event>
<event>
 7    1  0.8792454E-005  0.1056443E+04  0.7818608E-02  0.1108620E+00
          2   -1    0    0  502    0  0.00000000000E+00  0.00000000000E+00  0.12589147233E+04  0.12589147233E+04  0.00000000000E+00 0. -1.
          1   -1    0    0  501    0 -0.00000000000E+00 -0.00000000000E+00 -0.10075623294E+04  0.10075623294E+04  0.00000000000E+00 0. -1.
         25    2    1    2    0    0  0.10363410378E+04 -0.27066690465E+02 -0.35442304183E+02  0.10448047018E+04  0.12500142302E+03 0.  0.
          2    1    1    2  501    0 -0.10794445146E+04  0.72726757127E+02  0.17853925239E+03  0.10965244666E+04  0.00000000000E+00 0. -1.
          1    1    1    2  502    0  0.43103476813E+02 -0.45660066661E+02  0.10825544568E+03  0.12514788420E+03  0.00000000000E+00 0. -1.
         22    1    3    3    0    0  0.57340127020E+03 -0.35737107130E+02  0.39007223387E+02  0.57583654015E+03  0.00000000000E+00 0.  1.
         22    1    3    3    0    0  0.46293976757E+03  0.86704166644E+01 -0.74449527570E+02  0.46896816169E+03  0.00000000000E+00 0.  1.
</event>
<event>
 7    1  0.8792454E-005  0.1590799E+03  0.7818608E-02  0.1340756E+00
          2   -1    0    0  502    0  0.00000000000E+00  0.00000000000E+00  0.65892093921E+02  0.65892093921E+02  0.00000000000E+00 0. -1.
          1   -1    0    0  501    0 -0.00000000000E+00 -0.00000000000E+00 -0.12173245214E+04  0.12173245214E+04  0.00000000000E+00 0. -1.
         25    2    1    2    0    0 -0.66780932911E+02  0.13697926918E+03 -0.68998962873E+03  0.71758776326E+03  0.12499398802E+03 0.  0.
          2    1    1    2  501    0  0.40897050090E+02 -0.16246253586E+03 -0.49100314115E+03  0.51879738712E+03  0.00000000000E+00 0. -1.
          1    1    1    2  502    0  0.25883882821E+02  0.25483266684E+02  0.29560342366E+02  0.46831464974E+02  0.00000000000E+00 0. -1.
         22    1    3    3    0    0 -0.11333473898E+02  0.13446904329E+03 -0.39481644713E+03  0.41724141472E+03  0.00000000000E+00 0.  1.
         22    1    3    3    0    0 -0.55447459013E+02  0.25102258884E+01 -0.29517318160E+03  0.30034634854E+03  0.00000000000E+00 0.  1.
</event>
<event>
 7    1  0.8792454E-005  0.3391052E+03  0.7818608E-02  0.1134282E+00
          2   -1    0    0  502    0  0.00000000000E+00  0.00000000000E+00  0.44282772042E+03  0.44282772042E+03  0.00000000000E+00 0. -1.
          1   -1    0    0  501    0 -0.00000000000E+00 -0.00000000000E+00 -0.11068334130E+04  0.11068334130E+04  0.00000000000E+00 0. -1.
         25    2    1    2    0    0 -0.18575348276E+03  0.39835043730E+03 -0.28737470286E+02  0.45786209691E+03  0.12499772130E+03 0.  0.
          2    1    1    2  501    0  0.52460563921E+02 -0.13199219245E+03 -0.75687132389E+03  0.77008327508E+03  0.00000000000E+00 0. -1.
          1    1    1    2  502    0  0.13329291884E+03 -0.26635824485E+03  0.12160310162E+03  0.32171576141E+03  0.00000000000E+00 0. -1.
         22    1    3    3    0    0  0.33058909773E+01  0.10017397262E+03 -0.30599261864E+02  0.10479536503E+03  0.00000000000E+00 0.  1.
         22    1    3    3    0    0 -0.18905937374E+03  0.29817646468E+03  0.18617915784E+01  0.35306673188E+03  0.00000000000E+00 0.  1.
</event>
<event>
 7    1  0.8792454E-005  0.2031904E+03  0.7818608E-02  0.1190412E+00
          2   -1    0    0  502    0  0.00000000000E+00  0.00000000000E+00  0.24099245969E+04  0.24099245969E+04  0.00000000000E+00 0. -1.
          1   -1    0    0  501    0 -0.00000000000E+00 -0.00000000000E+00 -0.81422859756E+03  0.81422859756E+03  0.00000000000E+00 0. -1.
         25    2    1    2    0    0 -0.24467994944E+03 -0.24115293607E+02  0.11429946944E+04  0.11758024235E+04  0.12499857049E+03 0.  0.
          2    1    1    2  501    0  0.87126490613E+02 -0.87701842804E+02 -0.78549944565E+03  0.79516791793E+03  0.00000000000E+00 0. -1.
          1    1    1    2  502    0  0.15755345883E+03  0.11181713641E+03  0.12382007506E+04  0.12531828531E+04  0.00000000000E+00 0. -1.
         22    1    3    3    0    0 -0.12673840762E+03  0.28785829291E+01  0.32398447872E+03  0.34790351055E+03  0.00000000000E+00 0.  1.
         22    1    3    3    0    0 -0.11794154182E+03 -0.26993876536E+02  0.81901021567E+03  0.82789891293E+03  0.00000000000E+00 0.  1.
</event>
<event>
 7    1  0.8792454E-005  0.1155226E+03  0.7818608E-02  0.1292539E+00
          2   -1    0    0  502    0  0.00000000000E+00  0.00000000000E+00  0.48587798257E+03  0.48587798257E+03  0.00000000000E+00 0. -1.
          1   -1    0    0  501    0 -0.00000000000E+00 -0.00000000000E+00 -0.75841794742E+02  0.75841794742E+02  0.00000000000E+00 0. -1.
         25    2    1    2    0    0  0.86282974244E+02  0.66869726285E+02  0.24857703716E+03  0.29888201688E+03  0.12499441857E+03 0.  0.
          2    1    1    2  501    0 -0.12732874799E+03 -0.15616998589E+01  0.12133756403E+03  0.17589159564E+03  0.00000000000E+00 0. -1.
          1    1    1    2  502    0  0.41045773747E+02 -0.65308026426E+02  0.40121586641E+02  0.86946164796E+02  0.00000000000E+00 0. -1.
         22    1    3    3    0    0  0.15924851994E+02 -0.23099752161E+02  0.32163176624E+01  0.28240824355E+02  0.00000000000E+00 0. -1.
         22    1    3    3    0    0  0.70358122250E+02  0.89969478446E+02  0.24536071950E+03  0.27064119253E+03  0.00000000000E+00 0. -1.
</event>
<event>
 7    1  0.8792454E-005  0.1018779E+03  0.7818608E-02  0.1329795E+00
          2   -1    0    0  502    0  0.00000000000E+00  0.00000000000E+00  0.13652042814E+03  0.13652042814E+03  0.00000000000E+00 0. -1.
          1   -1    0    0  501    0 -0.00000000000E+00 -0.00000000000E+00 -0.31042124908E+03  0.31042124908E+03  0.00000000000E+00 0. -1.
         25    2    1    2    0    0  0.44930744673E+02 -0.12496907068E+03  0.93279596082E+01  0.18261210926E+03  0.12499652465E+03 0.  0.
          2    1    1    2  501    0  0.12757180928E+02  0.61092500187E+02 -0.16491931584E+03  0.17633326397E+03  0.00000000000E+00 0. -1.
          1    1    1    2  502    0 -0.57687925602E+02  0.63876570498E+02 -0.18309464708E+02  0.87996303995E+02  0.00000000000E+00 0. -1.
         22    1    3    3    0    0  0.15923809280E+02 -0.10151418451E+02  0.53098777677E+02  0.56356891232E+02  0.00000000000E+00 0.  1.
         22    1    3    3    0    0  0.29006935393E+02 -0.11481765223E+03 -0.43770818069E+02  0.12625521803E+03  0.00000000000E+00 0.  1.
</event>
<event>
 7    1  0.8792454E-005  0.3659168E+03  0.7818608E-02  0.1089114E+00
          2   -1    0    0  502    0  0.00000000000E+00  0.00000000000E+00  0.15357189796E+04  0.15357189796E+04  0.00000000000E+00 0. -1.
          1   -1    0    0  501    0 -0.00000000000E+00 -0.00000000000E+00 -0.71213045527E+03  0.71213045527E+03  0.00000000000E+00 0. -1.
         25    2    1    2    0    0 -0.55716582587E+03 -0.19670264472E+02 -0.52380477806E+03  0.77512412695E+03  0.12500115935E+03 0.  0.
          2    1    1    2  501    0  0.21004958295E+03  0.10225912792E+03  0.45068258172E+03  0.50763426402E+03  0.00000000000E+00 0. -1.
          1    1    1    2  502    0  0.34711624292E+03 -0.82588863448E+02  0.89671072063E+03  0.96509104387E+03  0.00000000000E+00 0. -1.
         22    1    3    3    0    0 -0.34090917226E+02 -0.41409487094E+01  0.50887474010E+00  0.34345262367E+02  0.00000000000E+00 0.  1.
         22    1    3    3    0    0 -0.52307490865E+03 -0.15529315763E+02 -0.52431365280E+03  0.74077886458E+03  0.00000000000E+00 0.  1.
</event>
<event>
 7    1  0.8792454E-005  0.6275451E+03  0.7818608E-02  0.1208729E+00
          2   -1    0    0  502    0  0.00000000000E+00  0.00000000000E+00  0.18441588433E+04  0.18441588433E+04  0.00000000000E+00 0. -1.
          1   -1    0    0  501    0 -0.00000000000E+00 -0.00000000000E+00 -0.90053155198E+03  0.90053155198E+03  0.00000000000E+00 0. -1.
         25    2    1    2    0    0  0.49674285982E+03  0.38415225718E+03  0.13884369131E+03  0.65515567268E+03  0.12499983739E+03 0.  0.
          2    1    1    2  501    0 -0.20998511280E+02  0.25200023337E+02 -0.57383769604E+03  0.57477446015E+03  0.00000000000E+00 0. -1.
          1    1    1    2  502    0 -0.47574434854E+03 -0.40935228052E+03  0.13786212960E+04  0.15147602624E+04  0.00000000000E+00 0. -1.
         22    1    3    3    0    0  0.49137857834E+02  0.31296295132E+01 -0.64244883214E+01  0.49654785304E+02  0.00000000000E+00 0. -1.
         22    1    3    3    0    0  0.44760500199E+03  0.38102262767E+03  0.14526817963E+03  0.60550088738E+03  0.00000000000E+00 0. -1.
</event>
<event>
 7    1  0.8792454E-005  0.1135483E+03  0.7818608E-02  0.1341427E+00
          2   -1    0    0  502    0  0.00000000000E+00  0.00000000000E+00  0.25462963662E+04  0.25462963662E+04  0.00000000000E+00 0. -1.
          1   -1    0    0  501    0 -0.00000000000E+00 -0.00000000000E+00 -0.55344745419E+03  0.55344745419E+03  0.00000000000E+00 0. -1.
         25    2    1    2    0    0 -0.14426398134E+03 -0.70179481262E+02  0.28765941154E+03  0.35230518239E+03  0.12503498946E+03 0.  0.
          2    1    1    2  501    0  0.49192845503E+02  0.11824863267E+02 -0.51849513974E+03  0.52095774624E+03  0.00000000000E+00 0. -1.
          1    1    1    2  502    0  0.95071135832E+02  0.58354617995E+02  0.22236846402E+04  0.22264808918E+04  0.00000000000E+00 0. -1.
         22    1    3    3    0    0 -0.66422781082E+02 -0.96335101242E+02  0.20334443986E+03  0.23460903392E+03  0.00000000000E+00 0.  1.
         22    1    3    3    0    0 -0.77841200254E+02  0.26155619980E+02  0.84314971683E+02  0.11769614846E+03  0.00000000000E+00 0.  1.
</event>
<event>
 7    1  0.8792454E-005  0.2194173E+03  0.7818608E-02  0.1264515E+00
          2   -1    0    0  502    0  0.00000000000E+00  0.00000000000E+00  0.52688899041E+03  0.52688899041E+03  0.00000000000E+00 0. -1.
          1   -1    0    0  501    0 -0.00000000000E+00 -0.00000000000E+00 -0.15057520997E+03  0.15057520997E+03  0.00000000000E+00 0. -1.
         25    2    1    2    0    0  0.18194578303E+03  0.17838328233E+03  0.21047249702E+03  0.35333819784E+03  0.12499738666E+03 0.  0.
          2    1    1    2  501    0 -0.14301871589E+03 -0.14233104286E+03  0.68177096799E+02  0.21298026994E+03  0.00000000000E+00 0. -1.
          1    1    1    2  502    0 -0.38927067140E+02 -0.36052239471E+02  0.97664186615E+02  0.11114573260E+03  0.00000000000E+00 0. -1.
         22    1    3    3    0    0  0.89460925516E+02  0.79479469782E+02  0.22646591976E+02  0.12179126175E+03  0.00000000000E+00 0.  1.
         22    1    3    3    0    0  0.92484857518E+02  0.98903812550E+02  0.18782590504E+03  0.23154693609E+03  0.00000000000E+00 0.  1.
</event>
<event>
 7    1  0.8792454E-005  0.1588295E+03  0.7818608E-02  0.1236371E+00
          2   -1    0    0  502    0  0.00000000000E+00  0.00000000000E+00  0.21011589141E+04  0.21011589141E+04  0.00000000000E+00 0. -1.
          1   -1    0    0  501    0 -0.00000000000E+00 -0.00000000000E+00 -0.27547613156E+03  0.27547613156E+03  0.00000000000E+00 0. -1.
         25    2    1    2    0    0  0.14574704232E+03 -0.10104261774E+03  0.18755421779E+03  0.28679886299E+03  0.12500076901E+03 0.  0.
          2    1    1    2  501    0 -0.60618044483E+02  0.14769724046E+03 -0.19619504616E+03  0.25294568250E+03  0.00000000000E+00 0. -1.
          1    1    1    2  502    0 -0.85128997838E+02 -0.46654622726E+02  0.18343236109E+04  0.18368905002E+04  0.00000000000E+00 0. -1.
         22    1    3    3    0    0 -0.77429481844E+01 -0.55993778247E+02  0.40776822898E+02  0.69699395511E+02  0.00000000000E+00 0.  1.
         22    1    3    3    0    0  0.15348999051E+03 -0.45048839488E+02  0.14677739490E+03  0.21709946747E+03  0.00000000000E+00 0.  1.
</event>
<event>
 7    1  0.8792454E-005  0.3406177E+03  0.7818608E-02  0.1084514E+00
          2   -1    0    0  502    0  0.00000000000E+00  0.00000000000E+00  0.50864486963E+03  0.50864486963E+03  0.00000000000E+00 0. -1.
          1   -1    0    0  501    0 -0.00000000000E+00 -0.00000000000E+00 -0.11565638488E+04  0.11565638488E+04  0.00000000000E+00 0. -1.
         25    2    1    2    0    0 -0.29454652407E+03  0.15463287237E+03 -0.42344615955E+03  0.55281132169E+03  0.12499890917E+03 0.  0.
          2    1    1    2  501    0 -0.44160040606E+02 -0.26311967414E+03 -0.56197533215E+03  0.62209191126E+03  0.00000000000E+00 0. -1.
          1    1    1    2  502    0  0.33870656468E+03  0.10848680177E+03  0.33750251253E+03  0.49030548547E+03  0.00000000000E+00 0. -1.
         22    1    3    3    0    0 -0.13658609325E+03  0.41534131984E+02 -0.26934242674E+03  0.30483796980E+03  0.00000000000E+00 0.  1.
         22    1    3    3    0    0 -0.15796043083E+03  0.11309874039E+03 -0.15410373280E+03  0.24797335189E+03  0.00000000000E+00 0.  1.
</event>
<event>
 7    1  0.8792454E-005  0.1443277E+03  0.7818608E-02  0.1326014E+00
          2   -1    0    0  502    0  0.00000000000E+00  0.00000000000E+00  0.52657706504E+03  0.52657706504E+03  0.00000000000E+00 0. -1.
          1   -1    0    0  501    0 -0.00000000000E+00 -0.00000000000E+00 -0.15624216984E+04  0.15624216984E+04  0.00000000000E+00 0. -1.
         25    2    1    2    0    0 -0.10399075573E+03 -0.11771235603E+03 -0.51988017466E+03  0.55728838571E+03  0.12499869121E+03 0.  0.
          2    1    1    2  501    0  0.43583665338E+02 -0.13234734617E+02 -0.10130784850E+04  0.10141019233E+04  0.00000000000E+00 0. -1.
          1    1    1    2  502    0  0.60407090391E+02  0.13094709065E+03  0.49711402622E+03  0.51760845451E+03  0.00000000000E+00 0. -1.
         22    1    3    3    0    0 -0.51105524216E+02 -0.50144181047E+02 -0.41801016950E+03  0.42409753041E+03  0.00000000000E+00 0.  1.
         22    1    3    3    0    0 -0.52885231514E+02 -0.67568174987E+02 -0.10187000516E+03  0.13319085530E+03  0.00000000000E+00 0.  1.
</event>
<event>
 7    1  0.8792454E-005  0.1927149E+03  0.7818608E-02  0.1221971E+00
          2   -1    0    0  502    0  0.00000000000E+00  0.00000000000E+00  0.25513882096E+04  0.25513882096E+04  0.00000000000E+00 0. -1.
          1   -1    0    0  501    0 -0.00000000000E+00 -0.00000000000E+00 -0.93058262960E+02  0.93058262960E+02  0.00000000000E+00 0. -1.
         25    2    1    2    0    0 -0.14231161449E+03 -0.64864063420E+02  0.10091288861E+04  0.10287991571E+04  0.12500661825E+03 0.  0.
          2    1    1    2  501    0 -0.85003294726E+02  0.37357486143E+02 -0.45577398689E+02  0.10343326910E+03  0.00000000000E+00 0. -1.
          1    1    1    2  502    0  0.22731490921E+03  0.27506577277E+02  0.14947784592E+04  0.15122140463E+04  0.00000000000E+00 0. -1.
         22    1    3    3    0    0 -0.15868507217E+03 -0.34687664106E+02  0.89491694067E+03  0.90953862857E+03  0.00000000000E+00 0. -1.
         22    1    3    3    0    0  0.16373457682E+02 -0.30176399314E+02  0.11421194540E+03  0.11926052852E+03  0.00000000000E+00 0. -1.
</event>
<event>
 7    1  0.8792454E-005  0.1087545E+03  0.7818608E-02  0.1353949E+00
          2   -1    0    0  502    0  0.00000000000E+00  0.00000000000E+00  0.27320840740E+04  0.27320840740E+04  0.00000000000E+00 0. -1.
          1   -1    0    0  501    0 -0.00000000000E+00 -0.00000000000E+00 -0.10373214072E+04  0.10373214072E+04  0.00000000000E+00 0. -1.
         25    2    1    2    0    0 -0.90157995667E+02  0.59722183410E+02 -0.99433046253E+03  0.10079755901E+04  0.12500607247E+03 0.  0.
          2    1    1    2  501    0  0.72943238721E+02 -0.10394361299E+03  0.76172726760E+02  0.14807861108E+03  0.00000000000E+00 0. -1.
          1    1    1    2  502    0  0.17214756945E+02  0.44221429584E+02  0.26129204025E+04  0.26133512800E+04  0.00000000000E+00 0. -1.
         22    1    3    3    0    0  0.24485022385E+01  0.85607332396E+01 -0.58892298876E+03  0.58899029534E+03  0.00000000000E+00 0.  1.
         22    1    3    3    0    0 -0.92606497905E+02  0.51161450171E+02 -0.40540747377E+03  0.41898529477E+03  0.00000000000E+00 0.  1.
</event>
<event>
 7    1  0.8792454E-005  0.1899331E+03  0.7818608E-02  0.1257245E+00
          2   -1    0    0  502    0  0.00000000000E+00  0.00000000000E+00  0.95945812904E+03  0.95945812904E+03  0.00000000000E+00 0. -1.
          1   -1    0    0  501    0 -0.00000000000E+00 -0.00000000000E+00 -0.24148327990E+03  0.24148327990E+03  0.00000000000E+00 0. -1.
         25    2    1    2    0    0 -0.18146320372E+03 -0.64773012625E+02  0.11955475778E+03  0.25892612910E+03  0.12499985100E+03 0.  0.
          2    1    1    2  501    0 -0.96626575741E+01  0.65113109602E+02 -0.15305814545E+03  0.16661296432E+03  0.00000000000E+00 0. -1.
          1    1    1    2  502    0  0.19112586130E+03 -0.34009697710E+00  0.75147823680E+03  0.77540231552E+03  0.00000000000E+00 0. -1.
         22    1    3    3    0    0 -0.18928672541E+03 -0.53474797641E+02  0.72054100996E+02  0.20947747342E+03  0.00000000000E+00 0. -1.
         22    1    3    3    0    0  0.78235216873E+01 -0.11298214983E+02  0.47500656785E+02  0.49448655679E+02  0.00000000000E+00 0. -1.
</event>
<event>
 7    1  0.8792454E-005  0.4151444E+03  0.7818608E-02  0.1102785E+00
          2   -1    0    0  502    0  0.00000000000E+00  0.00000000000E+00  0.46412498486E+03  0.46412498486E+03  0.00000000000E+00 0. -1.
          1   -1    0    0  501    0 -0.00000000000E+00 -0.00000000000E+00 -0.19973057197E+04  0.19973057197E+04  0.00000000000E+00 0. -1.
         25    2    1    2    0    0 -0.23833317811E+03 -0.29295758826E+03  0.17762082917E+02  0.39820586579E+03  0.12500227059E+03 0.  0.
          2    1    1    2  501    0 -0.16536600443E+03  0.48095337112E+02 -0.15807746256E+04  0.15901281375E+04  0.00000000000E+00 0. -1.
          1    1    1    2  502    0  0.40369918254E+03  0.24486225115E+03  0.29831807786E+02  0.47309670129E+03  0.00000000000E+00 0. -1.
         22    1    3    3    0    0 -0.46854050073E+02 -0.45791350509E+02 -0.44776339572E+02  0.79354082284E+02  0.00000000000E+00 0. -1.
         22    1    3    3    0    0 -0.19147912804E+03 -0.24716623775E+03  0.62538422489E+02  0.31885178351E+03  0.00000000000E+00 0. -1.
</event>
<event>
 7    1  0.8792454E-005  0.2436878E+03  0.7818608E-02  0.1280535E+00
          2   -1    0    0  502    0  0.00000000000E+00  0.00000000000E+00  0.40127194246E+02  0.40127194246E+02  0.00000000000E+00 0. -1.
          1   -1    0    0  501    0 -0.00000000000E+00 -0.00000000000E+00 -0.21126273361E+04  0.21126273361E+04  0.00000000000E+00 0. -1.
         25    2    1    2    0    0 -0.20376784041E+03 -0.13066802149E+03 -0.12201368916E+04  0.12501817350E+04  0.12499948641E+03 0.  0.
          2    1    1    2  501    0  0.21584375970E+02 -0.34791528569E+02 -0.58260178499E+02  0.71208034272E+02  0.00000000000E+00 0. -1.
          1    1    1    2  502    0  0.18218346444E+03  0.16545955006E+03 -0.79410307176E+03  0.83136476110E+03  0.00000000000E+00 0. -1.
         22    1    3    3    0    0 -0.34013201403E+02  0.23858069732E+02 -0.23583137513E+03  0.23946303025E+03  0.00000000000E+00 0.  1.
         22    1    3    3    0    0 -0.16975463901E+03 -0.15452609122E+03 -0.98430551644E+03  0.10107187047E+04  0.00000000000E+00 0.  1.
</event>
<event>
 7    1  0.8792454E-005  0.5116874E+03  0.7818608E-02  0.1059430E+00
          2   -1    0    0  502    0  0.00000000000E+00  0.00000000000E+00  0.17674917940E+04  0.17674917940E+04  0.00000000000E+00 0. -1.
          1   -1    0    0  501    0 -0.00000000000E+00 -0.00000000000E+00 -0.75103459147E+03  0.75103459147E+03  0.00000000000E+00 0. -1.
         25    2    1    2    0    0 -0.46712897935E+02 -0.71086428523E+03  0.27518053095E+03  0.77386003406E+03  0.12499960341E+03 0.  0.
          2    1    1    2  501    0 -0.17012925125E+02  0.46882051022E+03 -0.37505278897E+03  0.60062193179E+03  0.00000000000E+00 0. -1.
          1    1    1    2  502    0  0.63725823060E+02  0.24204377501E+03  0.11163294605E+04  0.11440444196E+04  0.00000000000E+00 0. -1.
         22    1    3    3    0    0 -0.29002891531E+02 -0.34939646866E+03  0.20202235461E+03  0.40463822334E+03  0.00000000000E+00 0.  1.
         22    1    3    3    0    0 -0.17710006404E+02 -0.36146781657E+03  0.73158176339E+02  0.36922181072E+03  0.00000000000E+00 0.  1.
</event>
<event>
 7    1  0.8792454E-005  0.1919152E+03  0.7818608E-02  0.1267947E+00
          2   -1    0    0  502    0  0.00000000000E+00  0.00000000000E+00  0.15842985762E+04  0.15842985762E+04  0.00000000000E+00 0. -1.
          1   -1    0    0  501    0 -0.00000000000E+00 -0.00000000000E+00 -0.72614410709E+02  0.72614410709E+02  0.00000000000E+00 0. -1.
         25    2    1    2    0    0  0.19755657393E+03  0.48673871410E+02  0.53365405069E+03  0.58464412949E+03  0.12499746665E+03 0.  0.
          2    1    1    2  501    0 -0.33878200260E+02  0.47898775023E+02 -0.15535734863E+02  0.60690890249E+02  0.00000000000E+00 0. -1.
          1    1    1    2  502    0 -0.16367837367E+03 -0.96572646432E+02  0.99356584967E+03  0.10115779672E+04  0.00000000000E+00 0. -1.
         22    1    3    3    0    0 -0.17367071673E+02 -0.27953324709E+01  0.46024068987E+02  0.49271127329E+02  0.00000000000E+00 0. -1.
         22    1    3    3    0    0  0.21492364560E+03  0.51469203881E+02  0.48762998171E+03  0.53537300216E+03  0.00000000000E+00 0. -1.
</event>
<event>
 7    1  0.8792454E-005  0.9745287E+02  0.7818608E-02  0.1286856E+00
          2   -1    0    0  502    0  0.00000000000E+00  0.00000000000E+00  0.79836541235E+03  0.79836541235E+03  0.00000000000E+00 0. -1.
          1   -1    0    0  501    0 -0.00000000000E+00 -0.00000000000E+00 -0.12695854129E+04  0.12695854129E+04  0.00000000000E+00 0. -1.
         25    2    1    2    0    0  0.10797608303E+03 -0.56741293175E+02 -0.71056331278E+02  0.18855257266E+03  0.12499864634E+03 0.  0.
          2    1    1    2  501    0 -0.17744967631E+02  0.94791964858E+02 -0.11344848079E+04  0.11385763830E+04  0.00000000000E+00 0. -1.
          1    1    1    2  502    0 -0.90231115394E+02 -0.38050671683E+02  0.73432113866E+03  0.74082186960E+03  0.00000000000E+00 0. -1.
         22    1    3    3    0    0 -0.19300548653E+02  0.15387616674E+02  0.24952818772E+01  0.24809602110E+02  0.00000000000E+00 0.  1.
         22    1    3    3    0    0  0.12727663168E+03 -0.72128909849E+02 -0.73551613155E+02  0.16374297055E+03  0.00000000000E+00 0.  1.
</event>
<event>
 7    1  0.8792454E-005  0.2113315E+03  0.7818608E-02  0.1322690E+00
          2   -1    0    0  502    0  0.00000000000E+00  0.00000000000E+00  0.20165618649E+04  0.20165618649E+04  0.00000000000E+00 0. -1.
          1   -1    0    0  501    0 -0.00000000000E+00 -0.00000000000E+00 -0.19836650351E+03  0.19836650351E+03  0.00000000000E+00 0. -1.
         25    2    1    2    0    0  0.14847524078E+03 -0.10839817039E+03 -0.11982750828E+03  0.25254341485E+03  0.12499793669E+03 0.  0.
          2    1    1    2  501    0  0.13031829315E+02 -0.29268467924E+02  0.34550879725E+02  0.47119370536E+02  0.00000000000E+00 0. -1.
          1    1    1    2  502    0 -0.16150707010E+03  0.13766663831E+03  0.19034719899E+04  0.19152655830E+04  0.00000000000E+00 0. -1.
         22    1    3    3    0    0  0.47375130363E+02 -0.90227521847E+02 -0.10369144218E+02  0.10243499318E+03  0.00000000000E+00 0.  1.
         22    1    3    3    0    0  0.10110011042E+03 -0.18170648543E+02 -0.10945836406E+03  0.15010842167E+03  0.00000000000E+00 0.  1.
</event>
<event>
 7    1  0.8792454E-005  0.4403024E+03  0.7818608E-02  0.1126105E+00
          2   -1    0    0  502    0  0.00000000000E+00  0.00000000000E+00  0.12412946530E+04  0.12412946530E+04  0.00000000000E+00 0. -1.
          1   -1    0    0  501    0 -0.00000000000E+00 -0.00000000000E+00 -0.81337942498E+03  0.81337942498E+03  0.00000000000E+00 0. -1.
         25    2    1    2    0    0 -0.39331434781E+03  0.16131725393E+03  0.45034407306E+03  0.63178729079E+03  0.12500385617E+03 0.  0.
          2    1    1    2  501    0 -0.62980357344E+02 -0.10324847841E+03 -0.64084813551E+03  0.65216033802E+03  0.00000000000E+00 0. -1.
          1    1    1    2  502    0  0.45629470515E+03 -0.58068775522E+02  0.61841929050E+03  0.77072644921E+03  0.00000000000E+00 0. -1.
         22    1    3    3    0    0 -0.14068946114E+03  0.12439301908E+03  0.18950501363E+03  0.26679448619E+03  0.00000000000E+00 0.  1.
         22    1    3    3    0    0 -0.25262488667E+03  0.36924234846E+02  0.26083905944E+03  0.36499280460E+03  0.00000000000E+00 0.  1.
</event>
<event>
 7    1  0.8792454E-005  0.2289836E+03  0.7818608E-02  0.1305682E+00
          2   -1    0    0  502    0  0.00000000000E+00  0.00000000000E+00  0.38420431229E+04  0.38420431229E+04  0.00000000000E+00 0. -1.
          1   -1    0    0  501    0 -0.00000000000E+00 -0.00000000000E+00 -0.11231965256E+04  0.11231965256E+04  0.00000000000E+00 0. -1.
         25    2    1    2    0    0 -0.19116557201E+03 -0.97610958251E+02 -0.10161053468E+04  0.10460245053E+04  0.12500005928E+03 0.  0.
          2    1    1    2  501    0 -0.25460447449E+02  0.23235048262E+02 -0.85353213500E+02  0.92050382437E+02  0.00000000000E+00 0. -1.
          1    1    1    2  502    0  0.21662601946E+03  0.74375909989E+02  0.38203051577E+04  0.38271647607E+04  0.00000000000E+00 0. -1.
         22    1    3    3    0    0 -0.73903397188E+02 -0.10553298793E+03 -0.59753676546E+03  0.61126844327E+03  0.00000000000E+00 0.  1.
         22    1    3    3    0    0 -0.11726217482E+03  0.79220296807E+01 -0.41856858137E+03  0.43475606207E+03  0.00000000000E+00 0.  1.
</event>
<event>
 7    1  0.8792454E-005  0.1438008E+03  0.7818608E-02  0.1249581E+00
          2   -1    0    0  502    0  0.00000000000E+00  0.00000000000E+00  0.27959265573E+04  0.27959265573E+04  0.00000000000E+00 0. -1.
          1   -1    0    0  501    0 -0.00000000000E+00 -0.00000000000E+00 -0.20373200808E+02  0.20373200808E+02  0.00000000000E+00 0. -1.
         25    2    1    2    0    0  0.17463373073E+03  0.36814466992E+02  0.13848201203E+04  0.14018573473E+04  0.12500004696E+03 0.  0.
          2    1    1    2  501    0 -0.12994843796E+03  0.45682727079E+02  0.49496407395E+03  0.51377324043E+03  0.00000000000E+00 0. -1.
          1    1    1    2  502    0 -0.44685292771E+02 -0.82497194071E+02  0.89576916221E+03  0.90066917033E+03  0.00000000000E+00 0. -1.
         22    1    3    3    0    0  0.12021622989E+03 -0.17854055407E+02  0.11028687416E+04  0.11095450286E+04  0.00000000000E+00 0. -1.
         22    1    3    3    0    0  0.54417500847E+02  0.54668522398E+02  0.28195137871E+03  0.29231231875E+03  0.00000000000E+00 0. -1.
</event>
<event>
 7    1  0.8792454E-005  0.9883186E+02  0.7818608E-02  0.1339105E+00
          2   -1    0    0  502    0  0.00000000000E+00  0.00000000000E+00  0.31200375916E+02  0.31200375916E+02  0.00000000000E+00 0. -1.
          1   -1    0    0  501    0 -0.00000000000E+00 -0.00000000000E+00 -0.11814859824E+04  0.11814859824E+04  0.00000000000E+00 0. -1.
         25    2    1    2    0    0 -0.57660115483E+02  0.40834738476E+02 -0.22820739602E+03  0.26962473968E+03  0.12500687926E+03 0.  0.
          2    1    1    2  501    0  0.39700816885E+02 -0.97358200376E+02 -0.80481136577E+03  0.81165023780E+03  0.00000000000E+00 0. -1.
          1    1    1    2  502    0  0.17959298597E+02  0.56523461900E+02 -0.11726684470E+03  0.13141138085E+03  0.00000000000E+00 0. -1.
         22    1    3    3    0    0  0.15512813073E+02  0.55309250394E+02 -0.15418715015E+03  0.16454007967E+03  0.00000000000E+00 0.  1.
         22    1    3    3    0    0 -0.73172928555E+02 -0.14474511918E+02 -0.74020245877E+02  0.10508466000E+03  0.00000000000E+00 0.  1.
</event>
<event>
 7    1  0.8792454E-005  0.4615341E+03  0.7818608E-02  0.1098174E+00
          2   -1    0    0  502    0  0.00000000000E+00  0.00000000000E+00  0.72162142970E+03  0.72162142970E+03  0.00000000000E+00 0. -1.
          1   -1    0    0  501    0 -0.00000000000E+00 -0.00000000000E+00 -0.70063567037E+03  0.70063567037E+03  0.00000000000E+00 0. -1.
         25    2    1    2    0    0  0.43577854099E+03 -0.18935695328E+03  0.17951343819E+03  0.52307634635E+03  0.12499918831E+03 0.  0.
          2    1    1    2  501    0 -0.46336180472E+03  0.27237861868E+02 -0.39613191904E+03  0.61021845308E+03  0.00000000000E+00 0. -1.
          1    1    1    2  502    0  0.27583263729E+02  0.16211909141E+03  0.23760424019E+03  0.28896230064E+03  0.00000000000E+00 0. -1.
         22    1    3    3    0    0  0.43062187495E+03 -0.20335859759E+03  0.17168909440E+03  0.50622827216E+03  0.00000000000E+00 0. -1.
         22    1    3    3    0    0  0.51566660436E+01  0.14001644315E+02  0.78243437906E+01  0.16848074191E+02  0.00000000000E+00 0. -1.
</event>
<event>
 7    1  0.8792454E-005  0.1468225E+03  0.7818608E-02  0.1234150E+00
          2   -1    0    0  502    0  0.00000000000E+00  0.00000000000E+00  0.55808614420E+03  0.55808614420E+03  0.00000000000E+00 0. -1.
          1   -1    0    0  501    0 -0.00000000000E+00 -0.00000000000E+00 -0.19696084752E+03  0.19696084752E+03  0.00000000000E+00 0. -1.
         25    2    1    2    0    0 -0.52654970929E+02  0.20906216389E+03  0.37469918862E+03  0.45000443781E+03  0.12499991104E+03 0.  0.
          2    1    1    2  501    0 -0.28987647913E+02 -0.13923845769E+03 -0.94315519646E+02  0.17065476576E+03  0.00000000000E+00 0. -1.
          1    1    1    2  502    0  0.81642618842E+02 -0.69823706201E+02  0.80741627709E+02  0.13438778815E+03  0.00000000000E+00 0. -1.
         22    1    3    3    0    0 -0.88187037341E+02  0.15477548808E+03  0.31477279215E+03  0.36168261769E+03  0.00000000000E+00 0.  1.
         22    1    3    3    0    0  0.35532066412E+02  0.54286675812E+02  0.59926396473E+02  0.88321820115E+02  0.00000000000E+00 0.  1.
</event>
<event>
 7    1  0.8792454E-005  0.1444515E+03  0.7818608E-02  0.1348973E+00
          2   -1    0    0  502    0  0.00000000000E+00  0.00000000000E+00  0.42748708960E+03  0.42748708960E+03  0.00000000000E+00 0. -1.
          1   -1    0    0  501    0 -0.00000000000E+00 -0.00000000000E+00 -0.28961124775E+03  0.28961124775E+03  0.00000000000E+00 0. -1.
         25    2    1    2    0    0 -0.13199610763E+03  0.96175844851E+02 -0.40268588399E+02  0.20956844801E+03  0.12499843851E+03 0.  0.
          2    1    1    2  501    0  0.22130371451E+01 -0.37207040920E+02 -0.14745464690E+03  0.15209251895E+03  0.00000000000E+00 0. -1.
          1    1    1    2  502    0  0.12978307048E+03 -0.58968803931E+02  0.32559907715E+03  0.35543737038E+03  0.00000000000E+00 0. -1.
         22    1    3    3    0    0 -0.49278191462E+01  0.69925024234E+02 -0.38133267767E+02  0.79799364197E+02  0.00000000000E+00 0.  1.
         22    1    3    3    0    0 -0.12706828848E+03  0.26250820617E+02 -0.21353206316E+01  0.12976908382E+03  0.00000000000E+00 0.  1.
</event>
<event>
 7    1  0.8792454E-005  0.1566461E+03  0.7818608E-02  0.1293641E+00
          2   -1    0    0  502    0  0.00000000000E+00  0.00000000000E+00  0.30882149073E+04  0.30882149073E+04  0.00000000000E+00 0. -1.
          1   -1    0    0  501    0 -0.00000000000E+00 -0.00000000000E+00 -0.44631104972E+02  0.44631104972E+02  0.00000000000E+00 0. -1.
         25    2    1    2    0    0 -0.44335652742E+02 -0.18145063159E+03  0.20691209100E+04  0.20812920980E+04  0.12500189988E+03 0.  0.
          2    1    1    2  501    0  0.75991218414E+02  0.13488767451E+03  0.12168083601E+03  0.19691514889E+03  0.00000000000E+00 0. -1.
          1    1    1    2  502    0 -0.31655565672E+02  0.46562957084E+02  0.85278205628E+03  0.85463876540E+03  0.00000000000E+00 0. -1.
         22    1    3    3    0    0 -0.52659344412E+02 -0.12374939188E+03  0.83209769281E+03  0.84289589448E+03  0.00000000000E+00 0. -1.
         22    1    3    3    0    0  0.83236916703E+01 -0.57701239709E+02  0.12370232172E+04  0.12383962035E+04  0.00000000000E+00 0. -1.
</event>
<event>
 7    1  0.8792454E-005  0.3126782E+03  0.7818608E-02  0.1116235E+00
          2   -1    0    0  502    0  0.00000000000E+00  0.00000000000E+00  0.12016027201E+04  0.12016027201E+04  0.00000000000E+00 0. -1.
          1   -1    0    0  501    0 -0.00000000000E+00 -0.00000000000E+00 -0.13864002220E+04  0.13864002220E+04  0.00000000000E+00 0. -1.
         25    2    1    2    0    0  0.21886884633E+03  0.35618349890E+03 -0.46114549921E+03  0.63485627314E+03  0.12496823326E+03 0.  0.
          2    1    1    2  501    0 -0.18659548551E+03 -0.47826479152E+02 -0.80526028090E+03  0.82797908628E+03  0.00000000000E+00 0. -1.
          1    1    1    2  502    0 -0.32273360817E+02 -0.30835701975E+03  0.10816082783E+04  0.11251675827E+04  0.00000000000E+00 0. -1.
         22    1    3    3    0    0  0.18743026271E+03  0.18970753050E+03 -0.27181169230E+03  0.38078950429E+03  0.00000000000E+00 0. -1.
         22    1    3    3    0    0  0.31438583620E+02  0.16647596840E+03 -0.18933380691E+03  0.25406676885E+03  0.00000000000E+00 0. -1.
</event>
<event>
 7    1  0.8792454E-005  0.1066795E+03  0.7818608E-02  0.1366886E+00
          2   -1    0    0  502    0  0.00000000000E+00  0.00000000000E+00  0.93967990864E+03  0.93967990864E+03  0.00000000000E+00 0. -1.
          1   -1    0    0  501    0 -0.00000000000E+00 -0.00000000000E+00 -0.11197105606E+03  0.11197105606E+03  0.00000000000E+00 0. -1.
         25    2    1    2    0    0  0.18279058964E+02 -0.69472912492E+02 -0.48774084241E+02  0.15219778156E+03  0.12499857540E+03 0.  0.
          2    1    1    2  501    0 -0.20018338612E+02 -0.38503518713E+02  0.51122274332E+02  0.67057749492E+02  0.00000000000E+00 0. -1.
          1    1    1    2  502    0  0.17392796481E+01  0.10797643120E+03  0.82536066249E+03  0.83239543366E+03  0.00000000000E+00 0. -1.
         22    1    3    3    0    0  0.25509163996E+02  0.13096045477E+02 -0.61957291491E+02  0.68271002804E+02  0.00000000000E+00 0.  1.
         22    1    3    3    0    0 -0.72301050317E+01 -0.82568957968E+02  0.13183207251E+02  0.83926778755E+02  0.00000000000E+00 0.  1.
</event>
<event>
 7    1  0.8792454E-005  0.4204350E+03  0.7818608E-02  0.1038258E+00
          2   -1    0    0  502    0  0.00000000000E+00  0.00000000000E+00  0.18520823281E+04  0.18520823281E+04  0.00000000000E+00 0. -1.
          1   -1    0    0  501    0 -0.00000000000E+00 -0.00000000000E+00 -0.58223147025E+03  0.58223147025E+03  0.00000000000E+00 0. -1.
         25    2    1    2    0    0 -0.19973561346E+03 -0.33212210276E+03  0.76718427792E+03  0.86856021435E+03  0.12500289296E+03 0.  0.
          2    1    1    2  501    0 -0.35046203624E+03  0.23225410233E+03 -0.34934238877E+03  0.54663123903E+03  0.00000000000E+00 0. -1.
          1    1    1    2  502    0  0.55019764970E+03  0.99868000435E+02  0.85200896871E+03  0.10191223450E+04  0.00000000000E+00 0. -1.
         22    1    3    3    0    0 -0.88406043275E+02 -0.12606599120E+03  0.44019275118E+03  0.46634528068E+03  0.00000000000E+00 0.  1.
         22    1    3    3    0    0 -0.11132957018E+03 -0.20605611156E+03  0.32699152674E+03  0.40221493367E+03  0.00000000000E+00 0.  1.
</event>
<event>
 7    1  0.1358177E-004  0.1442865E+03  0.7818608E-02  0.1240117E+00
          2   -1    0    0  502    0  0.00000000000E+00  0.00000000000E+00  0.14267195829E+04  0.14267195829E+04  0.00000000000E+00 0. -1.
          1   -1    0    0  501    0 -0.00000000000E+00 -0.00000000000E+00 -0.20513881515E+04  0.20513881515E+04  0.00000000000E+00 0. -1.
         25    2    1    2    0    0  0.92134390063E+02 -0.21523775878E+03 -0.17469292606E+03  0.31773916229E+03  0.12499807278E+03 0.  0.
          2    1    1    2  501    0 -0.37447812843E+01  0.10279174625E+03 -0.17999259083E+04  0.18028625688E+04  0.00000000000E+00 0. -1.
          1    1    1    2  502    0 -0.88389608779E+02  0.11244601253E+03  0.13499502659E+04  0.13575060033E+04  0.00000000000E+00 0. -1.
         22    1    3    3    0    0  0.37916276579E+02 -0.66623953849E+02 -0.13402704855E+03  0.15440092292E+03  0.00000000000E+00 0. -1.
         22    1    3    3    0    0  0.54218113484E+02 -0.14861380493E+03 -0.40665877507E+02  0.16333823936E+03  0.00000000000E+00 0. -1.
</event>
<event>
 7    1  0.8792454E-005  0.3894084E+03  0.7818608E-02  0.1299997E+00
          2   -1    0    0  502    0  0.00000000000E+00  0.00000000000E+00  0.17404627170E+04  0.17404627170E+04  0.00000000000E+00 0. -1.
          1   -1    0    0  501    0 -0.00000000000E+00 -0.00000000000E+00 -0.10882890458E+03  0.10882890458E+03  0.00000000000E+00 0. -1.
         25    2    1    2    0    0  0.25361330709E+03  0.29401876498E+03  0.51389480229E+03  0.65611054542E+03  0.12500574502E+03 0.  0.
          2    1    1    2  501    0 -0.27153904828E+03 -0.28241410741E+03  0.10095464958E+04  0.10829013390E+04  0.00000000000E+00 0. -1.
          1    1    1    2  502    0  0.17925741192E+02 -0.11604657573E+02  0.10819251428E+03  0.11027973712E+03  0.00000000000E+00 0. -1.
         22    1    3    3    0    0  0.19271184493E+03  0.28493352633E+03  0.40841829553E+03  0.53397609846E+03  0.00000000000E+00 0.  1.
         22    1    3    3    0    0  0.60901462159E+02  0.90852386509E+01  0.10547650676E+03  0.12213444695E+03  0.00000000000E+00 0.  1.
</event>
<event>
 7    1  0.8792454E-005  0.1254832E+03  0.7818608E-02  0.1285895E+00
          2   -1    0    0  502    0  0.00000000000E+00  0.00000000000E+00  0.32426030087E+03  0.32426030087E+03  0.00000000000E+00 0. -1.
          1   -1    0    0  501    0 -0.00000000000E+00 -0.00000000000E+00 -0.83220247490E+03  0.83220247490E+03  0.00000000000E+00 0. -1.
         25    2    1    2    0    0 -0.46812123129E+02  0.18120954712E+03 -0.31160425799E+03  0.38438350366E+03  0.12500075778E+03 0.  0.
          2    1    1    2  501    0  0.13436246775E+02 -0.11340123265E+03 -0.47232379797E+03  0.48593224057E+03  0.00000000000E+00 0. -1.
          1    1    1    2  502    0  0.33375876354E+02 -0.67808314473E+02  0.27598588194E+03  0.28614703155E+03  0.00000000000E+00 0. -1.
         22    1    3    3    0    0  0.25577008588E+02  0.29486161625E+02 -0.11995765831E+02  0.40835223687E+02  0.00000000000E+00 0.  1.
         22    1    3    3    0    0 -0.72389131717E+02  0.15172338550E+03 -0.29960849216E+03  0.34354827997E+03  0.00000000000E+00 0.  1.
</event>
<event>
 7    1  0.8792454E-005  0.3251316E+03  0.7818608E-02  0.1187993E+00
          2   -1    0    0  502    0  0.00000000000E+00  0.00000000000E+00  0.89157854821E+03  0.89157854821E+03  0.00000000000E+00 0. -1.
          1   -1    0    0  501    0 -0.00000000000E+00 -0.00000000000E+00 -0.16379595729E+04  0.16379595729E+04  0.00000000000E+00 0. -1.
         25    2    1    2    0    0  0.37192732448E+03  0.12734362733E+03 -0.79112577913E+02  0.42003550504E+03  0.12499876557E+03 0.  0.
          2    1    1    2  501    0 -0.78691642143E+02 -0.10228561995E+02 -0.13526013283E+04  0.13549270650E+04  0.00000000000E+00 0. -1.
          1    1    1    2  502    0 -0.29323568233E+03 -0.11711506533E+03  0.68533288150E+03  0.75457555115E+03  0.00000000000E+00 0. -1.
         22    1    3    3    0    0 -0.57696334290E+01 -0.42800992293E+01 -0.12690925274E+02  0.14583123932E+02  0.00000000000E+00 0. -1.
         22    1    3    3    0    0  0.37769695790E+03  0.13162372656E+03 -0.66421652640E+02  0.40545238110E+03  0.00000000000E+00 0. -1.
</event>
<event>
 7    1  0.8792454E-005  0.2113643E+03  0.7818608E-02  0.1189418E+00
          2   -1    0    0  502    0  0.00000000000E+00  0.00000000000E+00  0.30689430804E+03  0.30689430804E+03  0.00000000000E+00 0. -1.
          1   -1    0    0  501    0 -0.00000000000E+00 -0.00000000000E+00 -0.75658747777E+03  0.75658747777E+03  0.00000000000E+00 0. -1.
         25    2    1    2    0    0  0.27703992144E+03  0.88349147164E+02 -0.27399169640E+03  0.41863321736E+03  0.12500252440E+03 0.  0.
          2    1    1    2  501    0 -0.74414458490E+02 -0.94337866375E+02 -0.35464904726E+03  0.37445038574E+03  0.00000000000E+00 0. -1.
          1    1    1    2  502    0 -0.20262546295E+03  0.59887192113E+01  0.17894757393E+03  0.27039818270E+03  0.00000000000E+00 0. -1.
         22    1    3    3    0    0  0.23253743991E+03  0.11774740093E+03 -0.20604830717E+03  0.33225594995E+03  0.00000000000E+00 0.  1.
         22    1    3    3    0    0  0.44502481525E+02 -0.29398253764E+02 -0.67943389226E+02  0.86377267413E+02  0.00000000000E+00 0.  1.
</event>
<event>
 7    1  0.8792454E-005  0.1258472E+03  0.7818608E-02  0.1318832E+00
          2   -1    0    0  502    0  0.00000000000E+00  0.00000000000E+00  0.20710091619E+03  0.20710091619E+03  0.00000000000E+00 0. -1.
          1   -1    0    0  501    0 -0.00000000000E+00 -0.00000000000E+00 -0.42057824456E+03  0.42057824456E+03  0.00000000000E+00 0. -1.
         25    2    1    2    0    0  0.10003646871E+03 -0.14000172548E+02  0.14103182443E+03  0.21381785769E+03  0.12499920344E+03 0.  0.
          2    1    1    2  501    0 -0.10788499617E+03  0.69130092320E+02 -0.32809605489E+03  0.35222885074E+03  0.00000000000E+00 0. -1.
          1    1    1    2  502    0  0.78485274535E+01 -0.55129919772E+02 -0.26413097908E+02  0.61632452315E+02  0.00000000000E+00 0. -1.
         22    1    3    3    0    0 -0.22830058390E+02  0.52439673909E+01 -0.28959567648E+01  0.23602909262E+02  0.00000000000E+00 0. -1.
         22    1    3    3    0    0  0.12286652710E+03 -0.19244139939E+02  0.14392778120E+03  0.19021494843E+03  0.00000000000E+00 0. -1.
</event>
<event>
 7    1  0.8792454E-005  0.1287133E+03  0.7818608E-02  0.1308714E+00
          2   -1    0    0  502    0  0.00000000000E+00  0.00000000000E+00  0.87590250229E+03  0.87590250229E+03  0.00000000000E+00 0. -1.
          1   -1    0    0  501    0 -0.00000000000E+00 -0.00000000000E+00 -0.90190654400E+02  0.90190654400E+02  0.00000000000E+00 0. -1.
         25    2    1    2    0    0 -0.14535404396E+03  0.11187638200E+03  0.73203167166E+03  0.76493752204E+03  0.12495967898E+03 0.  0.
          2    1    1    2  501    0  0.10084923024E+03 -0.72160612013E+02  0.49057675292E+01  0.12410393919E+03  0.00000000000E+00 0. -1.
          1    1    1    2  502    0  0.44504813715E+02 -0.39715769985E+02  0.48774408706E+02  0.77051695464E+02  0.00000000000E+00 0. -1.
         22    1    3    3    0    0 -0.11685107120E+03  0.11239208182E+03  0.39891777539E+03  0.43060601995E+03  0.00000000000E+00 0.  1.
         22    1    3    3    0    0 -0.28502972763E+02 -0.51569982433E+00  0.33311389627E+03  0.33433150209E+03  0.00000000000E+00 0.  1.
</event>
<event>
 7    1  0.8792454E-005  0.5977939E+03  0.7818608E-02  0.1034050E+00
          2   -1    0    0  502    0  0.00000000000E+00  0.00000000000E+00  0.24710090530E+04  0.24710090530E+04  0.00000000000E+00 0. -1.
          1   -1    0    0  501    0 -0.00000000000E+00 -0.00000000000E+00 -0.23278561362E+04  0.23278561362E+04  0.00000000000E+00 0. -1.
         25    2    1    2    0    0 -0.19995501957E+02 -0.60429499717E+03 -0.10939707353E+04  0.12561705875E+04  0.12498124448E+03 0.  0.
          2    1    1    2  501    0  0.32212619909E+03  0.54224013320E+03 -0.10554107906E+04  0.12295046105E+04  0.00000000000E+00 0. -1.
          1    1    1    2  502    0 -0.30213069713E+03  0.62054863973E+02  0.22925344428E+04  0.23131899913E+04  0.00000000000E+00 0. -1.
         22    1    3    3    0    0  0.74228150375E+01 -0.53840763549E+03 -0.10199009512E+04  0.11533151479E+04  0.00000000000E+00 0. -1.
         22    1    3    3    0    0 -0.27418316995E+02 -0.65887361686E+02 -0.74069784161E+02  0.10285543963E+03  0.00000000000E+00 0. -1.
</event>
<event>
 7    1  0.8792454E-005  0.1405840E+03  0.7818608E-02  0.1266146E+00
          2   -1    0    0  502    0  0.00000000000E+00  0.00000000000E+00  0.93020783708E+02  0.93020783708E+02  0.00000000000E+00 0. -1.
          1   -1    0    0  501    0 -0.00000000000E+00 -0.00000000000E+00 -0.35362903120E+04  0.35362903120E+04  0.00000000000E+00 0. -1.
         25    2    1    2    0    0  0.81364120966E+02 -0.10679308700E+03 -0.61987472263E+03  0.64644787820E+03  0.12500121544E+03 0.  0.
          2    1    1    2  501    0 -0.88135006427E+01  0.14393181643E+03 -0.28800147963E+04  0.28836225954E+04  0.00000000000E+00 0. -1.
          1    1    1    2  502    0 -0.72550620323E+02 -0.37138729426E+02  0.56619990674E+02  0.99240622109E+02  0.00000000000E+00 0. -1.
         22    1    3    3    0    0  0.44833117072E+02  0.14632263563E+02 -0.89946751412E+02  0.10156047269E+03  0.00000000000E+00 0.  1.
         22    1    3    3    0    0  0.36531003895E+02 -0.12142535057E+03 -0.52992797122E+03  0.54488740551E+03  0.00000000000E+00 0.  1.
</event>
<event>
 7    1  0.8792454E-005  0.4267585E+03  0.7818608E-02  0.1180735E+00
          2   -1    0    0  502    0  0.00000000000E+00  0.00000000000E+00  0.31331012871E+04  0.31331012871E+04  0.00000000000E+00 0. -1.
          1   -1    0    0  501    0 -0.00000000000E+00 -0.00000000000E+00 -0.17901498440E+03  0.17901498440E+03  0.00000000000E+00 0. -1.
         25    2    1    2    0    0 -0.42165182233E+03  0.16222622933E+03  0.20645129108E+04  0.21170608288E+04  0.12500154115E+03 0.  0.
          2    1    1    2  501    0  0.65542781363E+02  0.12767012861E+01 -0.10628591397E+03  0.12487666581E+03  0.00000000000E+00 0. -1.
          1    1    1    2  502    0  0.35610904097E+03 -0.16350293061E+03  0.99585930595E+03  0.10701787769E+04  0.00000000000E+00 0. -1.
         22    1    3    3    0    0 -0.11147496468E+03 -0.78468623264E+01  0.39629729018E+03  0.41175208950E+03  0.00000000000E+00 0.  1.
         22    1    3    3    0    0 -0.31017685765E+03  0.17007309165E+03  0.16682156206E+04  0.17053087393E+04  0.00000000000E+00 0.  1.
</event>
<event>
 7    1  0.8792454E-005  0.7188120E+03  0.7818608E-02  0.1119267E+00
          2   -1    0    0  502    0  0.00000000000E+00  0.00000000000E+00  0.14697586034E+04  0.14697586034E+04  0.00000000000E+00 0. -1.
          1   -1    0    0  501    0 -0.00000000000E+00 -0.00000000000E+00 -0.59390551297E+03  0.59390551297E+03  0.00000000000E+00 0. -1.
         25    2    1    2    0    0  0.19440172252E+03 -0.73720518883E+03  0.56608680881E+03  0.95777946031E+03  0.12499479719E+03 0.  0.
          2    1    1    2  501    0 -0.15994872759E+02  0.79059685005E+02 -0.22518221270E+03  0.23919301550E+03  0.00000000000E+00 0. -1.
          1    1    1    2  502    0 -0.17840684976E+03  0.65814550383E+03  0.53494849433E+03  0.86669164057E+03  0.00000000000E+00 0. -1.
         22    1    3    3    0    0 -0.65790648665E+01 -0.12596212328E+03  0.12565097822E+03  0.17803906572E+03  0.00000000000E+00 0.  1.
         22    1    3    3    0    0  0.20098078739E+03 -0.61124306555E+03  0.44043583059E+03  0.77974039459E+03  0.00000000000E+00 0.  1.
</event>
<event>
 7    1  0.8792454E-005  0.1992820E+03  0.7818608E-02  0.1190434E+00
          2   -1    0    0  502    0  0.00000000000E+00  0.00000000000E+00  0.90039817172E+03  0.90039817172E+03  0.00000000000E+00 0. -1.
          1   -1    0    0  501    0 -0.00000000000E+00 -0.00000000000E+00 -0.91700837904E+03  0.91700837904E+03  0.00000000000E+00 0. -1.
         25    2    1    2    0    0  0.15843532377E+03  0.18912055324E+03  0.39964488920E+03  0.48601369658E+03  0.12499976130E+03 0.  0.
          2    1    1    2  501    0 -0.18747103430E+03 -0.66493459957E+02 -0.85348853094E+03  0.87636147871E+03  0.00000000000E+00 0. -1.
          1    1    1    2  502    0  0.29035710532E+02 -0.12262709328E+03  0.43723343441E+03  0.45503137547E+03  0.00000000000E+00 0. -1.
         22    1    3    3    0    0  0.94070499498E+01 -0.13150886016E+02  0.29288132557E+01  0.16432173893E+02  0.00000000000E+00 0.  1.
         22    1    3    3    0    0  0.14902827382E+03  0.20227143925E+03  0.39671607595E+03  0.46958152269E+03  0.00000000000E+00 0.  1.
</event>
<event>
 7    1  0.8792454E-005  0.7993700E+02  0.7818608E-02  0.1405710E+00
          2   -1    0    0  502    0  0.00000000000E+00  0.00000000000E+00  0.59143397483E+03  0.59143397483E+03  0.00000000000E+00 0. -1.
          1   -1    0    0  501    0 -0.00000000000E+00 -0.00000000000E+00 -0.19656598389E+03  0.19656598389E+03  0.00000000000E+00 0. -1.
         25    2    1    2    0    0  0.83729157392E+02 -0.19176051604E+02  0.32818316467E+03  0.36153511922E+03  0.12500064040E+03 0.  0.
          2    1    1    2  501    0 -0.59331177513E+02  0.53754023115E+02 -0.16900333844E+03  0.18700751864E+03  0.00000000000E+00 0. -1.
          1    1    1    2  502    0 -0.24397979879E+02 -0.34577971511E+02  0.23568816470E+03  0.23945732087E+03  0.00000000000E+00 0. -1.
         22    1    3    3    0    0 -0.38927201632E+01  0.16309145855E+02 -0.30792726703E+01  0.17047681044E+02  0.00000000000E+00 0.  1.
         22    1    3    3    0    0  0.87621877555E+02 -0.35485197459E+02  0.33126243734E+03  0.34448743817E+03  0.00000000000E+00 0.  1.
</event>
<event>
 7    1  0.8792454E-005  0.1486226E+03  0.7818608E-02  0.1223256E+00
          2   -1    0    0  502    0  0.00000000000E+00  0.00000000000E+00  0.12222054424E+04  0.12222054424E+04  0.00000000000E+00 0. -1.
          1   -1    0    0  501    0 -0.00000000000E+00 -0.00000000000E+00 -0.21893157172E+04  0.21893157172E+04  0.00000000000E+00 0. -1.
         25    2    1    2    0    0 -0.12162432995E+03 -0.67827936203E+02  0.27400911388E+03  0.33179155360E+03  0.12494612433E+03 0.  0.
          2    1    1    2  501    0  0.14066908942E+03 -0.49425251248E+02 -0.21539992204E+04  0.21591533734E+04  0.00000000000E+00 0. -1.
          1    1    1    2  502    0 -0.19044759465E+02  0.11725318745E+03  0.91287983176E+03  0.92057623262E+03  0.00000000000E+00 0. -1.
         22    1    3    3    0    0  0.15768696455E+02 -0.21418485208E+02  0.63097331678E+01  0.27335252498E+02  0.00000000000E+00 0. -1.
         22    1    3    3    0    0 -0.13739302641E+03 -0.46409450995E+02  0.26769938071E+03  0.30445630110E+03  0.00000000000E+00 0. -1.
</event>
<event>
 7    1  0.8792454E-005  0.9833381E+02  0.7818608E-02  0.1294887E+00
          2   -1    0    0  502    0  0.00000000000E+00  0.00000000000E+00  0.17349068065E+03  0.17349068065E+03  0.00000000000E+00 0. -1.
          1   -1    0    0  501    0 -0.00000000000E+00 -0.00000000000E+00 -0.21178474311E+03  0.21178474311E+03  0.00000000000E+00 0. -1.
         25    2    1    2    0    0  0.87088252631E+02 -0.65110383926E+02 -0.62818772565E+02  0.17718461507E+03  0.12499785514E+03 0.  0.
          2    1    1    2  501    0 -0.79932721378E+02 -0.38356354872E+02 -0.26458900304E+02  0.92523096097E+02  0.00000000000E+00 0. -1.
          1    1    1    2  502    0 -0.71555312532E+01  0.10346673880E+03  0.50983610406E+02  0.11556771260E+03  0.00000000000E+00 0. -1.
         22    1    3    3    0    0  0.99999704547E+02 -0.19170098055E+02 -0.76711042824E+02  0.12748340151E+03  0.00000000000E+00 0.  1.
         22    1    3    3    0    0 -0.12911451916E+02 -0.45940285871E+02  0.13892270258E+02  0.49701213561E+02  0.00000000000E+00 0.  1.
</event>
<event>
 7    1  0.8792454E-005  0.1265492E+03  0.7818608E-02  0.1277980E+00
          2   -1    0    0  502    0  0.00000000000E+00  0.00000000000E+00  0.10180329825E+04  0.10180329825E+04  0.00000000000E+00 0. -1.
          1   -1    0    0  501    0 -0.00000000000E+00 -0.00000000000E+00 -0.17760286046E+04  0.17760286046E+04  0.00000000000E+00 0. -1.
         25    2    1    2    0    0  0.98141948514E+02 -0.25044829389E+02  0.20480955169E+03  0.26044285727E+03  0.12499777558E+03 0.  0.
          2    1    1    2  501    0  0.27412798158E+02  0.75990425576E+02 -0.17414246725E+04  0.17432974205E+04  0.00000000000E+00 0. -1.
          1    1    1    2  502    0 -0.12555474667E+03 -0.50945596187E+02  0.77861949872E+03  0.79032130932E+03  0.00000000000E+00 0. -1.
         22    1    3    3    0    0  0.70476506939E+02 -0.64157099080E+02  0.18596101098E+03  0.20896068768E+03  0.00000000000E+00 0.  1.
         22    1    3    3    0    0  0.27665441575E+02  0.39112269691E+02  0.18848540714E+02  0.51482169583E+02  0.00000000000E+00 0.  1.
</event>
<event>
 7    1  0.8792454E-005  0.2198543E+03  0.7818608E-02  0.1185441E+00
          2   -1    0    0  502    0  0.00000000000E+00  0.00000000000E+00  0.11129327484E+04  0.11129327484E+04  0.00000000000E+00 0. -1.
          1   -1    0    0  501    0 -0.00000000000E+00 -0.00000000000E+00 -0.30686978405E+03  0.30686978405E+03  0.00000000000E+00 0. -1.
         25    2    1    2    0    0 -0.14258635225E+03  0.12937418656E+03  0.55394333040E+03  0.59962193420E+03  0.12499881073E+03 0.  0.
          2    1    1    2  501    0  0.22106959404E+03 -0.37639017915E+02 -0.23115333088E+03  0.32205639794E+03  0.00000000000E+00 0. -1.
          1    1    1    2  502    0 -0.78483241794E+02 -0.91735168643E+02  0.48327296486E+03  0.49812420035E+03  0.00000000000E+00 0. -1.
         22    1    3    3    0    0 -0.78607522177E+02  0.10788686244E+02  0.10965474819E+03  0.13535029403E+03  0.00000000000E+00 0. -1.
         22    1    3    3    0    0 -0.63978830068E+02  0.11858550031E+03  0.44428858221E+03  0.46427164017E+03  0.00000000000E+00 0. -1.
</event>
<event>
 7    1  0.8792454E-005  0.1062580E+03  0.7818608E-02  0.1275601E+00
          2   -1    0    0  502    0  0.00000000000E+00  0.00000000000E+00  0.15423427087E+04  0.15423427087E+04  0.00000000000E+00 0. -1.
          1   -1    0    0  501    0 -0.00000000000E+00 -0.00000000000E+00 -0.24532501786E+03  0.24532501786E+03  0.00000000000E+00 0. -1.
         25    2    1    2    0    0  0.11521839123E+03  0.16680553925E+03  0.34343142093E+02  0.24063078329E+03  0.12499742739E+03 0.  0.
          2    1    1    2  501    0 -0.53066628339E+02 -0.82893594034E+02 -0.12294439055E+03  0.15748885085E+03  0.00000000000E+00 0. -1.
          1    1    1    2  502    0 -0.62151762887E+02 -0.83911945219E+02  0.13856189393E+04  0.13895480924E+04  0.00000000000E+00 0. -1.
         22    1    3    3    0    0  0.91659834148E+01  0.12053691465E+03  0.31359320206E+02  0.12488622826E+03  0.00000000000E+00 0. -1.
         22    1    3    3    0    0  0.10605240781E+03  0.46268624600E+02  0.29838218868E+01  0.11574455503E+03  0.00000000000E+00 0. -1.
</event>
<event>
 7    1  0.8792454E-005  0.5995918E+02  0.7818608E-02  0.1461283E+00
          2   -1    0    0  502    0  0.00000000000E+00  0.00000000000E+00  0.15823124655E+03  0.15823124655E+03  0.00000000000E+00 0. -1.
          1   -1    0    0  501    0 -0.00000000000E+00 -0.00000000000E+00 -0.11328278285E+03  0.11328278285E+03  0.00000000000E+00 0. -1.
         25    2    1    2    0    0  0.58815109334E+02 -0.37414306350E+02  0.80823686424E+02  0.16436503771E+03  0.12499739969E+03 0.  0.
          2    1    1    2  501    0 -0.59717294830E+02  0.33008640161E+00 -0.69737545015E+01  0.60124017752E+02  0.00000000000E+00 0. -1.
          1    1    1    2  502    0  0.90218549557E+00  0.37084219948E+02 -0.28901468223E+02  0.47024973932E+02  0.00000000000E+00 0. -1.
         22    1    3    3    0    0  0.57509788539E+02 -0.33761529246E+02  0.11340181657E+03  0.13155678864E+03  0.00000000000E+00 0. -1.
         22    1    3    3    0    0  0.13053207953E+01 -0.36527771044E+01 -0.32578130150E+02  0.32808249070E+02  0.00000000000E+00 0. -1.
</event>
<event>
 7    1  0.8792454E-005  0.3914257E+03  0.7818608E-02  0.1208041E+00
          2   -1    0    0  502    0  0.00000000000E+00  0.00000000000E+00  0.28031599141E+03  0.28031599141E+03  0.00000000000E+00 0. -1.
          1   -1    0    0  501    0 -0.00000000000E+00 -0.00000000000E+00 -0.25186923470E+04  0.25186923470E+04  0.00000000000E+00 0. -1.
         25    2    1    2    0    0  0.39248232478E+03  0.58772012248E+02 -0.88261679267E+03  0.97577364966E+03  0.12500115197E+03 0.  0.
          2    1    1    2  501    0 -0.38978281927E+03 -0.58628046654E+01 -0.15622006068E+04  0.16101042682E+04  0.00000000000E+00 0. -1.
          1    1    1    2  502    0 -0.26995055022E+01 -0.52909207583E+02  0.20644104385E+03  0.21313042055E+03  0.00000000000E+00 0. -1.
         22    1    3    3    0    0  0.16257255778E+03  0.63486430059E+02 -0.49749828659E+03  0.52722377460E+03  0.00000000000E+00 0. -1.
         22    1    3    3    0    0  0.22990976699E+03 -0.47144178108E+01 -0.38511850608E+03  0.44854987506E+03  0.00000000000E+00 0. -1.
</event>
<event>
 7    1  0.8792454E-005  0.1613335E+03  0.7818608E-02  0.1300752E+00
          2   -1    0    0  502    0  0.00000000000E+00  0.00000000000E+00  0.30898376821E+04  0.30898376821E+04  0.00000000000E+00 0. -1.
          1   -1    0    0  501    0 -0.00000000000E+00 -0.00000000000E+00 -0.26981772701E+02  0.26981772701E+02  0.00000000000E+00 0. -1.
         25    2    1    2    0    0 -0.13504698849E+03 -0.69873509611E+02  0.12996087454E+04  0.13144307112E+04  0.12500082785E+03 0.  0.
          2    1    1    2  501    0  0.14854222948E+02 -0.48982356681E+02  0.26881491215E+02  0.57814650179E+02  0.00000000000E+00 0. -1.
          1    1    1    2  502    0  0.12019276554E+03  0.11885586629E+03  0.17363656729E+04  0.17445740935E+04  0.00000000000E+00 0. -1.
         22    1    3    3    0    0 -0.10402433631E+03 -0.92375928556E+02  0.70543000459E+03  0.71901729194E+03  0.00000000000E+00 0. -1.
         22    1    3    3    0    0 -0.31022652179E+02  0.22502418944E+02  0.59417874078E+03  0.59541341923E+03  0.00000000000E+00 0. -1.
</event>
<event>
 7    1  0.8792454E-005  0.3191247E+03  0.7818608E-02  0.1170341E+00
          2   -1    0    0  502    0  0.00000000000E+00  0.00000000000E+00  0.77770035646E+03  0.77770035646E+03  0.00000000000E+00 0. -1.
          1   -1    0    0  501    0 -0.00000000000E+00 -0.00000000000E+00 -0.93376829761E+03  0.93376829761E+03  0.00000000000E+00 0. -1.
         25    2    1    2    0    0 -0.33822172661E+03  0.13502085100E+03  0.40350410196E+03  0.55773196452E+03  0.12499926954E+03 0.  0.
          2    1    1    2  501    0  0.62612378957E+02 -0.76192256420E+02 -0.78603835792E+03  0.79220065013E+03  0.00000000000E+00 0. -1.
          1    1    1    2  502    0  0.27560934766E+03 -0.58828594583E+02  0.22646631482E+03  0.36153603942E+03  0.00000000000E+00 0. -1.
         22    1    3    3    0    0  0.74994196819E+01  0.13440731801E+02  0.46518963827E+01  0.16079014487E+02  0.00000000000E+00 0. -1.
         22    1    3    3    0    0 -0.34572114630E+03  0.12158011920E+03  0.39885220558E+03  0.54165295003E+03  0.00000000000E+00 0. -1.
</event>
<event>
 7    1  0.8792454E-005  0.2812904E+03  0.7818608E-02  0.1231051E+00
          2   -1    0    0  502    0  0.00000000000E+00  0.00000000000E+00  0.90568849029E+03  0.90568849029E+03  0.00000000000E+00 0. -1.
          1   -1    0    0  501    0 -0.00000000000E+00 -0.00000000000E+00 -0.22218076320E+03  0.22218076320E+03  0.00000000000E+00 0. -1.
         25    2    1    2    0    0 -0.27723158043E+03 -0.75782445600E+02  0.49018494395E+03  0.58181318882E+03  0.12499991660E+03 0.  0.
          2    1    1    2  501    0  0.29875134730E+02 -0.49583356320E+02 -0.11659980896E+03  0.13017890900E+03  0.00000000000E+00 0. -1.
          1    1    1    2  502    0  0.24735644570E+03  0.12536580192E+03  0.30992259209E+03  0.41587715567E+03  0.00000000000E+00 0. -1.
         22    1    3    3    0    0 -0.14344920875E+02 -0.32598565782E+02  0.18599317163E+02  0.40179321111E+02  0.00000000000E+00 0. -1.
         22    1    3    3    0    0 -0.26288665956E+03 -0.43183879818E+02  0.47158562679E+03  0.54163386771E+03  0.00000000000E+00 0. -1.
</event>
<event>
 7    1  0.8792454E-005  0.2558962E+03  0.7818608E-02  0.1113090E+00
          2   -1    0    0  502    0  0.00000000000E+00  0.00000000000E+00  0.86235031029E+03  0.86235031029E+03  0.00000000000E+00 0. -1.
          1   -1    0    0  501    0 -0.00000000000E+00 -0.00000000000E+00 -0.48958489065E+03  0.48958489065E+03  0.00000000000E+00 0. -1.
         25    2    1    2    0    0 -0.11930971615E+02  0.16431246606E+03  0.13726424207E+03  0.24818641457E+03  0.12495635094E+03 0.  0.
          2    1    1    2  501    0 -0.24361461665E+03 -0.15092230353E+03 -0.35732749158E+03  0.45804864303E+03  0.00000000000E+00 0. -1.
          1    1    1    2  502    0  0.25554558826E+03 -0.13390162537E+02  0.59282866916E+03  0.64570014334E+03  0.00000000000E+00 0. -1.
         22    1    3    3    0    0 -0.38466421040E+01  0.18304143460E+03  0.13538313401E+03  0.22770058500E+03  0.00000000000E+00 0.  1.
         22    1    3    3    0    0 -0.80843295111E+01 -0.18728968532E+02  0.18811080586E+01  0.20485829577E+02  0.00000000000E+00 0.  1.
</event>
<event>
 7    1  0.8792454E-005  0.7006594E+03  0.7818608E-02  0.1074311E+00
          2   -1    0    0  502    0  0.00000000000E+00  0.00000000000E+00  0.14520157050E+04  0.14520157050E+04  0.00000000000E+00 0. -1.
          1   -1    0    0  501    0 -0.00000000000E+00 -0.00000000000E+00 -0.88111041831E+03  0.88111041831E+03  0.00000000000E+00 0. -1.
         25    2    1    2    0    0  0.54500250737E+03  0.55459480431E+03  0.10848441175E+02  0.78761931824E+03  0.12499348698E+03 0.  0.
          2    1    1    2  501    0 -0.39909480025E+03 -0.52523565655E+03 -0.26222300775E+03  0.70986622704E+03  0.00000000000E+00 0. -1.
          1    1    1    2  502    0 -0.14590770712E+03 -0.29359147757E+02  0.82227985325E+03  0.83564057801E+03  0.00000000000E+00 0. -1.
         22    1    3    3    0    0  0.11948173644E+03  0.58244099198E+02  0.15477927405E+02  0.13382012805E+03  0.00000000000E+00 0. -1.
         22    1    3    3    0    0  0.42552077093E+03  0.49635070511E+03 -0.46294862302E+01  0.65379919020E+03  0.00000000000E+00 0. -1.
</event>
<event>
 7    1  0.8792454E-005  0.1475723E+03  0.7818608E-02  0.1266838E+00
          2   -1    0    0  502    0  0.00000000000E+00  0.00000000000E+00  0.93267499280E+03  0.93267499280E+03  0.00000000000E+00 0. -1.
          1   -1    0    0  501    0 -0.00000000000E+00 -0.00000000000E+00 -0.86631294247E+02  0.86631294247E+02  0.00000000000E+00 0. -1.
         25    2    1    2    0    0 -0.15636333236E+03 -0.10396840401E+03  0.12484913939E+03  0.25781934491E+03  0.12499834506E+03 0.  0.
          2    1    1    2  501    0  0.90158146729E+02  0.64408480682E+02  0.15766865968E+03  0.19270793977E+03  0.00000000000E+00 0. -1.
          1    1    1    2  502    0  0.66205185634E+02  0.39559923325E+02  0.56352589949E+03  0.56877900237E+03  0.00000000000E+00 0. -1.
         22    1    3    3    0    0 -0.26489226766E+02 -0.84927382388E+02  0.23585779675E+02  0.92036016954E+02  0.00000000000E+00 0.  1.
         22    1    3    3    0    0 -0.12987410560E+03 -0.19041021619E+02  0.10126335971E+03  0.16578332796E+03  0.00000000000E+00 0.  1.
</event>
<event>
 7    1  0.8792454E-005  0.1159460E+03  0.7818608E-02  0.1259708E+00
          2   -1    0    0  502    0  0.00000000000E+00  0.00000000000E+00  0.35513058900E+03  0.35513058900E+03  0.00000000000E+00 0. -1.
          1   -1    0    0  501    0 -0.00000000000E+00 -0.00000000000E+00 -0.86764430138E+03  0.86764430138E+03  0.00000000000E+00 0. -1.
         25    2    1    2    0    0 -0.89988273471E+02  0.22102992969E+02 -0.17342711260E+03  0.23297495508E+03  0.12495573075E+03 0.  0.
          2    1    1    2  501    0  0.48053092677E+02 -0.11863362835E+03 -0.64951969837E+03  0.66201123560E+03  0.00000000000E+00 0. -1.
          1    1    1    2  502    0  0.41935180794E+02  0.96530635385E+02  0.31043309858E+03  0.32778869970E+03  0.00000000000E+00 0. -1.
         22    1    3    3    0    0 -0.11883157141E+03  0.24694363668E+02 -0.11238641145E+03  0.16541299658E+03  0.00000000000E+00 0. -1.
         22    1    3    3    0    0  0.28843297940E+02 -0.25913706994E+01 -0.61040701151E+02  0.67561958491E+02  0.00000000000E+00 0. -1.
</event>
<event>
 7    1  0.8792454E-005  0.5050722E+03  0.7818608E-02  0.1193041E+00
          2   -1    0    0  502    0  0.00000000000E+00  0.00000000000E+00  0.46068660408E+03  0.46068660408E+03  0.00000000000E+00 0. -1.
          1   -1    0    0  501    0 -0.00000000000E+00 -0.00000000000E+00 -0.15740064251E+04  0.15740064251E+04  0.00000000000E+00 0. -1.
         25    2    1    2    0    0 -0.50607931068E+03  0.90541138905E+02 -0.58834292062E+03  0.79125529838E+03  0.12499435360E+03 0.  0.
          2    1    1    2  501    0  0.48179397604E+03 -0.13230802271E+03 -0.81144223941E+03  0.95292673177E+03  0.00000000000E+00 0. -1.
          1    1    1    2  502    0  0.24285334641E+02  0.41766883810E+02  0.28646533905E+03  0.29051099900E+03  0.00000000000E+00 0. -1.
         22    1    3    3    0    0 -0.48335050241E+03  0.56085957241E+02 -0.55569947058E+03  0.73863065491E+03  0.00000000000E+00 0. -1.
         22    1    3    3    0    0 -0.22728808277E+02  0.34455181665E+02 -0.32643450042E+02  0.52624643466E+02  0.00000000000E+00 0. -1.
</event>
<event>
 7    1  0.8792454E-005  0.2455126E+03  0.7818608E-02  0.1126622E+00
          2   -1    0    0  502    0  0.00000000000E+00  0.00000000000E+00  0.39895830002E+04  0.39895830002E+04  0.00000000000E+00 0. -1.
          1   -1    0    0  501    0 -0.00000000000E+00 -0.00000000000E+00 -0.38224076574E+02  0.38224076574E+02  0.00000000000E+00 0. -1.
         25    2    1    2    0    0  0.22142561447E+03  0.44998927645E+02  0.11655788548E+04  0.11938412846E+04  0.12501495910E+03 0.  0.
          2    1    1    2  501    0 -0.58980097505E+02  0.20728686802E+03  0.97919312266E+03  0.10026293777E+04  0.00000000000E+00 0. -1.
          1    1    1    2  502    0 -0.16244551696E+03 -0.25228579566E+03  0.18065869462E+04  0.18313364144E+04  0.00000000000E+00 0. -1.
         22    1    3    3    0    0  0.13201545774E+03  0.37457204119E+02  0.39710873489E+03  0.42015053320E+03  0.00000000000E+00 0.  1.
         22    1    3    3    0    0  0.89410156728E+02  0.75417235265E+01  0.76847011988E+03  0.77369075144E+03  0.00000000000E+00 0.  1.
</event>
<event>
 7    1  0.8792454E-005  0.5572863E+02  0.7818608E-02  0.1437351E+00
          2   -1    0    0  502    0  0.00000000000E+00  0.00000000000E+00  0.15227257622E+04  0.15227257622E+04  0.00000000000E+00 0. -1.
          1   -1    0    0  501    0 -0.00000000000E+00 -0.00000000000E+00 -0.52858379158E+02  0.52858379158E+02  0.00000000000E+00 0. -1.
         25    2    1    2    0    0 -0.86664445181E+01 -0.69220704547E+02  0.19878408373E+03  0.24496247632E+03  0.12499955864E+03 0.  0.
          2    1    1    2  501    0  0.41210578811E+02  0.23851525984E+02 -0.97239733934E+01  0.48597970701E+02  0.00000000000E+00 0. -1.
          1    1    1    2  502    0 -0.32544134293E+02  0.45369178563E+02  0.12808072727E+04  0.12820236943E+04  0.00000000000E+00 0. -1.
         22    1    3    3    0    0  0.23762023733E+02 -0.11695468350E+02  0.17146541808E+03  0.17349872435E+03  0.00000000000E+00 0. -1.
         22    1    3    3    0    0 -0.32428468251E+02 -0.57525236198E+02  0.27318665651E+02  0.71463751970E+02  0.00000000000E+00 0. -1.
</event>
<event>
 7    1  0.8792454E-005  0.4602963E+03  0.7818608E-02  0.1153057E+00
          2   -1    0    0  502    0  0.00000000000E+00  0.00000000000E+00  0.23788645327E+04  0.23788645327E+04  0.00000000000E+00 0. -1.
          1   -1    0    0  501    0 -0.00000000000E+00 -0.00000000000E+00 -0.14652269816E+04  0.14652269816E+04  0.00000000000E+00 0. -1.
         25    2    1    2    0    0 -0.29709395670E+02 -0.48537112930E+03 -0.10271814375E+04  0.11433256611E+04  0.12499632126E+03 0.  0.
          2    1    1    2  501    0  0.58979067089E+02  0.40710623254E+03 -0.26761854627E+03  0.49074810365E+03  0.00000000000E+00 0. -1.
          1    1    1    2  502    0 -0.29269671420E+02  0.78264896753E+02  0.22084375349E+04  0.22100177496E+04  0.00000000000E+00 0. -1.
         22    1    3    3    0    0 -0.37433800581E+02 -0.34007385271E+02 -0.97358503045E+02  0.10971084629E+03  0.00000000000E+00 0. -1.
         22    1    3    3    0    0  0.77244049115E+01 -0.45136374402E+03 -0.92982293447E+03  0.10336148148E+04  0.00000000000E+00 0. -1.
</event>
<event>
 7    1  0.8792454E-005  0.1505020E+03  0.7818608E-02  0.1268357E+00
          2   -1    0    0  502    0  0.00000000000E+00  0.00000000000E+00  0.90105312516E+03  0.90105312516E+03  0.00000000000E+00 0. -1.
          1   -1    0    0  501    0 -0.00000000000E+00 -0.00000000000E+00 -0.10469342016E+04  0.10469342016E+04  0.00000000000E+00 0. -1.
         25    2    1    2    0    0 -0.13913295169E+03  0.42077244544E+02 -0.70749786588E+03  0.73300999622E+03  0.12498780572E+03 0.  0.
          2    1    1    2  501    0  0.12471167241E+03 -0.11518397504E+03 -0.30291337259E+03  0.34724178988E+03  0.00000000000E+00 0. -1.
          1    1    1    2  502    0  0.14421279280E+02  0.73106730500E+02  0.86453016206E+03  0.86773554062E+03  0.00000000000E+00 0. -1.
         22    1    3    3    0    0 -0.65194392313E+02 -0.15010088182E+02 -0.11379573411E+03  0.13200409326E+03  0.00000000000E+00 0. -1.
         22    1    3    3    0    0 -0.73938559380E+02  0.57087332726E+02 -0.59370213177E+03  0.60100590296E+03  0.00000000000E+00 0. -1.
</event>
<event>
 7    1  0.8792454E-005  0.1962090E+03  0.7818608E-02  0.1191769E+00
          2   -1    0    0  502    0  0.00000000000E+00  0.00000000000E+00  0.71151275563E+03  0.71151275563E+03  0.00000000000E+00 0. -1.
          1   -1    0    0  501    0 -0.00000000000E+00 -0.00000000000E+00 -0.19531810849E+04  0.19531810849E+04  0.00000000000E+00 0. -1.
         25    2    1    2    0    0  0.17302361671E+02  0.14867648752E+03 -0.17207020788E+03  0.26006627353E+03  0.12498896162E+03 0.  0.
          2    1    1    2  501    0  0.12594549608E+03 -0.66610363413E+01 -0.17195116286E+04  0.17241307602E+04  0.00000000000E+00 0. -1.
          1    1    1    2  502    0 -0.14324785775E+03 -0.14201545118E+03  0.64991350724E+03  0.68049680676E+03  0.00000000000E+00 0. -1.
         22    1    3    3    0    0 -0.36325822549E+01  0.60740260241E+02  0.52090364099E+01  0.61071342938E+02  0.00000000000E+00 0. -1.
         22    1    3    3    0    0  0.20934943926E+02  0.87936227281E+02 -0.17727924429E+03  0.19899493059E+03  0.00000000000E+00 0. -1.
</event>
<event>
 7    1  0.8792454E-005  0.3195732E+03  0.7818608E-02  0.1076785E+00
          2   -1    0    0  502    0  0.00000000000E+00  0.00000000000E+00  0.23962909290E+04  0.23962909290E+04  0.00000000000E+00 0. -1.
          1   -1    0    0  501    0 -0.00000000000E+00 -0.00000000000E+00 -0.59073145698E+03  0.59073145698E+03  0.00000000000E+00 0. -1.
         25    2    1    2    0    0 -0.21513194876E+03  0.21559821953E+03  0.11492545056E+04  0.11954812096E+04  0.12500022418E+03 0.  0.
          2    1    1    2  501    0  0.30945211626E+03  0.89738846031E+02 -0.49837329796E+03  0.59345565703E+03  0.00000000000E+00 0. -1.
          1    1    1    2  502    0 -0.94320167496E+02 -0.30533706557E+03  0.11546782644E+04  0.11980855194E+04  0.00000000000E+00 0. -1.
         22    1    3    3    0    0 -0.17140586479E+02  0.64494642019E+02  0.12867718819E+03  0.14495232773E+03  0.00000000000E+00 0.  1.
         22    1    3    3    0    0 -0.19799136228E+03  0.15110357752E+03  0.10205773174E+04  0.10505288818E+04  0.00000000000E+00 0.  1.
</event>
<event>
 7    1  0.8792454E-005  0.1904045E+03  0.7818608E-02  0.1187616E+00
          2   -1    0    0  502    0  0.00000000000E+00  0.00000000000E+00  0.26300875093E+04  0.26300875093E+04  0.00000000000E+00 0. -1.
          1   -1    0    0  501    0 -0.00000000000E+00 -0.00000000000E+00 -0.13673813542E+03  0.13673813542E+03  0.00000000000E+00 0. -1.
         25    2    1    2    0    0  0.90229608300E+02 -0.14111702158E+02  0.11702799898E+04  0.11804758737E+04  0.12501004561E+03 0.  0.
          2    1    1    2  501    0  0.15510339451E+03  0.11043910148E+03 -0.42906160062E+02  0.19517888384E+03  0.00000000000E+00 0. -1.
          1    1    1    2  502    0 -0.24533300281E+03 -0.96327399327E+02  0.13659755442E+04  0.13911708872E+04  0.00000000000E+00 0. -1.
         22    1    3    3    0    0  0.13053286375E+02 -0.52646248952E+02  0.23278541817E+03  0.23902105917E+03  0.00000000000E+00 0. -1.
         22    1    3    3    0    0  0.77176321925E+02  0.38534546793E+02  0.93749457165E+03  0.94145481454E+03  0.00000000000E+00 0. -1.
</event>
<event>
 7    1  0.8792454E-005  0.1469918E+03  0.7818608E-02  0.1249969E+00
          2   -1    0    0  502    0  0.00000000000E+00  0.00000000000E+00  0.33694833820E+03  0.33694833820E+03  0.00000000000E+00 0. -1.
          1   -1    0    0  501    0 -0.00000000000E+00 -0.00000000000E+00 -0.56667005473E+03  0.56667005473E+03  0.00000000000E+00 0. -1.
         25    2    1    2    0    0  0.70858841597E+02  0.77807531631E+02 -0.42540262241E+03  0.45572106291E+03  0.12505722137E+03 0.  0.
          2    1    1    2  501    0  0.76241389636E+02 -0.50464792341E+02 -0.88176470211E+02  0.12702178813E+03  0.00000000000E+00 0. -1.
          1    1    1    2  502    0 -0.14710023123E+03 -0.27342739290E+02  0.28385737609E+03  0.32087554189E+03  0.00000000000E+00 0. -1.
         22    1    3    3    0    0 -0.11495973673E+02  0.48246917504E+00 -0.22792512072E+03  0.22821536066E+03  0.00000000000E+00 0.  1.
         22    1    3    3    0    0  0.82354815270E+02  0.77325062456E+02 -0.19747750169E+03  0.22750570225E+03  0.00000000000E+00 0.  1.
</event>
<event>
 7    1  0.8792454E-005  0.1873370E+03  0.7818608E-02  0.1229540E+00
          2   -1    0    0  502    0  0.00000000000E+00  0.00000000000E+00  0.18078224054E+04  0.18078224054E+04  0.00000000000E+00 0. -1.
          1   -1    0    0  501    0 -0.00000000000E+00 -0.00000000000E+00 -0.33231431354E+03  0.33231431354E+03  0.00000000000E+00 0. -1.
         25    2    1    2    0    0 -0.12119970275E+03  0.24319889196E+03  0.15117437432E+04  0.15410477619E+04  0.12499596161E+03 0.  0.
          2    1    1    2  501    0  0.67494078544E+02 -0.17312595667E+03 -0.28213062699E+03  0.33782501121E+03  0.00000000000E+00 0. -1.
          1    1    1    2  502    0  0.53705624207E+02 -0.70072935289E+02  0.24589497559E+03  0.26126394576E+03  0.00000000000E+00 0. -1.
         22    1    3    3    0    0 -0.12329651366E+03  0.24569243691E+03  0.12757083152E+04  0.13049898503E+04  0.00000000000E+00 0. -1.
         22    1    3    3    0    0  0.20968109122E+01 -0.24935449476E+01  0.23603542799E+03  0.23605791164E+03  0.00000000000E+00 0. -1.
</event>
<event>
 7    1  0.8792454E-005  0.8523582E+02  0.7818608E-02  0.1403066E+00
          2   -1    0    0  502    0  0.00000000000E+00  0.00000000000E+00  0.10498215165E+04  0.10498215165E+04  0.00000000000E+00 0. -1.
          1   -1    0    0  501    0 -0.00000000000E+00 -0.00000000000E+00 -0.17221427479E+04  0.17221427479E+04  0.00000000000E+00 0. -1.
         25    2    1    2    0    0  0.79335895909E+02 -0.62988363334E+02  0.54732742952E+03  0.57048669751E+03  0.12500415447E+03 0.  0.
          2    1    1    2  501    0 -0.30230513847E+00  0.40521180807E+02 -0.17068829437E+04  0.17073638865E+04  0.00000000000E+00 0. -1.
          1    1    1    2  502    0 -0.79033590771E+02  0.22467182526E+02  0.48723428278E+03  0.49411368032E+03  0.00000000000E+00 0. -1.
         22    1    3    3    0    0  0.10359044001E+03 -0.78601723396E+02  0.40862261868E+03  0.42881424263E+03  0.00000000000E+00 0. -1.
         22    1    3    3    0    0 -0.24254544102E+02  0.15613360063E+02  0.13870481083E+03  0.14167245488E+03  0.00000000000E+00 0. -1.
</event>
<event>
 7    1  0.8792454E-005  0.3394392E+03  0.7818608E-02  0.1246457E+00
          2   -1    0    0  502    0  0.00000000000E+00  0.00000000000E+00  0.59425216536E+03  0.59425216536E+03  0.00000000000E+00 0. -1.
          1   -1    0    0  501    0 -0.00000000000E+00 -0.00000000000E+00 -0.41126015158E+03  0.41126015158E+03  0.00000000000E+00 0. -1.
         25    2    1    2    0    0  0.24812987421E+03 -0.18745985623E+03 -0.19624649517E+03  0.38838978078E+03  0.12499721107E+03 0.  0.
          2    1    1    2  501    0  0.40976316629E+02 -0.16817252874E+01 -0.50934515418E+02  0.65392748721E+02  0.00000000000E+00 0. -1.
          1    1    1    2  502    0 -0.28910619084E+03  0.18914158152E+03  0.43017302437E+03  0.55172978743E+03  0.00000000000E+00 0. -1.
         22    1    3    3    0    0  0.72322366083E+02 -0.96828126908E+02 -0.13530358177E+03  0.18142014782E+03  0.00000000000E+00 0. -1.
         22    1    3    3    0    0  0.17580750813E+03 -0.90631729322E+02 -0.60942913403E+02  0.20696963296E+03  0.00000000000E+00 0. -1.
</event>
<event>
 7    1  0.8792454E-005  0.9490938E+02  0.7818608E-02  0.1323772E+00
          2   -1    0    0  502    0  0.00000000000E+00  0.00000000000E+00  0.91817651162E+03  0.91817651162E+03  0.00000000000E+00 0. -1.
          1   -1    0    0  501    0 -0.00000000000E+00 -0.00000000000E+00 -0.28653570921E+03  0.28653570921E+03  0.00000000000E+00 0. -1.
         25    2    1    2    0    0 -0.10522758617E+03  0.22753580513E+02  0.29139556468E+03  0.33485272570E+03  0.12499760989E+03 0.  0.
          2    1    1    2  501    0  0.58140645935E+02 -0.75433318870E+02 -0.25408296875E+03  0.27134604349E+03  0.00000000000E+00 0. -1.
          1    1    1    2  502    0  0.47086940234E+02  0.52679738357E+02  0.59432820648E+03  0.59851345164E+03  0.00000000000E+00 0. -1.
         22    1    3    3    0    0 -0.83090619752E+02  0.13456774893E+02  0.62848485804E+02  0.10504793215E+03  0.00000000000E+00 0. -1.
         22    1    3    3    0    0 -0.22136966417E+02  0.92968056203E+01  0.22854707887E+03  0.22980479355E+03  0.00000000000E+00 0. -1.
</event>
<event>
 7    1  0.8792454E-005  0.6078363E+03  0.7818608E-02  0.1254389E+00
          2   -1    0    0  502    0  0.00000000000E+00  0.00000000000E+00  0.77494744226E+03  0.77494744226E+03  0.00000000000E+00 0. -1.
          1   -1    0    0  501    0 -0.00000000000E+00 -0.00000000000E+00 -0.24765946710E+04  0.24765946710E+04  0.00000000000E+00 0. -1.
         25    2    1    2    0    0  0.45571210119E+03 -0.41008201851E+03 -0.10749058053E+04  0.12437395949E+04  0.12499963366E+03 0.  0.
          2    1    1    2  501    0 -0.43593854563E+03  0.41761167638E+03 -0.12479163484E+04  0.13862673409E+04  0.00000000000E+00 0. -1.
          1    1    1    2  502    0 -0.19773555570E+02 -0.75296578667E+01  0.62117492508E+03  0.62153517744E+03  0.00000000000E+00 0. -1.
         22    1    3    3    0    0  0.22864444941E+03 -0.26167896125E+03 -0.69371548450E+03  0.77588358434E+03  0.00000000000E+00 0. -1.
         22    1    3    3    0    0  0.22706765178E+03 -0.14840305726E+03 -0.38119032084E+03  0.46785601054E+03  0.00000000000E+00 0. -1.
</event>
<event>
 7    1  0.8792454E-005  0.2821422E+03  0.7818608E-02  0.1262118E+00
          2   -1    0    0  502    0  0.00000000000E+00  0.00000000000E+00  0.22851938205E+03  0.22851938205E+03  0.00000000000E+00 0. -1.
          1   -1    0    0  501    0 -0.00000000000E+00 -0.00000000000E+00 -0.83768475955E+03  0.83768475955E+03  0.00000000000E+00 0. -1.
         25    2    1    2    0    0 -0.11024432334E+03  0.22585818726E+03  0.47885786768E+02  0.28475452006E+03  0.12500542605E+03 0.  0.
          2    1    1    2  501    0  0.10515632403E+03 -0.26779082371E+03 -0.67636016497E+03  0.73500534046E+03  0.00000000000E+00 0. -1.
          1    1    1    2  502    0  0.50879993101E+01  0.41932636453E+02  0.19309000697E+02  0.46444281077E+02  0.00000000000E+00 0. -1.
         22    1    3    3    0    0 -0.57439842224E+02  0.87721544296E+02  0.81851232657E+02  0.13301890503E+03  0.00000000000E+00 0.  1.
         22    1    3    3    0    0 -0.52804481119E+02  0.13813664296E+03 -0.33965445890E+02  0.15173561503E+03  0.00000000000E+00 0.  1.
</event>
<event>
 7    1  0.8792454E-005  0.1572821E+03  0.7818608E-02  0.1223713E+00
          2   -1    0    0  502    0  0.00000000000E+00  0.00000000000E+00  0.98554068040E+03  0.98554068040E+03  0.00000000000E+00 0. -1.
          1   -1    0    0  501    0 -0.00000000000E+00 -0.00000000000E+00 -0.18079903945E+03  0.18079903945E+03  0.00000000000E+00 0. -1.
         25    2    1    2    0    0 -0.11048707077E+03  0.14132605709E+03  0.84700952043E+03  0.87477437820E+03  0.12499855130E+03 0.  0.
          2    1    1    2  501    0  0.15340209723E+03 -0.38182104811E+02 -0.75255325314E+02  0.17508123986E+03  0.00000000000E+00 0. -1.
          1    1    1    2  502    0 -0.42915026453E+02 -0.10314395228E+03  0.32987445834E+02  0.11648410179E+03  0.00000000000E+00 0. -1.
         22    1    3    3    0    0 -0.12855368368E+03  0.13682151088E+03  0.64106629995E+03  0.66799114991E+03  0.00000000000E+00 0. -1.
         22    1    3    3    0    0  0.18066612907E+02  0.45045462115E+01  0.20594322047E+03  0.20678322828E+03  0.00000000000E+00 0. -1.
</event>
<event>
 7    1  0.8792454E-005  0.1978436E+03  0.7818608E-02  0.1280051E+00
          2   -1    0    0  502    0  0.00000000000E+00  0.00000000000E+00  0.43974203146E+03  0.43974203146E+03  0.00000000000E+00 0. -1.
          1   -1    0    0  501    0 -0.00000000000E+00 -0.00000000000E+00 -0.17497148292E+03  0.17497148292E+03  0.00000000000E+00 0. -1.
         25    2    1    2    0    0 -0.68363141523E+02  0.16172506708E+03  0.84314790413E+02  0.23143947638E+03  0.12500692342E+03 0.  0.
          2    1    1    2  501    0 -0.48543123047E+02  0.14502247483E+02 -0.49520068867E+02  0.70844810663E+02  0.00000000000E+00 0. -1.
          1    1    1    2  502    0  0.11690626457E+03 -0.17622731457E+03  0.22997582699E+03  0.31242922734E+03  0.00000000000E+00 0. -1.
         22    1    3    3    0    0 -0.43225056757E+02  0.87925749368E+02  0.11190813899E+03  0.14873726670E+03  0.00000000000E+00 0.  1.
         22    1    3    3    0    0 -0.25138084766E+02  0.73799317714E+02 -0.27593348573E+02  0.82702209682E+02  0.00000000000E+00 0.  1.
</event>
<event>
 7    1  0.8792454E-005  0.1179199E+03  0.7818608E-02  0.1353739E+00
          2   -1    0    0  502    0  0.00000000000E+00  0.00000000000E+00  0.13928945448E+04  0.13928945448E+04  0.00000000000E+00 0. -1.
          1   -1    0    0  501    0 -0.00000000000E+00 -0.00000000000E+00 -0.30110228145E+02  0.30110228145E+02  0.00000000000E+00 0. -1.
         25    2    1    2    0    0  0.36400405504E+01 -0.14007006539E+03  0.10961828099E+04  0.11121489921E+04  0.12500301892E+03 0.  0.
          2    1    1    2  501    0  0.29243639185E+02  0.11107109606E+03  0.17534811850E+03  0.20961617656E+03  0.00000000000E+00 0. -1.
          1    1    1    2  502    0 -0.32883679735E+02  0.28998969322E+02  0.91253388318E+02  0.10123960438E+03  0.00000000000E+00 0. -1.
         22    1    3    3    0    0  0.28820288469E+02  0.11771317877E+02  0.12347014693E+03  0.12733440280E+03  0.00000000000E+00 0. -1.
         22    1    3    3    0    0 -0.25180247918E+02 -0.15184138326E+03  0.97271266294E+03  0.98481458925E+03  0.00000000000E+00 0. -1.
</event>
<event>
 7    1  0.8792454E-005  0.3849766E+03  0.7818608E-02  0.1127396E+00
          2   -1    0    0  502    0  0.00000000000E+00  0.00000000000E+00  0.53041276140E+03  0.53041276140E+03  0.00000000000E+00 0. -1.
          1   -1    0    0  501    0 -0.00000000000E+00 -0.00000000000E+00 -0.88886086085E+03  0.88886086085E+03  0.00000000000E+00 0. -1.
         25    2    1    2    0    0 -0.20893510621E+03 -0.33778245861E+03 -0.34549701924E+03  0.54105942862E+03  0.12500498810E+03 0.  0.
          2    1    1    2  501    0  0.30241655241E+03  0.23881889661E+03 -0.34633281241E+03  0.51810872749E+03  0.00000000000E+00 0. -1.
          1    1    1    2  502    0 -0.93481446202E+02  0.98963562005E+02  0.33338173219E+03  0.36010546614E+03  0.00000000000E+00 0. -1.
         22    1    3    3    0    0 -0.18072305061E+03 -0.26095421422E+03 -0.20316515517E+03  0.37687398851E+03  0.00000000000E+00 0.  1.
         22    1    3    3    0    0 -0.28212055605E+02 -0.76828244388E+02 -0.14233186406E+03  0.16418544011E+03  0.00000000000E+00 0.  1.
</event>
<event>
 7    1  0.8792454E-005  0.1490923E+03  0.7818608E-02  0.1231351E+00
          2   -1    0    0  502    0  0.00000000000E+00  0.00000000000E+00  0.63154911963E+03  0.63154911963E+03  0.00000000000E+00 0. -1.
          1   -1    0    0  501    0 -0.00000000000E+00 -0.00000000000E+00 -0.45697538309E+03  0.45697538309E+03  0.00000000000E+00 0. -1.
         25    2    1    2    0    0  0.14968359104E+03 -0.94538527557E+02 -0.13320882483E+03  0.25438408756E+03  0.12499584943E+03 0.  0.
          2    1    1    2  501    0 -0.50645974337E+02  0.13977508264E+03 -0.23635119213E+03  0.27922029737E+03  0.00000000000E+00 0. -1.
          1    1    1    2  502    0 -0.99037616702E+02 -0.45236555086E+02  0.54413375349E+03  0.55492011779E+03  0.00000000000E+00 0. -1.
         22    1    3    3    0    0  0.13532725689E+03 -0.84277557313E+02 -0.46742661712E+02  0.16613563599E+03  0.00000000000E+00 0.  1.
         22    1    3    3    0    0  0.14356334152E+02 -0.10260970244E+02 -0.86466163115E+02  0.88248451570E+02  0.00000000000E+00 0.  1.
</event>
<event>
 7    1  0.1298498E-004  0.1277493E+03  0.7818608E-02  0.1334272E+00
          2   -1    0    0  502    0  0.00000000000E+00  0.00000000000E+00  0.10499651559E+04  0.10499651559E+04  0.00000000000E+00 0. -1.
          1   -1    0    0  501    0 -0.00000000000E+00 -0.00000000000E+00 -0.89265780099E+03  0.89265780099E+03  0.00000000000E+00 0. -1.
         25    2    1    2    0    0  0.35789670564E+00 -0.15112006215E+03 -0.51526523845E+03  0.55132608833E+03  0.12499915378E+03 0.  0.
          2    1    1    2  501    0  0.37809656414E+02  0.29334678077E+02 -0.35379899296E+03  0.35702075693E+03  0.00000000000E+00 0. -1.
          1    1    1    2  502    0 -0.38167553120E+02  0.12178538407E+03  0.10263715863E+04  0.10342761116E+04  0.00000000000E+00 0. -1.
         22    1    3    3    0    0 -0.92126363641E+01 -0.65566277822E+02 -0.41013956100E+03  0.41544947822E+03  0.00000000000E+00 0. -1.
         22    1    3    3    0    0  0.95705330697E+01 -0.85553784328E+02 -0.10512567745E+03  0.13587661012E+03  0.00000000000E+00 0. -1.
</event>
<event>
 7    1  0.8792454E-005  0.1811581E+03  0.7818608E-02  0.1204311E+00
          2   -1    0    0  502    0  0.00000000000E+00  0.00000000000E+00  0.26337161890E+04  0.26337161890E+04  0.00000000000E+00 0. -1.
          1   -1    0    0  501    0 -0.00000000000E+00 -0.00000000000E+00 -0.14015220598E+03  0.14015220598E+03  0.00000000000E+00 0. -1.
         25    2    1    2    0    0  0.23334967361E+03  0.63324537378E+02  0.40147070807E+03  0.48504222180E+03  0.12500064112E+03 0.  0.
          2    1    1    2  501    0 -0.10367960983E+03  0.58716500437E+02 -0.57199286426E+02  0.13216976691E+03  0.00000000000E+00 0. -1.
          1    1    1    2  502    0 -0.12967006379E+03 -0.12204103782E+03  0.21492925614E+04  0.21566564063E+04  0.00000000000E+00 0. -1.
         22    1    3    3    0    0  0.20097271841E+03  0.97623568477E+02  0.30999144337E+03  0.38211920866E+03  0.00000000000E+00 0.  1.
         22    1    3    3    0    0  0.32376955200E+02 -0.34299031099E+02  0.91479264707E+02  0.10292301314E+03  0.00000000000E+00 0.  1.
</event>
<event>
 7    1  0.8792454E-005  0.6284122E+02  0.7818608E-02  0.1481565E+00
          2   -1    0    0  502    0  0.00000000000E+00  0.00000000000E+00  0.16306543383E+04  0.16306543383E+04  0.00000000000E+00 0. -1.
          1   -1    0    0  501    0 -0.00000000000E+00 -0.00000000000E+00 -0.79378081374E+03  0.79378081374E+03  0.00000000000E+00 0. -1.
         25    2    1    2    0    0  0.35057447613E+02 -0.34823211843E+02  0.28419707094E+03  0.31437992771E+03  0.12500033238E+03 0.  0.
          2    1    1    2  501    0 -0.60399608344E+02  0.17642991238E+02 -0.77724173949E+03  0.77978465581E+03  0.00000000000E+00 0. -1.
          1    1    1    2  502    0  0.25342160731E+02  0.17180220605E+02  0.13299181932E+04  0.13302705686E+04  0.00000000000E+00 0. -1.
         22    1    3    3    0    0  0.76858720763E+01 -0.10715774718E+02  0.27686143600E+03  0.27717531493E+03  0.00000000000E+00 0. -1.
         22    1    3    3    0    0  0.27371575537E+02 -0.24107437125E+02  0.73356349398E+01  0.37204612780E+02  0.00000000000E+00 0. -1.
</event>
<event>
 7    1  0.8792454E-005  0.1402797E+03  0.7818608E-02  0.1217302E+00
          2   -1    0    0  502    0  0.00000000000E+00  0.00000000000E+00  0.17667698226E+04  0.17667698226E+04  0.00000000000E+00 0. -1.
          1   -1    0    0  501    0 -0.00000000000E+00 -0.00000000000E+00 -0.27833979817E+03  0.27833979817E+03  0.00000000000E+00 0. -1.
         25    2    1    2    0    0  0.91219951259E+02 -0.16635044008E+03 -0.19736740069E+03  0.30095122953E+03  0.12499681307E+03 0.  0.
          2    1    1    2  501    0 -0.13020577394E+03  0.31530140268E+02  0.14666695629E+03  0.19864261723E+03  0.00000000000E+00 0. -1.
          1    1    1    2  502    0  0.38985822686E+02  0.13482029981E+03  0.15391304688E+04  0.15455157740E+04  0.00000000000E+00 0. -1.
         22    1    3    3    0    0  0.58567149885E+02 -0.13947585873E+03 -0.69882304547E+02  0.16663481840E+03  0.00000000000E+00 0. -1.
         22    1    3    3    0    0  0.32652801374E+02 -0.26874581347E+02 -0.12748509614E+03  0.13431641113E+03  0.00000000000E+00 0. -1.
</event>
<event>
 7    1  0.8792454E-005  0.4024070E+03  0.7818608E-02  0.1169966E+00
          2   -1    0    0  502    0  0.00000000000E+00  0.00000000000E+00  0.12958345403E+04  0.12958345403E+04  0.00000000000E+00 0. -1.
          1   -1    0    0  501    0 -0.00000000000E+00 -0.00000000000E+00 -0.19636883050E+03  0.19636883050E+03  0.00000000000E+00 0. -1.
         25    2    1    2    0    0  0.27559272025E+03  0.24390509749E+03  0.56515049405E+03  0.68590121433E+03  0.12499740342E+03 0.  0.
          2    1    1    2  501    0  0.56178542831E+02  0.54893022592E+02 -0.32286386341E+02  0.84921630618E+02  0.00000000000E+00 0. -1.
          1    1    1    2  502    0 -0.33177126308E+03 -0.29879812008E+03  0.56660160209E+03  0.72138052585E+03  0.00000000000E+00 0. -1.
         22    1    3    3    0    0 -0.11112526877E+02  0.28643437187E+01  0.34588652606E+02  0.36442661917E+02  0.00000000000E+00 0. -1.
         22    1    3    3    0    0  0.28670524713E+03  0.24104075377E+03  0.53056184144E+03  0.64945855241E+03  0.00000000000E+00 0. -1.
</event>
<event>
 7    1  0.8792454E-005  0.9047249E+02  0.7818608E-02  0.1476613E+00
          2   -1    0    0  502    0  0.00000000000E+00  0.00000000000E+00  0.62618285272E+03  0.62618285272E+03  0.00000000000E+00 0. -1.
          1   -1    0    0  501    0 -0.00000000000E+00 -0.00000000000E+00 -0.73134751082E+03  0.73134751082E+03  0.00000000000E+00 0. -1.
         25    2    1    2    0    0  0.23050217338E+02  0.10242674948E+03 -0.34356231425E+03  0.38037154083E+03  0.12499957509E+03 0.  0.
          2    1    1    2  501    0 -0.80917017817E+01 -0.86261947242E+02 -0.36409607880E+03  0.37426268018E+03  0.00000000000E+00 0. -1.
          1    1    1    2  502    0 -0.14958515557E+02 -0.16164802236E+02  0.60249373495E+03  0.60289614253E+03  0.00000000000E+00 0. -1.
         22    1    3    3    0    0 -0.51894760927E+01 -0.19570316157E+02 -0.13942268556E+03  0.14088510633E+03  0.00000000000E+00 0. -1.
         22    1    3    3    0    0  0.28239693431E+02  0.12199706564E+03 -0.20413962869E+03  0.23948643450E+03  0.00000000000E+00 0. -1.
</event>
<event>
 7    1  0.8792454E-005  0.2240960E+03  0.7818608E-02  0.1213646E+00
          2   -1    0    0  502    0  0.00000000000E+00  0.00000000000E+00  0.11191179900E+04  0.11191179900E+04  0.00000000000E+00 0. -1.
          1   -1    0    0  501    0 -0.00000000000E+00 -0.00000000000E+00 -0.28667048756E+03  0.28667048756E+03  0.00000000000E+00 0. -1.
         25    2    1    2    0    0  0.17838014528E+03  0.15898386792E+03  0.69456456960E+03  0.74507729605E+03  0.12499955699E+03 0.  0.
          2    1    1    2  501    0 -0.80801798501E+02  0.32703530359E+02 -0.22364674238E+03  0.24003399117E+03  0.00000000000E+00 0. -1.
          1    1    1    2  502    0 -0.97578346781E+02 -0.19168739827E+03  0.36152967521E+03  0.42067719035E+03  0.00000000000E+00 0. -1.
         22    1    3    3    0    0 -0.74745221222E+01  0.44526545274E+02  0.68377467408E+02  0.81938756179E+02  0.00000000000E+00 0. -1.
         22    1    3    3    0    0  0.18585466740E+03  0.11445732264E+03  0.62618710219E+03  0.66313853987E+03  0.00000000000E+00 0. -1.
</event>
<event>
 7    1  0.8792454E-005  0.2779331E+03  0.7818608E-02  0.1217703E+00
          2   -1    0    0  502    0  0.00000000000E+00  0.00000000000E+00  0.66187379148E+03  0.66187379148E+03  0.00000000000E+00 0. -1.
          1   -1    0    0  501    0 -0.00000000000E+00 -0.00000000000E+00 -0.14736079389E+04  0.14736079389E+04  0.00000000000E+00 0. -1.
         25    2    1    2    0    0  0.88126975326E+02 -0.25704273516E+03 -0.65636165098E+03  0.72129899908E+03  0.12499719084E+03 0.  0.
          2    1    1    2  501    0 -0.26930651705E+02  0.28512476393E+03 -0.75670710858E+03  0.80909025404E+03  0.00000000000E+00 0. -1.
          1    1    1    2  502    0 -0.61196323621E+02 -0.28082028769E+02  0.60133461210E+03  0.60509247729E+03  0.00000000000E+00 0. -1.
         22    1    3    3    0    0 -0.20901778484E+02 -0.30143333772E+01 -0.68561142657E+02  0.71739813437E+02  0.00000000000E+00 0. -1.
         22    1    3    3    0    0  0.10902875381E+03 -0.25402840178E+03 -0.58780050832E+03  0.64955918564E+03  0.00000000000E+00 0. -1.
</event>
<event>
 7    1  0.8792454E-005  0.4426519E+02  0.7818608E-02  0.1543777E+00
          2   -1    0    0  502    0  0.00000000000E+00  0.00000000000E+00  0.80420003053E+02  0.80420003053E+02  0.00000000000E+00 0. -1.
          1   -1    0    0  501    0 -0.00000000000E+00 -0.00000000000E+00 -0.95557639911E+03  0.95557639911E+03  0.00000000000E+00 0. -1.
         25    2    1    2    0    0 -0.24761846960E+02 -0.10202599173E+02 -0.74478387652E+01  0.12804807645E+03  0.12499438981E+03 0.  0.
          2    1    1    2  501    0 -0.61680656520E+01 -0.43833343725E+02 -0.67919252989E+01  0.44783225713E+02  0.00000000000E+00 0. -1.
          1    1    1    2  502    0  0.30929912612E+02  0.54035942898E+02 -0.86091663199E+03  0.86316510000E+03  0.00000000000E+00 0. -1.
         22    1    3    3    0    0  0.64619888192E+01  0.52480224889E+02  0.14198806459E+02  0.54749770856E+02  0.00000000000E+00 0.  1.
         22    1    3    3    0    0 -0.31223835779E+02 -0.62682824062E+02 -0.21646645225E+02  0.73298305592E+02  0.00000000000E+00 0.  1.
</event>
<event>
 7    1  0.8792454E-005  0.2407790E+03  0.7818608E-02  0.1181156E+00
          2   -1    0    0  502    0  0.00000000000E+00  0.00000000000E+00  0.46387991193E+03  0.46387991193E+03  0.00000000000E+00 0. -1.
          1   -1    0    0  501    0 -0.00000000000E+00 -0.00000000000E+00 -0.45759934850E+03  0.45759934850E+03  0.00000000000E+00 0. -1.
         25    2    1    2    0    0 -0.27386183386E+03 -0.95436955587E+02  0.21046468253E+03  0.37951215880E+03  0.12500231818E+03 0.  0.
          2    1    1    2  501    0  0.11095914721E+03 -0.32578793212E+02 -0.29417042275E+03  0.31608471608E+03  0.00000000000E+00 0. -1.
          1    1    1    2  502    0  0.16290268665E+03  0.12801574880E+03  0.89986303657E+02  0.22588238555E+03  0.00000000000E+00 0. -1.
         22    1    3    3    0    0 -0.59132576970E+02  0.23591507068E+02  0.14288303473E+02  0.65248574552E+02  0.00000000000E+00 0.  1.
         22    1    3    3    0    0 -0.21472925689E+03 -0.11902846266E+03  0.19617637906E+03  0.31426358425E+03  0.00000000000E+00 0.  1.
</event>
<event>
 7    1  0.8792454E-005  0.3306710E+03  0.7818608E-02  0.1317007E+00
          2   -1    0    0  502    0  0.00000000000E+00  0.00000000000E+00  0.16449752701E+04  0.16449752701E+04  0.00000000000E+00 0. -1.
          1   -1    0    0  501    0 -0.00000000000E+00 -0.00000000000E+00 -0.12556977084E+03  0.12556977084E+03  0.00000000000E+00 0. -1.
         25    2    1    2    0    0 -0.20402917601E+03  0.26015922546E+03  0.10930923551E+04  0.11488200390E+04  0.12500343178E+03 0.  0.
          2    1    1    2  501    0 -0.16889095754E+02 -0.13373216094E+02 -0.42535880835E+02  0.47680033793E+02  0.00000000000E+00 0. -1.
          1    1    1    2  502    0  0.22091827177E+03 -0.24678600937E+03  0.46884902502E+03  0.57404496817E+03  0.00000000000E+00 0. -1.
         22    1    3    3    0    0 -0.75048112907E+02  0.19042443591E+03  0.69828948840E+03  0.72766880836E+03  0.00000000000E+00 0.  1.
         22    1    3    3    0    0 -0.12898106311E+03  0.69734789551E+02  0.39480286670E+03  0.42115123064E+03  0.00000000000E+00 0.  1.
</event>
<event>
 7    1  0.8792454E-005  0.3133912E+03  0.7818608E-02  0.1314805E+00
          2   -1    0    0  502    0  0.00000000000E+00  0.00000000000E+00  0.20767169494E+04  0.20767169494E+04  0.00000000000E+00 0. -1.
          1   -1    0    0  501    0 -0.00000000000E+00 -0.00000000000E+00 -0.13872617938E+03  0.13872617938E+03  0.00000000000E+00 0. -1.
         25    2    1    2    0    0  0.26315448053E+03 -0.19207285849E+03  0.22254329883E+03  0.41387752450E+03  0.12500728715E+03 0.  0.
          2    1    1    2  501    0 -0.12379836880E+01  0.23151770381E+02 -0.24613546230E+02  0.33813661934E+02  0.00000000000E+00 0. -1.
          1    1    1    2  502    0 -0.26191649684E+03  0.16892108811E+03  0.17400610174E+04  0.17677519423E+04  0.00000000000E+00 0. -1.
         22    1    3    3    0    0  0.12564365372E+03 -0.17742642306E+02  0.78437329322E+02  0.14917621696E+03  0.00000000000E+00 0.  1.
         22    1    3    3    0    0  0.13751082681E+03 -0.17433021618E+03  0.14410596951E+03  0.26470130754E+03  0.00000000000E+00 0.  1.
</event>
<event>
 7    1  0.8792454E-005  0.4462238E+03  0.7818608E-02  0.1120425E+00
          2   -1    0    0  502    0  0.00000000000E+00  0.00000000000E+00  0.29898545862E+04  0.29898545862E+04  0.00000000000E+00 0. -1.
          1   -1    0    0  501    0 -0.00000000000E+00 -0.00000000000E+00 -0.75700528726E+03  0.75700528726E+03  0.00000000000E+00 0. -1.
         25    2    1    2    0    0 -0.38664281852E+03 -0.36122864855E+03 -0.10322049877E+03  0.55340624851E+03  0.12500079547E+03 0.  0.
          2    1    1    2  501    0  0.11151684008E+02  0.12758015741E+03 -0.40096460573E+03  0.42092003001E+03  0.00000000000E+00 0. -1.
          1    1    1    2  502    0  0.37549113452E+03  0.23364849115E+03  0.27370344034E+04  0.27725335949E+04  0.00000000000E+00 0. -1.
         22    1    3    3    0    0 -0.39250926422E+03 -0.33273381533E+03 -0.96196322353E+02  0.52347783793E+03  0.00000000000E+00 0. -1.
         22    1    3    3    0    0  0.58664456998E+01 -0.28494833223E+02 -0.70241764143E+01  0.29928410580E+02  0.00000000000E+00 0. -1.
</event>
<event>
 7    1  0.8792454E-005  0.1213910E+03  0.7818608E-02  0.1335702E+00
          2   -1    0    0  502    0  0.00000000000E+00  0.00000000000E+00  0.44954377353E+03  0.44954377353E+03  0.00000000000E+00 0. -1.
          1   -1    0    0  501    0 -0.00000000000E+00 -0.00000000000E+00 -0.40766222460E+03  0.40766222460E+03  0.00000000000E+00 0. -1.
         25    2    1    2    0    0  0.20418324361E+00 -0.90621089123E+02  0.27691592744E+03  0.31704853056E+03  0.12500046549E+03 0.  0.
          2    1    1    2  501    0  0.43322209066E+02  0.11468816854E+03 -0.37345972489E+03  0.39306787699E+03  0.00000000000E+00 0. -1.
          1    1    1    2  502    0 -0.43526392310E+02 -0.24067079416E+02  0.13842534638E+03  0.14708959059E+03  0.00000000000E+00 0. -1.
         22    1    3    3    0    0  0.61790619822E+02 -0.33118102775E+02  0.12881552251E+03  0.14665717940E+03  0.00000000000E+00 0.  1.
         22    1    3    3    0    0 -0.61586436578E+02 -0.57502986348E+02  0.14810040493E+03  0.17039135116E+03  0.00000000000E+00 0.  1.
</event>
<event>
 7    1  0.8792454E-005  0.5993888E+03  0.7818608E-02  0.1181165E+00
          2   -1    0    0  502    0  0.00000000000E+00  0.00000000000E+00  0.68462433727E+03  0.68462433727E+03  0.00000000000E+00 0. -1.
          1   -1    0    0  501    0 -0.00000000000E+00 -0.00000000000E+00 -0.10642976314E+04  0.10642976314E+04  0.00000000000E+00 0. -1.
         25    2    1    2    0    0 -0.16211515159E+02 -0.61573197279E+03 -0.23511247309E+03  0.67103858733E+03  0.12500494048E+03 0.  0.
          2    1    1    2  501    0  0.52477976748E+02  0.58670918322E+03 -0.46725068325E+03  0.75186754466E+03  0.00000000000E+00 0. -1.
          1    1    1    2  502    0 -0.36266461589E+02  0.29022789569E+02  0.32268986224E+03  0.32601583665E+03  0.00000000000E+00 0. -1.
         22    1    3    3    0    0 -0.29518775307E+02 -0.23165221200E+03 -0.14958583299E+03  0.27732657076E+03  0.00000000000E+00 0. -1.
         22    1    3    3    0    0  0.13307260148E+02 -0.38407976079E+03 -0.85526640096E+02  0.39371201656E+03  0.00000000000E+00 0. -1.
</event>
<event>
 7    1  0.8792454E-005  0.4454231E+03  0.7818608E-02  0.1176170E+00
          2   -1    0    0  502    0  0.00000000000E+00  0.00000000000E+00  0.14345478101E+04  0.14345478101E+04  0.00000000000E+00 0. -1.
          1   -1    0    0  501    0 -0.00000000000E+00 -0.00000000000E+00 -0.74068058685E+03  0.74068058685E+03  0.00000000000E+00 0. -1.
         25    2    1    2    0    0 -0.44394914328E+03  0.88819931244E+02 -0.98199271851E+02  0.47984129042E+03  0.12499897999E+03 0.  0.
          2    1    1    2  501    0 -0.47063799456E+00 -0.66121818968E+02 -0.40911599214E+03  0.41442515786E+03  0.00000000000E+00 0. -1.
          1    1    1    2  502    0  0.44441978128E+03 -0.22698112275E+02  0.12011824872E+04  0.12809619486E+04  0.00000000000E+00 0. -1.
         22    1    3    3    0    0 -0.41306538911E+03  0.60236142132E+02 -0.11733785220E+03  0.43361224621E+03  0.00000000000E+00 0.  1.
         22    1    3    3    0    0 -0.30883754167E+02  0.28583789112E+02  0.19138580349E+02  0.46229044217E+02  0.00000000000E+00 0.  1.
</event>
<event>
 7    1  0.8792454E-005  0.4281500E+03  0.7818608E-02  0.1133399E+00
          2   -1    0    0  502    0  0.00000000000E+00  0.00000000000E+00  0.20664036550E+04  0.20664036550E+04  0.00000000000E+00 0. -1.
          1   -1    0    0  501    0 -0.00000000000E+00 -0.00000000000E+00 -0.55249480224E+03  0.55249480224E+03  0.00000000000E+00 0. -1.
         25    2    1    2    0    0  0.36281135691E+03 -0.11326199191E+03 -0.30855952094E+02  0.40129543278E+03  0.12500230029E+03 0.  0.
          2    1    1    2  501    0 -0.42604003836E+03  0.20777694253E+03 -0.16662512116E+03  0.50243935269E+03  0.00000000000E+00 0. -1.
          1    1    1    2  502    0  0.63228681447E+02 -0.94514950616E+02  0.17113899261E+04  0.17151636718E+04  0.00000000000E+00 0. -1.
         22    1    3    3    0    0 -0.11133217998E+01  0.48988264378E+01  0.15104771053E+02  0.15918294333E+02  0.00000000000E+00 0.  1.
         22    1    3    3    0    0  0.36392467871E+03 -0.11816081835E+03 -0.45960723147E+02  0.38537713845E+03  0.00000000000E+00 0.  1.
</event>
<event>
 7    1  0.8792454E-005  0.2523915E+03  0.7818608E-02  0.1128900E+00
          2   -1    0    0  502    0  0.00000000000E+00  0.00000000000E+00  0.13313650683E+04  0.13313650683E+04  0.00000000000E+00 0. -1.
          1   -1    0    0  501    0 -0.00000000000E+00 -0.00000000000E+00 -0.50013266847E+03  0.50013266847E+03  0.00000000000E+00 0. -1.
         25    2    1    2    0    0 -0.66100826349E+01 -0.11858906886E+03  0.10354489527E+04  0.10497065174E+04  0.12498871372E+03 0.  0.
          2    1    1    2  501    0  0.20721099737E+03  0.15475939351E+03 -0.41473159406E+03  0.48876288978E+03  0.00000000000E+00 0. -1.
          1    1    1    2  502    0 -0.20060091473E+03 -0.36170324658E+02  0.21051504119E+03  0.29302832960E+03  0.00000000000E+00 0. -1.
         22    1    3    3    0    0 -0.49839510649E+02 -0.58546193784E+02  0.77938142996E+03  0.78316476363E+03  0.00000000000E+00 0. -1.
         22    1    3    3    0    0  0.43229428014E+02 -0.60042875072E+02  0.25606752270E+03  0.26654175372E+03  0.00000000000E+00 0. -1.
</event>
<event>
 7    1  0.8792454E-005  0.2548324E+03  0.7818608E-02  0.1246512E+00
          2   -1    0    0  502    0  0.00000000000E+00  0.00000000000E+00  0.16431192708E+03  0.16431192708E+03  0.00000000000E+00 0. -1.
          1   -1    0    0  501    0 -0.00000000000E+00 -0.00000000000E+00 -0.75448633729E+03  0.75448633729E+03  0.00000000000E+00 0. -1.
         25    2    1    2    0    0 -0.10296368442E+03 -0.27044577946E+03 -0.24678008276E+03  0.40033477955E+03  0.12500034614E+03 0.  0.
          2    1    1    2  501    0  0.32474123576E+02  0.43889030387E+02 -0.26198964524E+03  0.26761799249E+03  0.00000000000E+00 0. -1.
          1    1    1    2  502    0  0.70489560844E+02  0.22655674907E+03 -0.81404682216E+02  0.25084549233E+03  0.00000000000E+00 0. -1.
         22    1    3    3    0    0 -0.54596382386E+02 -0.13427094550E+03 -0.44279774648E+02  0.15155906511E+03  0.00000000000E+00 0.  1.
         22    1    3    3    0    0 -0.48367302034E+02 -0.13617483396E+03 -0.20250030811E+03  0.24877571444E+03  0.00000000000E+00 0.  1.
</event>
<event>
 7    1  0.8792454E-005  0.1946195E+03  0.7818608E-02  0.1311412E+00
          2   -1    0    0  502    0  0.00000000000E+00  0.00000000000E+00  0.73018450122E+02  0.73018450122E+02  0.00000000000E+00 0. -1.
          1   -1    0    0  501    0 -0.00000000000E+00 -0.00000000000E+00 -0.12555687690E+04  0.12555687690E+04  0.00000000000E+00 0. -1.
         25    2    1    2    0    0  0.15900662255E+03  0.11643246322E+03 -0.44084004219E+03  0.49880160798E+03  0.12499390711E+03 0.  0.
          2    1    1    2  501    0 -0.27409492923E+02  0.27030454575E+02 -0.56670321865E+03  0.56800921102E+03  0.00000000000E+00 0. -1.
          1    1    1    2  502    0 -0.13159712962E+03 -0.14346291780E+03 -0.17500705809E+03  0.26177640017E+03  0.00000000000E+00 0. -1.
         22    1    3    3    0    0  0.13811749441E+03  0.69106846327E+02 -0.20119536574E+03  0.25363709048E+03  0.00000000000E+00 0. -1.
         22    1    3    3    0    0  0.20889128139E+02  0.47325616895E+02 -0.23964467645E+03  0.24516451750E+03  0.00000000000E+00 0. -1.
</event>
<event>
 7    1  0.8792454E-005  0.3047860E+03  0.7818608E-02  0.1113836E+00
          2   -1    0    0  502    0  0.00000000000E+00  0.00000000000E+00  0.10445436879E+04  0.10445436879E+04  0.00000000000E+00 0. -1.
          1   -1    0    0  501    0 -0.00000000000E+00 -0.00000000000E+00 -0.10133312908E+04  0.10133312908E+04  0.00000000000E+00 0. -1.
         25    2    1    2    0    0  0.30260968005E+03  0.27065817832E+03  0.40693689202E+03  0.58825898021E+03  0.12499010262E+03 0.  0.
          2    1    1    2  501    0 -0.99442992340E+02 -0.28523285436E+03 -0.87751966452E+03  0.92805573731E+03  0.00000000000E+00 0. -1.
          1    1    1    2  502    0 -0.20316668771E+03  0.14574676038E+02  0.50179516962E+03  0.54156026113E+03  0.00000000000E+00 0. -1.
         22    1    3    3    0    0  0.30124287765E+03  0.21738480711E+03  0.35417032657E+03  0.51326410932E+03  0.00000000000E+00 0.  1.
         22    1    3    3    0    0  0.13668024013E+01  0.53273371219E+02  0.52766565454E+02  0.74994870889E+02  0.00000000000E+00 0.  1.
</event>
<event>
 7    1  0.8792454E-005  0.3319536E+02  0.7818608E-02  0.1573074E+00
          2   -1    0    0  502    0  0.00000000000E+00  0.00000000000E+00  0.65430553477E+02  0.65430553477E+02  0.00000000000E+00 0. -1.
          1   -1    0    0  501    0 -0.00000000000E+00 -0.00000000000E+00 -0.22507809293E+04  0.22507809293E+04  0.00000000000E+00 0. -1.
         25    2    1    2    0    0  0.16015753340E+02  0.23503420333E+01 -0.66341912616E+03  0.67528599954E+03  0.12499686303E+03 0.  0.
          2    1    1    2  501    0 -0.83010545160E+01 -0.32999617073E+02 -0.15770346070E+04  0.15774016717E+04  0.00000000000E+00 0. -1.
          1    1    1    2  502    0 -0.77146988238E+01  0.30649275040E+02  0.55103357345E+02  0.63523811513E+02  0.00000000000E+00 0. -1.
         22    1    3    3    0    0 -0.35277786251E+02  0.22600945470E+02 -0.51912631300E+03  0.52081422196E+03  0.00000000000E+00 0. -1.
         22    1    3    3    0    0  0.51293539591E+02 -0.20250603437E+02 -0.14429281315E+03  0.15447177759E+03  0.00000000000E+00 0. -1.
</event>
<event>
 7    1  0.8792454E-005  0.1192330E+03  0.7818608E-02  0.1268735E+00
          2   -1    0    0  502    0  0.00000000000E+00  0.00000000000E+00  0.36131436075E+03  0.36131436075E+03  0.00000000000E+00 0. -1.
          1   -1    0    0  501    0 -0.00000000000E+00 -0.00000000000E+00 -0.14782694616E+03  0.14782694616E+03  0.00000000000E+00 0. -1.
         25    2    1    2    0    0 -0.83252467244E+02 -0.28411465542E+02 -0.50581790588E+02  0.16099580069E+03  0.12499178223E+03 0.  0.
          2    1    1    2  501    0  0.27882935748E+02 -0.89469441981E+02  0.83552884665E+02  0.12555207561E+03  0.00000000000E+00 0. -1.
          1    1    1    2  502    0  0.55369531497E+02  0.11788090752E+03  0.18051632052E+03  0.22259343061E+03  0.00000000000E+00 0. -1.
         22    1    3    3    0    0 -0.82342380722E+01 -0.48022493263E+02  0.23198120196E+02  0.53964018720E+02  0.00000000000E+00 0.  1.
         22    1    3    3    0    0 -0.75018229172E+02  0.19611027721E+02 -0.73779910783E+02  0.10703178197E+03  0.00000000000E+00 0.  1.
</event>
<event>
 7    1  0.8792454E-005  0.1598392E+03  0.7818608E-02  0.1214150E+00
          2   -1    0    0  502    0  0.00000000000E+00  0.00000000000E+00  0.13558376757E+03  0.13558376757E+03  0.00000000000E+00 0. -1.
          1   -1    0    0  501    0 -0.00000000000E+00 -0.00000000000E+00 -0.12140430874E+04  0.12140430874E+04  0.00000000000E+00 0. -1.
         25    2    1    2    0    0 -0.59767162907E+02  0.21449956644E+03 -0.28319571849E+03  0.38131795083E+03  0.12498554673E+03 0.  0.
          2    1    1    2  501    0  0.11325444801E+03 -0.10533902997E+03 -0.82807675395E+03  0.84239776333E+03  0.00000000000E+00 0. -1.
          1    1    1    2  502    0 -0.53487285100E+02 -0.10916053647E+03  0.32813152633E+02  0.12591114079E+03  0.00000000000E+00 0. -1.
         22    1    3    3    0    0 -0.26330501172E+02  0.36049771482E+02  0.33158091955E+00  0.44642930704E+02  0.00000000000E+00 0.  1.
         22    1    3    3    0    0 -0.33436661735E+02  0.17844979496E+03 -0.28352729941E+03  0.33667502012E+03  0.00000000000E+00 0.  1.
</event>
<event>
 7    1  0.8792454E-005  0.3350099E+03  0.7818608E-02  0.1162690E+00
          2   -1    0    0  502    0  0.00000000000E+00  0.00000000000E+00  0.14733680071E+03  0.14733680071E+03  0.00000000000E+00 0. -1.
          1   -1    0    0  501    0 -0.00000000000E+00 -0.00000000000E+00 -0.21143338721E+04  0.21143338721E+04  0.00000000000E+00 0. -1.
         25    2    1    2    0    0  0.33362754222E+03 -0.16192675210E+03 -0.20065613228E+03  0.43979133445E+03  0.12500369779E+03 0.  0.
          2    1    1    2  501    0 -0.24850799832E+03  0.21918888398E+03 -0.15066803988E+04  0.15426878544E+04  0.00000000000E+00 0. -1.
          1    1    1    2  502    0 -0.85119543896E+02 -0.57262131882E+02 -0.25966054030E+03  0.27919148392E+03  0.00000000000E+00 0. -1.
         22    1    3    3    0    0  0.98123236930E+02 -0.10772062118E+03 -0.10628527649E+03  0.18035648548E+03  0.00000000000E+00 0.  1.
         22    1    3    3    0    0  0.23550430529E+03 -0.54206130918E+02 -0.94370855783E+02  0.25943484897E+03  0.00000000000E+00 0.  1.
</event>
<event>
 7    1  0.8792454E-005  0.1532721E+03  0.7818608E-02  0.1236531E+00
          2   -1    0    0  502    0  0.00000000000E+00  0.00000000000E+00  0.13117387672E+03  0.13117387672E+03  0.00000000000E+00 0. -1.
          1   -1    0    0  501    0 -0.00000000000E+00 -0.00000000000E+00 -0.26103896539E+04  0.26103896539E+04  0.00000000000E+00 0. -1.
         25    2    1    2    0    0  0.20283155591E+03  0.12429767446E+03 -0.34459110200E+03  0.43698822079E+03  0.12500050232E+03 0.  0.
          2    1    1    2  501    0 -0.73753312367E+02 -0.68166701601E+02 -0.21593340036E+04  0.21616682422E+04  0.00000000000E+00 0. -1.
          1    1    1    2  502    0 -0.12907824355E+03 -0.56130972862E+02  0.24709328394E+02  0.14290706764E+03  0.00000000000E+00 0. -1.
         22    1    3    3    0    0  0.45076364612E+01  0.58921024706E+02 -0.62469522002E+02  0.85990971142E+02  0.00000000000E+00 0. -1.
         22    1    3    3    0    0  0.19832391945E+03  0.65376649757E+02 -0.28212158000E+03  0.35099724965E+03  0.00000000000E+00 0. -1.
</event>
<event>
 7    1  0.8792454E-005  0.2474873E+03  0.7818608E-02  0.1182680E+00
          2   -1    0    0  502    0  0.00000000000E+00  0.00000000000E+00  0.39012525285E+03  0.39012525285E+03  0.00000000000E+00 0. -1.
          1   -1    0    0  501    0 -0.00000000000E+00 -0.00000000000E+00 -0.68627124086E+03  0.68627124086E+03  0.00000000000E+00 0. -1.
         25    2    1    2    0    0  0.19975833277E+03 -0.84283385904E+02 -0.11986765368E+03  0.27748943291E+03  0.12500020130E+03 0.  0.
          2    1    1    2  501    0 -0.18553861495E+03  0.19396957153E+03 -0.43860270327E+03  0.51421892578E+03  0.00000000000E+00 0. -1.
          1    1    1    2  502    0 -0.14219717816E+02 -0.10968618563E+03  0.26232436893E+03  0.28468813503E+03  0.00000000000E+00 0. -1.
         22    1    3    3    0    0  0.10776169077E+03 -0.10783885316E+03 -0.53234053894E+02  0.16147961092E+03  0.00000000000E+00 0. -1.
         22    1    3    3    0    0  0.91996641995E+02  0.23555467259E+02 -0.66633599783E+02  0.11600982198E+03  0.00000000000E+00 0. -1.
</event>
<event>
 7    1  0.8792454E-005  0.2906284E+03  0.7818608E-02  0.1229400E+00
          2   -1    0    0  502    0  0.00000000000E+00  0.00000000000E+00  0.63537765353E+03  0.63537765353E+03  0.00000000000E+00 0. -1.
          1   -1    0    0  501    0 -0.00000000000E+00 -0.00000000000E+00 -0.18454988961E+04  0.18454988961E+04  0.00000000000E+00 0. -1.
         25    2    1    2    0    0 -0.22096827677E+03  0.12794825652E+03  0.53418392235E+03  0.60512339863E+03  0.12499651591E+03 0.  0.
          2    1    1    2  501    0  0.22536919009E+03 -0.18476940895E+03 -0.17831336727E+04  0.18067918256E+04  0.00000000000E+00 0. -1.
          1    1    1    2  502    0 -0.44009133253E+01  0.56821152431E+02  0.38828507701E+02  0.68961325480E+02  0.00000000000E+00 0. -1.
         22    1    3    3    0    0 -0.20394969168E+03  0.13126846255E+03  0.38564194358E+03  0.45557282035E+03  0.00000000000E+00 0. -1.
         22    1    3    3    0    0 -0.17018585092E+02 -0.33202060318E+01  0.14854197878E+03  0.14955057829E+03  0.00000000000E+00 0. -1.
</event>
<event>
 7    1  0.8792454E-005  0.1141977E+03  0.7818608E-02  0.1345296E+00
          2   -1    0    0  502    0  0.00000000000E+00  0.00000000000E+00  0.92876214845E+03  0.92876214845E+03  0.00000000000E+00 0. -1.
          1   -1    0    0  501    0 -0.00000000000E+00 -0.00000000000E+00 -0.53754961282E+02  0.53754961282E+02  0.00000000000E+00 0. -1.
         25    2    1    2    0    0 -0.99683390157E+02 -0.32370360463E+02  0.69502297275E+03  0.71391031123E+03  0.12500552517E+03 0.  0.
          2    1    1    2  501    0 -0.34987792703E+02 -0.33813189921E+02  0.53890794712E+02  0.72606440524E+02  0.00000000000E+00 0. -1.
          1    1    1    2  502    0  0.13467118286E+03  0.66183550384E+02  0.12609341971E+03  0.19600035798E+03  0.00000000000E+00 0. -1.
         22    1    3    3    0    0  0.76920988109E+01 -0.45529335075E+02  0.32936026512E+03  0.33258122764E+03  0.00000000000E+00 0.  1.
         22    1    3    3    0    0 -0.10737548897E+03  0.13158974612E+02  0.36566270763E+03  0.38132908359E+03  0.00000000000E+00 0.  1.
</event>
<event>
 7    1  0.8792454E-005  0.2059271E+03  0.7818608E-02  0.1191475E+00
          2   -1    0    0  502    0  0.00000000000E+00  0.00000000000E+00  0.72225954192E+03  0.72225954192E+03  0.00000000000E+00 0. -1.
          1   -1    0    0  501    0 -0.00000000000E+00 -0.00000000000E+00 -0.14019415894E+04  0.14019415894E+04  0.00000000000E+00 0. -1.
         25    2    1    2    0    0 -0.15816808339E+02 -0.19171632344E+03 -0.25127938579E+03  0.34024975130E+03  0.12499297356E+03 0.  0.
          2    1    1    2  501    0  0.13416613876E+03  0.16874299743E+03 -0.10901757280E+04  0.11112865832E+04  0.00000000000E+00 0. -1.
          1    1    1    2  502    0 -0.11834933042E+03  0.22973326009E+02  0.66177306628E+03  0.67266479689E+03  0.00000000000E+00 0. -1.
         22    1    3    3    0    0  0.54338083449E+02 -0.10141774973E+03 -0.12696867980E+03  0.17134536155E+03  0.00000000000E+00 0. -1.
         22    1    3    3    0    0 -0.70154891788E+02 -0.90298573707E+02 -0.12431070599E+03  0.16890438975E+03  0.00000000000E+00 0. -1.
</event>
<event>
 7    1  0.8792454E-005  0.5369780E+03  0.7818608E-02  0.1065023E+00
          2   -1    0    0  502    0  0.00000000000E+00  0.00000000000E+00  0.92169863818E+03  0.92169863818E+03  0.00000000000E+00 0. -1.
          1   -1    0    0  501    0 -0.00000000000E+00 -0.00000000000E+00 -0.10638628835E+04  0.10638628835E+04  0.00000000000E+00 0. -1.
         25    2    1    2    0    0  0.46628731502E+03  0.20945630945E+03 -0.62175486751E+03  0.81455510554E+03  0.12500039593E+03 0.  0.
          2    1    1    2  501    0 -0.64125153618E+03 -0.75060125494E+02  0.27891158446E+01  0.64563560486E+03  0.00000000000E+00 0. -1.
          1    1    1    2  502    0  0.17496422116E+03 -0.13439618396E+03  0.47680150631E+03  0.52537081130E+03  0.00000000000E+00 0. -1.
         22    1    3    3    0    0  0.69656407820E+02  0.85992082471E+02 -0.12258392636E+03  0.16514682074E+03  0.00000000000E+00 0.  1.
         22    1    3    3    0    0  0.39663090720E+03  0.12346422698E+03 -0.49917094115E+03  0.64940828481E+03  0.00000000000E+00 0.  1.
</event>
<event>
 7    1  0.8792454E-005  0.2417772E+03  0.7818608E-02  0.1268281E+00
          2   -1    0    0  502    0  0.00000000000E+00  0.00000000000E+00  0.16321383421E+04  0.16321383421E+04  0.00000000000E+00 0. -1.
          1   -1    0    0  501    0 -0.00000000000E+00 -0.00000000000E+00 -0.37858230930E+03  0.37858230930E+03  0.00000000000E+00 0. -1.
         25    2    1    2    0    0 -0.19867154505E+03  0.13242022030E+03  0.12807723030E+04  0.13088178854E+04  0.12498426838E+03 0.  0.
          2    1    1    2  501    0  0.22337266525E+03 -0.93119406291E+02 -0.32238229153E+03  0.40310905882E+03  0.00000000000E+00 0. -1.
          1    1    1    2  502    0 -0.24701120202E+02 -0.39300814014E+02  0.29516602131E+03  0.29879370719E+03  0.00000000000E+00 0. -1.
         22    1    3    3    0    0 -0.56813946575E+02  0.24483553585E+02  0.12599347580E+03  0.14036247670E+03  0.00000000000E+00 0.  1.
         22    1    3    3    0    0 -0.14185759848E+03  0.10793666672E+03  0.11547788272E+04  0.11684554087E+04  0.00000000000E+00 0.  1.
</event>
<event>
 7    1  0.8792454E-005  0.8536777E+03  0.7818608E-02  0.1094983E+00
          2   -1    0    0  502    0  0.00000000000E+00  0.00000000000E+00  0.28465102542E+04  0.28465102542E+04  0.00000000000E+00 0. -1.
          1   -1    0    0  501    0 -0.00000000000E+00 -0.00000000000E+00 -0.35038364658E+03  0.35038364658E+03  0.00000000000E+00 0. -1.
         25    2    1    2    0    0 -0.53207219053E+03  0.68571233933E+03  0.75191372996E+03  0.11551209011E+04  0.12501124220E+03 0.  0.
          2    1    1    2  501    0  0.85561370352E+02  0.35647256013E+02 -0.99574334709E+01  0.93223524065E+02  0.00000000000E+00 0. -1.
          1    1    1    2  502    0  0.44651082017E+03 -0.72135959535E+03  0.17541703111E+04  0.19485494756E+04  0.00000000000E+00 0. -1.
         22    1    3    3    0    0 -0.24607131629E+03  0.22366778122E+03  0.25949134784E+03  0.42179868262E+03  0.00000000000E+00 0. -1.
         22    1    3    3    0    0 -0.28600087424E+03  0.46204455812E+03  0.49242238211E+03  0.73332221851E+03  0.00000000000E+00 0. -1.
</event>
<event>
 7    1  0.8792454E-005  0.4948851E+03  0.7818608E-02  0.1053053E+00
          2   -1    0    0  502    0  0.00000000000E+00  0.00000000000E+00  0.23638352452E+04  0.23638352452E+04  0.00000000000E+00 0. -1.
          1   -1    0    0  501    0 -0.00000000000E+00 -0.00000000000E+00 -0.10279852944E+04  0.10279852944E+04  0.00000000000E+00 0. -1.
         25    2    1    2    0    0 -0.23572709148E+03 -0.58920195590E+03 -0.43931993170E+03  0.78189191921E+03  0.12500705755E+03 0.  0.
          2    1    1    2  501    0  0.28316144163E+03  0.31007324991E+03 -0.29965989113E+03  0.51587001530E+03  0.00000000000E+00 0. -1.
          1    1    1    2  502    0 -0.47434350146E+02  0.27912870599E+03  0.20748297737E+04  0.20940586051E+04  0.00000000000E+00 0. -1.
         22    1    3    3    0    0 -0.97390892295E+02 -0.11211265241E+03 -0.78850481825E+02  0.16814169981E+03  0.00000000000E+00 0.  1.
         22    1    3    3    0    0 -0.13833619919E+03 -0.47708930349E+03 -0.36046944988E+03  0.61375021939E+03  0.00000000000E+00 0.  1.
</event>
<event>
 7    1  0.8792454E-005  0.1285268E+03  0.7818608E-02  0.1372240E+00
          2   -1    0    0  502    0  0.00000000000E+00  0.00000000000E+00  0.72415378469E+03  0.72415378469E+03  0.00000000000E+00 0. -1.
          1   -1    0    0  501    0 -0.00000000000E+00 -0.00000000000E+00 -0.48083010673E+03  0.48083010673E+03  0.00000000000E+00 0. -1.
         25    2    1    2    0    0  0.88985996242E+02 -0.94141008561E+02 -0.15651380393E+02  0.18069703883E+03  0.12500166845E+03 0.  0.
          2    1    1    2  501    0 -0.60663716726E+02  0.11376624856E+03 -0.37131176050E+03  0.39305886242E+03  0.00000000000E+00 0. -1.
          1    1    1    2  502    0 -0.28322279515E+02 -0.19625239996E+02  0.63028681885E+03  0.63122799017E+03  0.00000000000E+00 0. -1.
         22    1    3    3    0    0  0.33548750869E+02  0.10165508965E+02  0.37353503053E+02  0.51226364772E+02  0.00000000000E+00 0.  1.
         22    1    3    3    0    0  0.55437245373E+02 -0.10430651753E+03 -0.53004883446E+02  0.12947067406E+03  0.00000000000E+00 0.  1.
</event>
<event>
 7    1  0.8792454E-005  0.6674185E+02  0.7818608E-02  0.1469624E+00
          2   -1    0    0  502    0  0.00000000000E+00  0.00000000000E+00  0.35952206291E+03  0.35952206291E+03  0.00000000000E+00 0. -1.
          1   -1    0    0  501    0 -0.00000000000E+00 -0.00000000000E+00 -0.29178642084E+04  0.29178642084E+04  0.00000000000E+00 0. -1.
         25    2    1    2    0    0  0.65314107714E+02  0.61367815585E+02 -0.54671242928E+02  0.16323439562E+03  0.12499832660E+03 0.  0.
          2    1    1    2  501    0 -0.59155382997E+02 -0.30597418489E+02 -0.28077089211E+04  0.28084986998E+04  0.00000000000E+00 0. -1.
          1    1    1    2  502    0 -0.61587247174E+01 -0.30770397096E+02  0.30403801852E+03  0.30565317589E+03  0.00000000000E+00 0. -1.
         22    1    3    3    0    0  0.39650017803E-01  0.83843048155E+02 -0.38863359947E+02  0.92412223447E+02  0.00000000000E+00 0.  1.
         22    1    3    3    0    0  0.65274457696E+02 -0.22475232570E+02 -0.15807882981E+02  0.70822172171E+02  0.00000000000E+00 0.  1.
</event>
<event>
 7    1  0.8792454E-005  0.1991712E+03  0.7818608E-02  0.1159458E+00
          2   -1    0    0  502    0  0.00000000000E+00  0.00000000000E+00  0.22462900453E+04  0.22462900453E+04  0.00000000000E+00 0. -1.
          1   -1    0    0  501    0 -0.00000000000E+00 -0.00000000000E+00 -0.50554232009E+02  0.50554232009E+02  0.00000000000E+00 0. -1.
         25    2    1    2    0    0  0.13447880017E+03 -0.12215140790E+03  0.42639446535E+03  0.48004561437E+03  0.12500415050E+03 0.  0.
          2    1    1    2  501    0  0.96511473876E+02  0.15093892651E+03  0.81863600222E+03  0.83801069698E+03  0.00000000000E+00 0. -1.
          1    1    1    2  502    0 -0.23099027404E+03 -0.28787518609E+02  0.95070534567E+03  0.97878796591E+03  0.00000000000E+00 0. -1.
         22    1    3    3    0    0 -0.76803406604E+01  0.15046752600E+02  0.11276213814E+02  0.20311213515E+02  0.00000000000E+00 0.  1.
         22    1    3    3    0    0  0.14215914083E+03 -0.13719816050E+03  0.41511825154E+03  0.45973440085E+03  0.00000000000E+00 0.  1.
</event>
<event>
 7    1  0.8792454E-005  0.2868364E+03  0.7818608E-02  0.1150268E+00
          2   -1    0    0  502    0  0.00000000000E+00  0.00000000000E+00  0.17532301465E+03  0.17532301465E+03  0.00000000000E+00 0. -1.
          1   -1    0    0  501    0 -0.00000000000E+00 -0.00000000000E+00 -0.11644690735E+04  0.11644690735E+04  0.00000000000E+00 0. -1.
         25    2    1    2    0    0 -0.16281644474E+03  0.14638246796E+03 -0.15159073922E+03  0.29417997254E+03  0.12500032967E+03 0.  0.
          2    1    1    2  501    0  0.14560520666E+03 -0.28388988756E+03 -0.84859638265E+03  0.90659261254E+03  0.00000000000E+00 0. -1.
          1    1    1    2  502    0  0.17211238083E+02  0.13750741960E+03  0.11041063022E+02  0.13901950307E+03  0.00000000000E+00 0. -1.
         22    1    3    3    0    0 -0.10262425053E+03  0.96311203868E+02 -0.21538380815E+02  0.14237797104E+03  0.00000000000E+00 0. -1.
         22    1    3    3    0    0 -0.60192194211E+02  0.50071264095E+02 -0.13005235841E+03  0.15180200150E+03  0.00000000000E+00 0. -1.
</event>
<event>
 7    1  0.8792454E-005  0.2327577E+03  0.7818608E-02  0.1190552E+00
          2   -1    0    0  502    0  0.00000000000E+00  0.00000000000E+00  0.45896314721E+03  0.45896314721E+03  0.00000000000E+00 0. -1.
          1   -1    0    0  501    0 -0.00000000000E+00 -0.00000000000E+00 -0.22269364022E+04  0.22269364022E+04  0.00000000000E+00 0. -1.
         25    2    1    2    0    0  0.14635179332E+03  0.44269942081E+02 -0.18409314837E+03  0.26998703838E+03  0.12499615370E+03 0.  0.
          2    1    1    2  501    0  0.61222664775E+02  0.88670212566E+02 -0.19617744425E+04  0.19647314281E+04  0.00000000000E+00 0. -1.
          1    1    1    2  502    0 -0.20757445809E+03 -0.13294015465E+03  0.37789433597E+03  0.45118108285E+03  0.00000000000E+00 0. -1.
         22    1    3    3    0    0  0.24828796567E+02  0.68536188476E+02 -0.57580472330E+02  0.92893428527E+02  0.00000000000E+00 0.  1.
         22    1    3    3    0    0  0.12152299675E+03 -0.24266246395E+02 -0.12651267604E+03  0.17709360985E+03  0.00000000000E+00 0.  1.
</event>
<event>
 7    1  0.8792454E-005  0.5336069E+02  0.7818608E-02  0.1522789E+00
          2   -1    0    0  502    0  0.00000000000E+00  0.00000000000E+00  0.23099574538E+04  0.23099574538E+04  0.00000000000E+00 0. -1.
          1   -1    0    0  501    0 -0.00000000000E+00 -0.00000000000E+00 -0.12900300524E+02  0.12900300524E+02  0.00000000000E+00 0. -1.
         25    2    1    2    0    0  0.34828089907E+01  0.57882287005E+02  0.62301408799E+03  0.63807044178E+03  0.12499938294E+03 0.  0.
          2    1    1    2  501    0 -0.27812806901E+02 -0.45758022140E+02  0.13122581596E+03  0.14173060218E+03  0.00000000000E+00 0. -1.
          1    1    1    2  502    0  0.24329997910E+02 -0.12124264865E+02  0.15428172493E+04  0.15430567103E+04  0.00000000000E+00 0. -1.
         22    1    3    3    0    0  0.30680087655E+02  0.34710100679E+02  0.58131217198E+03  0.58315512530E+03  0.00000000000E+00 0. -1.
         22    1    3    3    0    0 -0.27197278664E+02  0.23172186326E+02  0.41701916008E+02  0.54915316484E+02  0.00000000000E+00 0. -1.
</event>
<event>
 7    1  0.2176562E-004  0.1365713E+03  0.7818608E-02  0.1223088E+00
          2   -1    0    0  502    0  0.00000000000E+00  0.00000000000E+00  0.21987984529E+04  0.21987984529E+04  0.00000000000E+00 0. -1.
          1   -1    0    0  501    0 -0.00000000000E+00 -0.00000000000E+00 -0.19058152985E+04  0.19058152985E+04  0.00000000000E+00 0. -1.
         25    2    1    2    0    0  0.12698349705E+03  0.22252357756E+03 -0.92007375502E+03  0.96322504451E+03  0.12500088237E+03 0.  0.
          2    1    1    2  501    0 -0.92488613520E+02 -0.90640607130E+02 -0.95766987459E+03  0.96638576769E+03  0.00000000000E+00 0. -1.
          1    1    1    2  502    0 -0.34494883529E+02 -0.13188297043E+03  0.21707267840E+04  0.21750029392E+04  0.00000000000E+00 0. -1.
         22    1    3    3    0    0  0.11117466843E+03  0.85293718048E+02 -0.35851741720E+03  0.38492799804E+03  0.00000000000E+00 0. -1.
         22    1    3    3    0    0  0.15808828616E+02  0.13722985951E+03 -0.56155633782E+03  0.57829704646E+03  0.00000000000E+00 0. -1.
</event>
<event>
 7    1  0.8792454E-005  0.1388882E+03  0.7818608E-02  0.1236323E+00
          2   -1    0    0  502    0  0.00000000000E+00  0.00000000000E+00  0.23278149290E+04  0.23278149290E+04  0.00000000000E+00 0. -1.
          1   -1    0    0  501    0 -0.00000000000E+00 -0.00000000000E+00 -0.41692609056E+02  0.41692609056E+02  0.00000000000E+00 0. -1.
         25    2    1    2    0    0 -0.75193793623E+02 -0.14011687452E+03  0.11765235277E+04  0.11937834578E+04  0.12499795054E+03 0.  0.
          2    1    1    2  501    0  0.11104888075E+03  0.20438588615E+01  0.81464906603E+02  0.13774092450E+03  0.00000000000E+00 0. -1.
          1    1    1    2  502    0 -0.35855087129E+02  0.13807301566E+03  0.10281338857E+04  0.10379831558E+04  0.00000000000E+00 0. -1.
         22    1    3    3    0    0 -0.33573152308E+02 -0.78342850932E+01  0.64399716482E+02  0.73046944233E+02  0.00000000000E+00 0. -1.
         22    1    3    3    0    0 -0.41620641315E+02 -0.13228258943E+03  0.11121238113E+04  0.11207365135E+04  0.00000000000E+00 0. -1.
</event>
<event>
 7    1  0.8792454E-005  0.1609051E+03  0.7818608E-02  0.1236862E+00
          2   -1    0    0  502    0  0.00000000000E+00  0.00000000000E+00  0.11206838536E+04  0.11206838536E+04  0.00000000000E+00 0. -1.
          1   -1    0    0  501    0 -0.00000000000E+00 -0.00000000000E+00 -0.29671924606E+03  0.29671924606E+03  0.00000000000E+00 0. -1.
         25    2    1    2    0    0  0.11957400719E+03 -0.14801231626E+03  0.37152285491E+03  0.43573010936E+03  0.12500363002E+03 0.  0.
          2    1    1    2  501    0 -0.14988066352E+03  0.57614107072E+02 -0.23666797310E+03  0.28599882538E+03  0.00000000000E+00 0. -1.
          1    1    1    2  502    0  0.30306656329E+02  0.90398209186E+02  0.68910972571E+03  0.69567416490E+03  0.00000000000E+00 0. -1.
         22    1    3    3    0    0  0.12707728552E+03 -0.16492900713E+03  0.35090414995E+03  0.40802443106E+03  0.00000000000E+00 0.  1.
         22    1    3    3    0    0 -0.75032783298E+01  0.16916690871E+02  0.20618704961E+02  0.27705678299E+02  0.00000000000E+00 0.  1.
</event>
<event>
 7    1  0.8792454E-005  0.9103418E+02  0.7818608E-02  0.1319590E+00
          2   -1    0    0  502    0  0.00000000000E+00  0.00000000000E+00  0.22265760041E+04  0.22265760041E+04  0.00000000000E+00 0. -1.
          1   -1    0    0  501    0 -0.00000000000E+00 -0.00000000000E+00 -0.75631300492E+03  0.75631300492E+03  0.00000000000E+00 0. -1.
         25    2    1    2    0    0 -0.83446619219E+01 -0.38844720460E+02  0.80774848026E+03  0.81832740004E+03  0.12499432228E+03 0.  0.
          2    1    1    2  501    0  0.15860571698E+02 -0.74797763354E+02 -0.74677421852E+03  0.75067835761E+03  0.00000000000E+00 0. -1.
          1    1    1    2  502    0 -0.75159097759E+01  0.11364248381E+03  0.14092887374E+04  0.14138832514E+04  0.00000000000E+00 0. -1.
         22    1    3    3    0    0  0.43484416200E+02  0.21188943064E+02  0.40202533096E+03  0.40492497144E+03  0.00000000000E+00 0.  1.
         22    1    3    3    0    0 -0.51829078122E+02 -0.60033663524E+02  0.40572314930E+03  0.41340242861E+03  0.00000000000E+00 0.  1.
</event>
<event>
 7    1  0.8792454E-005  0.1532420E+03  0.7818608E-02  0.1274450E+00
          2   -1    0    0  502    0  0.00000000000E+00  0.00000000000E+00  0.56063700819E+03  0.56063700819E+03  0.00000000000E+00 0. -1.
          1   -1    0    0  501    0 -0.00000000000E+00 -0.00000000000E+00 -0.72791773171E+03  0.72791773171E+03  0.00000000000E+00 0. -1.
         25    2    1    2    0    0  0.14461182159E+03  0.31749832878E+02  0.23699687734E+03  0.30612537698E+03  0.12499838292E+03 0.  0.
          2    1    1    2  501    0 -0.15646207876E+02  0.67208152427E+02 -0.66858357755E+03  0.67213520942E+03  0.00000000000E+00 0. -1.
          1    1    1    2  502    0 -0.12896561371E+03 -0.98957985305E+02  0.26430597669E+03  0.31029415349E+03  0.00000000000E+00 0. -1.
         22    1    3    3    0    0  0.30942532999E+02  0.32074040878E+02  0.14555078772E+01  0.44590390780E+02  0.00000000000E+00 0. -1.
         22    1    3    3    0    0  0.11366928859E+03 -0.32420800095E+00  0.23554136946E+03  0.26153498620E+03  0.00000000000E+00 0. -1.
</event>
<event>
 7    1  0.8792454E-005  0.1711926E+03  0.7818608E-02  0.1222038E+00
          2   -1    0    0  502    0  0.00000000000E+00  0.00000000000E+00  0.14918123442E+04  0.14918123442E+04  0.00000000000E+00 0. -1.
          1   -1    0    0  501    0 -0.00000000000E+00 -0.00000000000E+00 -0.51278617613E+03  0.51278617613E+03  0.00000000000E+00 0. -1.
         25    2    1    2    0    0  0.13747235461E+03  0.21367446844E+02  0.29099730227E+02  0.18927994117E+03  0.12499954305E+03 0.  0.
          2    1    1    2  501    0 -0.16192165574E+03  0.80180184027E+02 -0.41174559146E+03  0.44964643510E+03  0.00000000000E+00 0. -1.
          1    1    1    2  502    0  0.24449301132E+02 -0.10154763087E+03  0.13616720293E+04  0.13656721441E+04  0.00000000000E+00 0. -1.
         22    1    3    3    0    0  0.80892807711E+02  0.38005380482E+02  0.73291988930E+02  0.11558447528E+03  0.00000000000E+00 0.  1.
         22    1    3    3    0    0  0.56579546901E+02 -0.16637933637E+02 -0.44192258704E+02  0.73695465889E+02  0.00000000000E+00 0.  1.
</event>
<event>
 7    1  0.8792454E-005  0.8990820E+02  0.7818608E-02  0.1428168E+00
          2   -1    0    0  502    0  0.00000000000E+00  0.00000000000E+00  0.29141240940E+03  0.29141240940E+03  0.00000000000E+00 0. -1.
          1   -1    0    0  501    0 -0.00000000000E+00 -0.00000000000E+00 -0.11973072586E+04  0.11973072586E+04  0.00000000000E+00 0. -1.
         25    2    1    2    0    0  0.11640798678E+03 -0.40696530920E+01  0.24588071451E+03  0.29942556973E+03  0.12502385604E+03 0.  0.
          2    1    1    2  501    0 -0.87949347841E+02  0.17880381619E+02 -0.11540922306E+04  0.11575766378E+04  0.00000000000E+00 0. -1.
          1    1    1    2  502    0 -0.28458638937E+02 -0.13810728527E+02  0.23166668178E+01  0.31717460455E+02  0.00000000000E+00 0. -1.
         22    1    3    3    0    0  0.13341732154E+03  0.16018399266E+00  0.24815967377E+03  0.28175065400E+03  0.00000000000E+00 0.  1.
         22    1    3    3    0    0 -0.17009334764E+02 -0.42298370847E+01 -0.22789592533E+01  0.17674915733E+02  0.00000000000E+00 0.  1.
</event>
<event>
 7    1  0.8792454E-005  0.2520956E+03  0.7818608E-02  0.1201498E+00
          2   -1    0    0  502    0  0.00000000000E+00  0.00000000000E+00  0.35270012455E+03  0.35270012455E+03  0.00000000000E+00 0. -1.
          1   -1    0    0  501    0 -0.00000000000E+00 -0.00000000000E+00 -0.28576842408E+03  0.28576842408E+03  0.00000000000E+00 0. -1.
         25    2    1    2    0    0  0.26626601145E+03 -0.94963785193E+02  0.11183641767E+02  0.30930034296E+03  0.12500367579E+03 0.  0.
          2    1    1    2  501    0 -0.76453369677E+02 -0.44109683048E+02  0.25815627597E+02  0.91963191015E+02  0.00000000000E+00 0. -1.
          1    1    1    2  502    0 -0.18981264177E+03  0.13907346824E+03  0.29932431107E+02  0.23720501466E+03  0.00000000000E+00 0. -1.
         22    1    3    3    0    0  0.11114267396E+03  0.18230146587E+02  0.29413996823E+02  0.11640539261E+03  0.00000000000E+00 0.  1.
         22    1    3    3    0    0  0.15512333749E+03 -0.11319393178E+03 -0.18230355057E+02  0.19289495036E+03  0.00000000000E+00 0.  1.
</event>
<event>
 7    1  0.8792454E-005  0.7243131E+02  0.7818608E-02  0.1430825E+00
          2   -1    0    0  502    0  0.00000000000E+00  0.00000000000E+00  0.17127977906E+04  0.17127977906E+04  0.00000000000E+00 0. -1.
          1   -1    0    0  501    0 -0.00000000000E+00 -0.00000000000E+00 -0.28378796148E+02  0.28378796148E+02  0.00000000000E+00 0. -1.
         25    2    1    2    0    0 -0.27311039769E+02  0.78310980032E+01  0.15698777469E+03  0.20267518434E+03  0.12499939983E+03 0.  0.
          2    1    1    2  501    0  0.11614831340E+02 -0.78541237778E+02  0.35210147305E+03  0.36094193115E+03  0.00000000000E+00 0. -1.
          1    1    1    2  502    0  0.15696208428E+02  0.70710139775E+02  0.11753297467E+04  0.11775594712E+04  0.00000000000E+00 0. -1.
         22    1    3    3    0    0  0.10667325277E+02  0.25588829647E+02  0.15832019535E+03  0.16072916439E+03  0.00000000000E+00 0. -1.
         22    1    3    3    0    0 -0.37978365046E+02 -0.17757731643E+02 -0.13324206641E+01  0.41946019949E+02  0.00000000000E+00 0. -1.
</event>
<event>
 7    1  0.8792454E-005  0.1406981E+03  0.7818608E-02  0.1320138E+00
          2   -1    0    0  502    0  0.00000000000E+00  0.00000000000E+00  0.22533161949E+03  0.22533161949E+03  0.00000000000E+00 0. -1.
          1   -1    0    0  501    0 -0.00000000000E+00 -0.00000000000E+00 -0.15233920724E+04  0.15233920724E+04  0.00000000000E+00 0. -1.
         25    2    1    2    0    0 -0.12353710082E+03  0.24851949878E+02  0.96112658915E+02  0.20182044790E+03  0.12495925454E+03 0.  0.
          2    1    1    2  501    0  0.12028146476E+03 -0.73974229903E+02 -0.14588240346E+04  0.14656423102E+04  0.00000000000E+00 0. -1.
          1    1    1    2  502    0  0.32556360656E+01  0.49122280025E+02  0.64650922734E+02  0.81260933858E+02  0.00000000000E+00 0. -1.
         22    1    3    3    0    0  0.17408195421E+02 -0.80680711096E+01 -0.10670046446E+02  0.21954246296E+02  0.00000000000E+00 0.  1.
         22    1    3    3    0    0 -0.14094529625E+03  0.32920020987E+02  0.10678270536E+03  0.17986620161E+03  0.00000000000E+00 0.  1.
</event>
<event>
 7    1  0.8792454E-005  0.1629541E+03  0.7818608E-02  0.1233385E+00
          2   -1    0    0  502    0  0.00000000000E+00  0.00000000000E+00  0.15117644487E+04  0.15117644487E+04  0.00000000000E+00 0. -1.
          1   -1    0    0  501    0 -0.00000000000E+00 -0.00000000000E+00 -0.68588414860E+03  0.68588414860E+03  0.00000000000E+00 0. -1.
         25    2    1    2    0    0 -0.59424022501E+02  0.77955665631E+02  0.10544188076E+04  0.10663192778E+04  0.12501791962E+03 0.  0.
          2    1    1    2  501    0  0.12096970362E+02 -0.16326292353E+03 -0.66461129274E+03  0.68447738409E+03  0.00000000000E+00 0. -1.
          1    1    1    2  502    0  0.47327052140E+02  0.85307257898E+02  0.43607278529E+03  0.44685193542E+03  0.00000000000E+00 0. -1.
         22    1    3    3    0    0 -0.35982225647E+02  0.25375709249E+01  0.77809306411E+03  0.77892873631E+03  0.00000000000E+00 0. -1.
         22    1    3    3    0    0 -0.23441796854E+02  0.75418094707E+02  0.27632574347E+03  0.28739054152E+03  0.00000000000E+00 0. -1.
</event>
<event>
 7    1  0.8792454E-005  0.1722476E+03  0.7818608E-02  0.1192852E+00
          2   -1    0    0  502    0  0.00000000000E+00  0.00000000000E+00  0.21279737572E+03  0.21279737572E+03  0.00000000000E+00 0. -1.
          1   -1    0    0  501    0 -0.00000000000E+00 -0.00000000000E+00 -0.82464203772E+03  0.82464203772E+03  0.00000000000E+00 0. -1.
         25    2    1    2    0    0  0.22944274821E+02 -0.11547382165E+03 -0.75260938803E+02  0.18748277985E+03  0.12499976239E+03 0.  0.
          2    1    1    2  501    0 -0.17125232168E+03  0.18489994694E+02 -0.62755600436E+03  0.65076553089E+03  0.00000000000E+00 0. -1.
          1    1    1    2  502    0  0.14830804685E+03  0.96983826960E+02  0.90972281170E+02  0.19919110270E+03  0.00000000000E+00 0. -1.
         22    1    3    3    0    0  0.23407922965E+01 -0.94454969635E+01  0.33089960440E+02  0.34491190228E+02  0.00000000000E+00 0.  1.
         22    1    3    3    0    0  0.20603482524E+02 -0.10602832469E+03 -0.10835089924E+03  0.15299158962E+03  0.00000000000E+00 0.  1.
</event>
<event>
 7    1  0.8792454E-005  0.3063154E+03  0.7818608E-02  0.1173434E+00
          2   -1    0    0  502    0  0.00000000000E+00  0.00000000000E+00  0.15708704230E+03  0.15708704230E+03  0.00000000000E+00 0. -1.
          1   -1    0    0  501    0 -0.00000000000E+00 -0.00000000000E+00 -0.15070548038E+04  0.15070548038E+04  0.00000000000E+00 0. -1.
         25    2    1    2    0    0 -0.23776150633E+03  0.98121455694E+02 -0.24679908822E+03  0.37774694015E+03  0.12499842753E+03 0.  0.
          2    1    1    2  501    0  0.26117468398E+03 -0.19450139315E+03 -0.11361306499E+04  0.11818781076E+04  0.00000000000E+00 0. -1.
          1    1    1    2  502    0 -0.23413177644E+02  0.96379937460E+02  0.32961976666E+02  0.10451679835E+03  0.00000000000E+00 0. -1.
         22    1    3    3    0    0 -0.15819533463E+02  0.53577135028E+02 -0.26329822439E+02  0.61757805874E+02  0.00000000000E+00 0. -1.
         22    1    3    3    0    0 -0.22194197287E+03  0.44544320666E+02 -0.22046926578E+03  0.31598913428E+03  0.00000000000E+00 0. -1.
</event>
<event>
 7    1  0.8792454E-005  0.3707464E+03  0.7818608E-02  0.1185151E+00
          2   -1    0    0  502    0  0.00000000000E+00  0.00000000000E+00  0.16548447435E+04  0.16548447435E+04  0.00000000000E+00 0. -1.
          1   -1    0    0  501    0 -0.00000000000E+00 -0.00000000000E+00 -0.40656645268E+03  0.40656645268E+03  0.00000000000E+00 0. -1.
         25    2    1    2    0    0 -0.16869534479E+03 -0.36647784864E+03  0.13876276672E+04  0.14504824864E+04  0.12499907151E+03 0.  0.
          2    1    1    2  501    0  0.97674783801E+02  0.35576929413E+03 -0.27316607659E+03  0.45905539909E+03  0.00000000000E+00 0. -1.
          1    1    1    2  502    0  0.71020560987E+02  0.10708554512E+02  0.13381670027E+03  0.15187331067E+03  0.00000000000E+00 0. -1.
         22    1    3    3    0    0 -0.16073186694E+02 -0.12718884967E+03  0.29614978300E+03  0.32270736710E+03  0.00000000000E+00 0. -1.
         22    1    3    3    0    0 -0.15262215809E+03 -0.23928899898E+03  0.10914778842E+04  0.11277751193E+04  0.00000000000E+00 0. -1.
</event>
<event>
 7    1  0.8792454E-005  0.1648159E+03  0.7818608E-02  0.1209253E+00
          2   -1    0    0  502    0  0.00000000000E+00  0.00000000000E+00  0.37025653126E+04  0.37025653126E+04  0.00000000000E+00 0. -1.
          1   -1    0    0  501    0 -0.00000000000E+00 -0.00000000000E+00 -0.13124742384E+03  0.13124742384E+03  0.00000000000E+00 0. -1.
         25    2    1    2    0    0  0.18692407376E+03  0.16546898704E+03  0.18385086839E+03  0.33428537698E+03  0.12499990573E+03 0.  0.
          2    1    1    2  501    0 -0.30033105010E+02 -0.12051194403E+03  0.17283808733E+02  0.12539476103E+03  0.00000000000E+00 0. -1.
          1    1    1    2  502    0 -0.15689096874E+03 -0.44957043008E+02  0.33701832117E+04  0.33741325984E+04  0.00000000000E+00 0. -1.
         22    1    3    3    0    0  0.17448669322E+03  0.18160046530E+03  0.18699579592E+03  0.31367461293E+03  0.00000000000E+00 0. -1.
         22    1    3    3    0    0  0.12437380534E+02 -0.16131478257E+02 -0.31449275283E+01  0.20610764044E+02  0.00000000000E+00 0. -1.
</event>
<event>
 7    1  0.8792454E-005  0.1139302E+03  0.7818608E-02  0.1376366E+00
          2   -1    0    0  502    0  0.00000000000E+00  0.00000000000E+00  0.10718766933E+04  0.10718766933E+04  0.00000000000E+00 0. -1.
          1   -1    0    0  501    0 -0.00000000000E+00 -0.00000000000E+00 -0.72090284120E+02  0.72090284120E+02  0.00000000000E+00 0. -1.
         25    2    1    2    0    0 -0.10696902904E+03 -0.79223968776E+01  0.40112592776E+02  0.16951644860E+03  0.12498667409E+03 0.  0.
          2    1    1    2  501    0  0.17180339900E+01 -0.37535598737E+02  0.94222811070E+02  0.10143870533E+03  0.00000000000E+00 0. -1.
          1    1    1    2  502    0  0.10525099505E+03  0.45457995614E+02  0.86545100535E+03  0.87301182351E+03  0.00000000000E+00 0. -1.
         22    1    3    3    0    0 -0.97529218024E+02  0.31729301589E+02 -0.12106704641E+02  0.10327279044E+03  0.00000000000E+00 0. -1.
         22    1    3    3    0    0 -0.94398110167E+01 -0.39651698467E+02  0.52219297418E+02  0.66243658158E+02  0.00000000000E+00 0. -1.
</event>
<event>
 7    1  0.8792454E-005  0.1635872E+03  0.7818608E-02  0.1273730E+00
          2   -1    0    0  502    0  0.00000000000E+00  0.00000000000E+00  0.19294712062E+04  0.19294712062E+04  0.00000000000E+00 0. -1.
          1   -1    0    0  501    0 -0.00000000000E+00 -0.00000000000E+00 -0.29782884666E+02  0.29782884666E+02  0.00000000000E+00 0. -1.
         25    2    1    2    0    0 -0.11332870807E+03  0.12757828646E+03  0.10685912081E+04  0.10893278568E+04  0.12501357713E+03 0.  0.
          2    1    1    2  501    0  0.54373419664E+02 -0.15516471282E+03  0.37843544638E+03  0.41260870561E+03  0.00000000000E+00 0. -1.
          1    1    1    2  502    0  0.58955288409E+02  0.27586426360E+02  0.45266166708E+03  0.45731752841E+03  0.00000000000E+00 0. -1.
         22    1    3    3    0    0 -0.10628549423E+03  0.91208348026E+02  0.49195736883E+03  0.51150525098E+03  0.00000000000E+00 0.  1.
         22    1    3    3    0    0 -0.70432138425E+01  0.36369938433E+02  0.57663383922E+03  0.57782260584E+03  0.00000000000E+00 0.  1.
</event>
<event>
 7    1  0.8792454E-005  0.7591521E+02  0.7818608E-02  0.1346634E+00
          2   -1    0    0  502    0  0.00000000000E+00  0.00000000000E+00  0.92173837511E+02  0.92173837511E+02  0.00000000000E+00 0. -1.
          1   -1    0    0  501    0 -0.00000000000E+00 -0.00000000000E+00 -0.80811068477E+03  0.80811068477E+03  0.00000000000E+00 0. -1.
         25    2    1    2    0    0 -0.43918225897E+01  0.17623332766E+02 -0.36725303636E+03  0.38836113792E+03  0.12497884128E+03 0.  0.
          2    1    1    2  501    0 -0.72280435765E+02  0.33299666420E+01 -0.40697418833E+03  0.41335643220E+03  0.00000000000E+00 0. -1.
          1    1    1    2  502    0  0.76672258354E+02 -0.20953299408E+02  0.58290377434E+02  0.98566952162E+02  0.00000000000E+00 0. -1.
         22    1    3    3    0    0  0.58834803073E+02  0.15145832282E+02 -0.14343362473E+03  0.15576949314E+03  0.00000000000E+00 0.  1.
         22    1    3    3    0    0 -0.63226625663E+02  0.24775004840E+01 -0.22381941163E+03  0.23259164478E+03  0.00000000000E+00 0.  1.
</event>
<event>
 7    1  0.8792454E-005  0.1612341E+03  0.7818608E-02  0.1244097E+00
          2   -1    0    0  502    0  0.00000000000E+00  0.00000000000E+00  0.16441345072E+04  0.16441345072E+04  0.00000000000E+00 0. -1.
          1   -1    0    0  501    0 -0.00000000000E+00 -0.00000000000E+00 -0.11318398206E+04  0.11318398206E+04  0.00000000000E+00 0. -1.
         25    2    1    2    0    0  0.83152242541E+02 -0.14297656264E+02 -0.10318154508E+04  0.10427772912E+04  0.12499054475E+03 0.  0.
          2    1    1    2  501    0 -0.20701484446E+03 -0.88922995738E+02  0.50481779422E+02  0.23089143564E+03  0.00000000000E+00 0. -1.
          1    1    1    2  502    0  0.12386260192E+03  0.10322065200E+03  0.14936283579E+04  0.15023056010E+04  0.00000000000E+00 0. -1.
         22    1    3    3    0    0  0.60682576463E+02  0.49957661826E+02 -0.67184285613E+03  0.67642513732E+03  0.00000000000E+00 0. -1.
         22    1    3    3    0    0  0.22469666077E+02 -0.64255318090E+02 -0.35997259464E+03  0.36635215392E+03  0.00000000000E+00 0. -1.
</event>
<event>
 7    1  0.8792454E-005  0.1624479E+03  0.7818608E-02  0.1235337E+00
          2   -1    0    0  502    0  0.00000000000E+00  0.00000000000E+00  0.70425300636E+03  0.70425300636E+03  0.00000000000E+00 0. -1.
          1   -1    0    0  501    0 -0.00000000000E+00 -0.00000000000E+00 -0.10084735151E+04  0.10084735151E+04  0.00000000000E+00 0. -1.
         25    2    1    2    0    0 -0.12687897065E+03  0.90330105684E+02  0.14802387433E+03  0.24858468043E+03  0.12500189914E+03 0.  0.
          2    1    1    2  501    0  0.55187107310E+02 -0.15405765934E+03 -0.94656203772E+03  0.96060349284E+03  0.00000000000E+00 0. -1.
          1    1    1    2  502    0  0.71691863339E+02  0.63727553661E+02  0.49431765466E+03  0.50353834816E+03  0.00000000000E+00 0. -1.
         22    1    3    3    0    0 -0.14105205951E+03  0.86980919281E+02  0.15953005749E+03  0.23002435317E+03  0.00000000000E+00 0.  1.
         22    1    3    3    0    0  0.14173088856E+02  0.33491864025E+01 -0.11506183155E+02  0.18560327262E+02  0.00000000000E+00 0.  1.
</event>
<event>
 7    1  0.8792454E-005  0.8196152E+03  0.7818608E-02  0.1001254E+00
          2   -1    0    0  502    0  0.00000000000E+00  0.00000000000E+00  0.17115281787E+04  0.17115281787E+04  0.00000000000E+00 0. -1.
          1   -1    0    0  501    0 -0.00000000000E+00 -0.00000000000E+00 -0.74857710776E+03  0.74857710776E+03  0.00000000000E+00 0. -1.
         25    2    1    2    0    0  0.55018274286E+03 -0.93003434654E+03  0.29413170553E+03  0.11268558658E+04  0.12500298351E+03 0.  0.
          2    1    1    2  501    0 -0.12777291085E+03  0.34773958344E+03  0.30874390237E+02  0.37175524558E+03  0.00000000000E+00 0. -1.
          1    1    1    2  502    0 -0.42240983201E+03  0.58229476310E+03  0.63794497522E+03  0.96149417509E+03  0.00000000000E+00 0. -1.
         22    1    3    3    0    0  0.31460880262E+03 -0.64582571961E+03  0.18249901137E+03  0.74119865620E+03  0.00000000000E+00 0. -1.
         22    1    3    3    0    0  0.23557394024E+03 -0.28420862693E+03  0.11163269416E+03  0.38565720964E+03  0.00000000000E+00 0. -1.
</event>
<event>
 7    1  0.8792454E-005  0.1784577E+03  0.7818608E-02  0.1190679E+00
          2   -1    0    0  502    0  0.00000000000E+00  0.00000000000E+00  0.11568837999E+04  0.11568837999E+04  0.00000000000E+00 0. -1.
          1   -1    0    0  501    0 -0.00000000000E+00 -0.00000000000E+00 -0.87617313503E+02  0.87617313503E+02  0.00000000000E+00 0. -1.
         25    2    1    2    0    0 -0.11317767006E+02 -0.22556458611E+03  0.37852450447E+03  0.45816265140E+03  0.12499896119E+03 0.  0.
          2    1    1    2  501    0 -0.99462477067E+02  0.13940282209E+03  0.14990927948E+03  0.22759332860E+03  0.00000000000E+00 0. -1.
          1    1    1    2  502    0  0.11078024407E+03  0.86161764028E+02  0.54083270242E+03  0.55874513337E+03  0.00000000000E+00 0. -1.
         22    1    3    3    0    0 -0.55461594060E+02 -0.56016494780E+02  0.81981621969E+02  0.11373136086E+03  0.00000000000E+00 0.  1.
         22    1    3    3    0    0  0.44143827054E+02 -0.16954809133E+03  0.29654288250E+03  0.34443129054E+03  0.00000000000E+00 0.  1.
</event>
<event>
 7    1  0.8792454E-005  0.1789112E+03  0.7818608E-02  0.1183803E+00
          2   -1    0    0  502    0  0.00000000000E+00  0.00000000000E+00  0.41472552976E+03  0.41472552976E+03  0.00000000000E+00 0. -1.
          1   -1    0    0  501    0 -0.00000000000E+00 -0.00000000000E+00 -0.87605143015E+03  0.87605143015E+03  0.00000000000E+00 0. -1.
         25    2    1    2    0    0  0.63277340599E+02  0.34047970546E+02 -0.31766966351E+02  0.14759007836E+03  0.12494160615E+03 0.  0.
          2    1    1    2  501    0 -0.99107807398E+02  0.14895256456E+03 -0.75075803225E+03  0.77178160575E+03  0.00000000000E+00 0. -1.
          1    1    1    2  502    0  0.35830466799E+02 -0.18300053511E+03  0.32119909822E+03  0.37140527580E+03  0.00000000000E+00 0. -1.
         22    1    3    3    0    0  0.31075128764E+02 -0.27051963993E+02 -0.60159529633E+02  0.72915302847E+02  0.00000000000E+00 0.  1.
         22    1    3    3    0    0  0.32202211835E+02  0.61099934538E+02  0.28392563283E+02  0.74674775510E+02  0.00000000000E+00 0.  1.
</event>
<event>
 7    1  0.8792454E-005  0.2102509E+03  0.7818608E-02  0.1199072E+00
          2   -1    0    0  502    0  0.00000000000E+00  0.00000000000E+00  0.17918702191E+04  0.17918702191E+04  0.00000000000E+00 0. -1.
          1   -1    0    0  501    0 -0.00000000000E+00 -0.00000000000E+00 -0.18092611969E+04  0.18092611969E+04  0.00000000000E+00 0. -1.
         25    2    1    2    0    0 -0.13202369638E+03 -0.26775328442E+03 -0.14569534831E+04  0.14924682254E+04  0.12500349663E+03 0.  0.
          2    1    1    2  501    0 -0.47957887043E+01  0.10855042853E+03 -0.31931911008E+03  0.33729940585E+03  0.00000000000E+00 0. -1.
          1    1    1    2  502    0  0.13681948508E+03  0.15920285589E+03  0.17588816154E+04  0.17713637847E+04  0.00000000000E+00 0. -1.
         22    1    3    3    0    0 -0.95317520798E+02 -0.79502371766E+02 -0.73833210117E+03  0.74869242584E+03  0.00000000000E+00 0. -1.
         22    1    3    3    0    0 -0.36706175579E+02 -0.18825091265E+03 -0.71862138197E+03  0.74377579960E+03  0.00000000000E+00 0. -1.
</event>
<event>
 7    1  0.8792454E-005  0.6968141E+02  0.7818608E-02  0.1400737E+00
          2   -1    0    0  502    0  0.00000000000E+00  0.00000000000E+00  0.29052205783E+04  0.29052205783E+04  0.00000000000E+00 0. -1.
          1   -1    0    0  501    0 -0.00000000000E+00 -0.00000000000E+00 -0.70534066429E+02  0.70534066429E+02  0.00000000000E+00 0. -1.
         25    2    1    2    0    0 -0.27822223117E+02  0.15934634319E+01  0.35366083854E+02  0.13286505479E+03  0.12500299066E+03 0.  0.
          2    1    1    2  501    0 -0.26090544511E+02  0.43223488545E+02  0.85111607867E+01  0.51199866531E+02  0.00000000000E+00 0. -1.
          1    1    1    2  502    0  0.53912767628E+02 -0.44816951977E+02  0.27908092673E+04  0.27916897234E+04  0.00000000000E+00 0. -1.
         22    1    3    3    0    0 -0.20396732337E+02 -0.43486205600E+02 -0.27349568319E+02  0.55272738803E+02  0.00000000000E+00 0. -1.
         22    1    3    3    0    0 -0.74254907795E+01  0.45079669032E+02  0.62715652174E+02  0.77592315991E+02  0.00000000000E+00 0. -1.
</event>
<event>
 7    1  0.8792454E-005  0.2857073E+03  0.7818608E-02  0.1142598E+00
          2   -1    0    0  502    0  0.00000000000E+00  0.00000000000E+00  0.35989052418E+03  0.35989052418E+03  0.00000000000E+00 0. -1.
          1   -1    0    0  501    0 -0.00000000000E+00 -0.00000000000E+00 -0.73067914493E+03  0.73067914493E+03  0.00000000000E+00 0. -1.
         25    2    1    2    0    0 -0.21271854346E+02 -0.33921225337E+03  0.59283913502E+02  0.36695627122E+03  0.12499951184E+03 0.  0.
          2    1    1    2  501    0  0.14021309832E+03  0.24384611670E+03 -0.48574823791E+03  0.56131274011E+03  0.00000000000E+00 0. -1.
          1    1    1    2  502    0 -0.11894124398E+03  0.95366136670E+02  0.55675703656E+02  0.16230065779E+03  0.00000000000E+00 0. -1.
         22    1    3    3    0    0  0.41334469913E+02 -0.85382768600E+02 -0.12907224524E+02  0.95735845020E+02  0.00000000000E+00 0. -1.
         22    1    3    3    0    0 -0.62606324259E+02 -0.25382948477E+03  0.72191138027E+02  0.27122042620E+03  0.00000000000E+00 0. -1.
</event>
<event>
 7    1  0.8792454E-005  0.2297837E+03  0.7818608E-02  0.1200487E+00
          2   -1    0    0  502    0  0.00000000000E+00  0.00000000000E+00  0.11179986895E+04  0.11179986895E+04  0.00000000000E+00 0. -1.
          1   -1    0    0  501    0 -0.00000000000E+00 -0.00000000000E+00 -0.20449761055E+03  0.20449761055E+03  0.00000000000E+00 0. -1.
         25    2    1    2    0    0 -0.47536084069E+02  0.14130956859E+03  0.48518820869E+03  0.52274221511E+03  0.12499500847E+03 0.  0.
          2    1    1    2  501    0  0.10984567747E+03 -0.21682476863E+03 -0.99719412692E+02  0.26272231427E+03  0.00000000000E+00 0. -1.
          1    1    1    2  502    0 -0.62309593402E+02  0.75515200038E+02  0.52803228292E+03  0.53703177064E+03  0.00000000000E+00 0. -1.
         22    1    3    3    0    0 -0.23189348405E+02  0.16108579966E+03  0.41903534829E+03  0.44952975858E+03  0.00000000000E+00 0.  1.
         22    1    3    3    0    0 -0.24346735663E+02 -0.19776231064E+02  0.66152860394E+02  0.73212456528E+02  0.00000000000E+00 0.  1.
</event>
<event>
 7    1  0.8792454E-005  0.1403678E+03  0.7818608E-02  0.1221847E+00
          2   -1    0    0  502    0  0.00000000000E+00  0.00000000000E+00  0.13118691697E+04  0.13118691697E+04  0.00000000000E+00 0. -1.
          1   -1    0    0  501    0 -0.00000000000E+00 -0.00000000000E+00 -0.11236237305E+04  0.11236237305E+04  0.00000000000E+00 0. -1.
         25    2    1    2    0    0  0.53866702407E+02  0.47732019946E+02  0.35835340388E+03  0.38629271146E+03  0.12499971800E+03 0.  0.
          2    1    1    2  501    0  0.12675688141E+03  0.15003655145E+02 -0.10961841069E+04  0.11035905096E+04  0.00000000000E+00 0. -1.
          1    1    1    2  502    0 -0.18062358382E+03 -0.62735675091E+02  0.92607614228E+03  0.94560967913E+03  0.00000000000E+00 0. -1.
         22    1    3    3    0    0 -0.20339642593E+02 -0.13513509641E+02  0.12753791805E+02  0.27549504697E+02  0.00000000000E+00 0.  1.
         22    1    3    3    0    0  0.74206345000E+02  0.61245529587E+02  0.34559961208E+03  0.35874320677E+03  0.00000000000E+00 0.  1.
</event>
<event>
 7    1  0.8792454E-005  0.2478142E+03  0.7818608E-02  0.1119733E+00
          2   -1    0    0  502    0  0.00000000000E+00  0.00000000000E+00  0.20589569570E+04  0.20589569570E+04  0.00000000000E+00 0. -1.
          1   -1    0    0  501    0 -0.00000000000E+00 -0.00000000000E+00 -0.74481676208E+03  0.74481676208E+03  0.00000000000E+00 0. -1.
         25    2    1    2    0    0  0.39495241362E+03  0.42436084441E+00  0.88483991463E+03  0.97701228187E+03  0.12499494107E+03 0.  0.
          2    1    1    2  501    0 -0.20533269909E+03 -0.13514502666E+03 -0.66449595786E+03  0.70850587405E+03  0.00000000000E+00 0. -1.
          1    1    1    2  502    0 -0.18961971453E+03  0.13472066582E+03  0.10937962382E+04  0.11182555632E+04  0.00000000000E+00 0. -1.
         22    1    3    3    0    0  0.38952153952E+03  0.22137164740E+02  0.85406661737E+03  0.93896052671E+03  0.00000000000E+00 0.  1.
         22    1    3    3    0    0  0.54308741033E+01 -0.21712803896E+02  0.30773297260E+02  0.38051755161E+02  0.00000000000E+00 0.  1.
</event>
<event>
 7    1  0.8792454E-005  0.1335670E+03  0.7818608E-02  0.1320765E+00
          2   -1    0    0  502    0  0.00000000000E+00  0.00000000000E+00  0.17486221340E+03  0.17486221340E+03  0.00000000000E+00 0. -1.
          1   -1    0    0  501    0 -0.00000000000E+00 -0.00000000000E+00 -0.20190831270E+03  0.20190831270E+03  0.00000000000E+00 0. -1.
         25    2    1    2    0    0 -0.23527021571E+02  0.12783822781E+03 -0.34303015124E+02  0.18355995601E+03  0.12498570866E+03 0.  0.
          2    1    1    2  501    0 -0.50706823442E+02 -0.93902091267E+01  0.13421887084E+02  0.53287006145E+02  0.00000000000E+00 0. -1.
          1    1    1    2  502    0  0.74233845013E+02 -0.11844801869E+03 -0.61649712683E+01  0.13992356394E+03  0.00000000000E+00 0. -1.
         22    1    3    3    0    0 -0.63974065569E+02  0.52575780262E+02 -0.49937774090E+02  0.96698888394E+02  0.00000000000E+00 0. -1.
         22    1    3    3    0    0  0.40447043998E+02  0.75262447552E+02  0.15634758965E+02  0.86861067617E+02  0.00000000000E+00 0. -1.
</event>
<event>
 7    1  0.8792454E-005  0.5781322E+02  0.7818608E-02  0.1479403E+00
          2   -1    0    0  502    0  0.00000000000E+00  0.00000000000E+00  0.48798121500E+03  0.48798121500E+03  0.00000000000E+00 0. -1.
          1   -1    0    0  501    0 -0.00000000000E+00 -0.00000000000E+00 -0.18174901283E+04  0.18174901283E+04  0.00000000000E+00 0. -1.
         25    2    1    2    0    0 -0.11639731088E+02  0.80748544533E+02  0.20891857108E+03  0.25676461903E+03  0.12500115783E+03 0.  0.
          2    1    1    2  501    0 -0.11926514806E+02 -0.56531233651E+02 -0.17919806466E+04  0.17929117826E+04  0.00000000000E+00 0. -1.
          1    1    1    2  502    0  0.23566245893E+02 -0.24217310882E+02  0.25355316227E+03  0.25579494168E+03  0.00000000000E+00 0. -1.
         22    1    3    3    0    0  0.40735744944E+02  0.53649481301E+02  0.17770178835E+03  0.19004103069E+03  0.00000000000E+00 0. -1.
         22    1    3    3    0    0 -0.52375476031E+02  0.27099063232E+02  0.31216782727E+02  0.66723588343E+02  0.00000000000E+00 0. -1.
</event>
<event>
 7    1  0.8792454E-005  0.1552100E+03  0.7818608E-02  0.1286544E+00
          2   -1    0    0  502    0  0.00000000000E+00  0.00000000000E+00  0.13243777189E+04  0.13243777189E+04  0.00000000000E+00 0. -1.
          1   -1    0    0  501    0 -0.00000000000E+00 -0.00000000000E+00 -0.27843239049E+03  0.27843239049E+03  0.00000000000E+00 0. -1.
         25    2    1    2    0    0  0.15284654578E+03  0.54996797629E+02 -0.82260397919E+02  0.22085502071E+03  0.12499381104E+03 0.  0.
          2    1    1    2  501    0 -0.36821092859E+02  0.48294001256E+02 -0.11448375003E+03  0.12959410657E+03  0.00000000000E+00 0. -1.
          1    1    1    2  502    0 -0.11602545292E+03 -0.10329079888E+03  0.12426894763E+04  0.12523609821E+04  0.00000000000E+00 0. -1.
         22    1    3    3    0    0  0.10354536779E+03 -0.27176679453E+02 -0.59039419011E+02  0.12225329482E+03  0.00000000000E+00 0.  1.
         22    1    3    3    0    0  0.49301177993E+02  0.82173477081E+02 -0.23220978908E+02  0.98601725891E+02  0.00000000000E+00 0.  1.
</event>
<event>
 7    1  0.8792454E-005  0.2372756E+03  0.7818608E-02  0.1273038E+00
          2   -1    0    0  502    0  0.00000000000E+00  0.00000000000E+00  0.30685437099E+03  0.30685437099E+03  0.00000000000E+00 0. -1.
          1   -1    0    0  501    0 -0.00000000000E+00 -0.00000000000E+00 -0.21471101922E+04  0.21471101922E+04  0.00000000000E+00 0. -1.
         25    2    1    2    0    0 -0.20199597652E+03  0.18858029419E+03 -0.67076241811E+03  0.73614698225E+03  0.12500102413E+03 0.  0.
          2    1    1    2  501    0  0.41694867451E+02 -0.17388253306E+02 -0.13930665751E+04  0.13937988722E+04  0.00000000000E+00 0. -1.
          1    1    1    2  502    0  0.16030110907E+03 -0.17119204089E+03  0.22357317198E+03  0.32401870881E+03  0.00000000000E+00 0. -1.
         22    1    3    3    0    0 -0.62845010747E+02  0.60346312294E+02 -0.37532289874E+03  0.38530306396E+03  0.00000000000E+00 0. -1.
         22    1    3    3    0    0 -0.13915096577E+03  0.12823398190E+03 -0.29543951938E+03  0.35084391829E+03  0.00000000000E+00 0. -1.
</event>
<event>
 7    1  0.8792454E-005  0.1820156E+03  0.7818608E-02  0.1260124E+00
          2   -1    0    0  502    0  0.00000000000E+00  0.00000000000E+00  0.11314523835E+04  0.11314523835E+04  0.00000000000E+00 0. -1.
          1   -1    0    0  501    0 -0.00000000000E+00 -0.00000000000E+00 -0.69645116684E+03  0.69645116684E+03  0.00000000000E+00 0. -1.
         25    2    1    2    0    0  0.98975398374E+02  0.17977271808E+03  0.48448522421E+03  0.54079774079E+03  0.12498761665E+03 0.  0.
          2    1    1    2  501    0 -0.66277012456E+02 -0.80949900037E+01 -0.65422257223E+03  0.65762097386E+03  0.00000000000E+00 0. -1.
          1    1    1    2  502    0 -0.32698385918E+02 -0.17167772808E+03  0.60473856470E+03  0.62948483572E+03  0.00000000000E+00 0. -1.
         22    1    3    3    0    0  0.11106062686E+03  0.74799224894E+02  0.29133879647E+03  0.32063636913E+03  0.00000000000E+00 0. -1.
         22    1    3    3    0    0 -0.12085228489E+02  0.10497349319E+03  0.19314642774E+03  0.22016137165E+03  0.00000000000E+00 0. -1.
</event>
<event>
 7    1  0.8792454E-005  0.1334533E+03  0.7818608E-02  0.1241003E+00
          2   -1    0    0  502    0  0.00000000000E+00  0.00000000000E+00  0.53251340666E+03  0.53251340666E+03  0.00000000000E+00 0. -1.
          1   -1    0    0  501    0 -0.00000000000E+00 -0.00000000000E+00 -0.15496778997E+04  0.15496778997E+04  0.00000000000E+00 0. -1.
         25    2    1    2    0    0  0.73936036959E+02 -0.15345456678E+03 -0.20956669552E+02  0.21232183110E+03  0.12500614520E+03 0.  0.
          2    1    1    2  501    0  0.33582906401E+02  0.12922927533E+03 -0.14229112194E+04  0.14291621166E+04  0.00000000000E+00 0. -1.
          1    1    1    2  502    0 -0.10751894336E+03  0.24225291449E+02  0.42670339590E+03  0.44070735868E+03  0.00000000000E+00 0. -1.
         22    1    3    3    0    0 -0.13663120111E+02 -0.99870971150E+02 -0.38958646223E+02  0.10806788536E+03  0.00000000000E+00 0.  1.
         22    1    3    3    0    0  0.87599157070E+02 -0.53583595629E+02  0.18001976671E+02  0.10425394575E+03  0.00000000000E+00 0.  1.
</event>
<event>
 7    1  0.8792454E-005  0.2037923E+03  0.7818608E-02  0.1180838E+00
          2   -1    0    0  502    0  0.00000000000E+00  0.00000000000E+00  0.80573690522E+03  0.80573690522E+03  0.00000000000E+00 0. -1.
          1   -1    0    0  501    0 -0.00000000000E+00 -0.00000000000E+00 -0.13220929393E+03  0.13220929393E+03  0.00000000000E+00 0. -1.
         25    2    1    2    0    0 -0.18518494470E+03 -0.15028551909E+03  0.56328282971E+03  0.62433255062E+03  0.12499754607E+03 0.  0.
          2    1    1    2  501    0  0.13651812138E+03  0.12831038156E+02  0.95405219023E+02  0.16704487068E+03  0.00000000000E+00 0. -1.
          1    1    1    2  502    0  0.48666823318E+02  0.13745448094E+03  0.14839562552E+02  0.14656877784E+03  0.00000000000E+00 0. -1.
         22    1    3    3    0    0 -0.69832084341E+02 -0.43401976245E+02  0.34889331624E+03  0.35845055121E+03  0.00000000000E+00 0. -1.
         22    1    3    3    0    0 -0.11535286036E+03 -0.10688354285E+03  0.21438951347E+03  0.26588199941E+03  0.00000000000E+00 0. -1.
</event>
<event>
 7    1  0.8792454E-005  0.1883659E+03  0.7818608E-02  0.1232261E+00
          2   -1    0    0  502    0  0.00000000000E+00  0.00000000000E+00  0.34237124846E+03  0.34237124846E+03  0.00000000000E+00 0. -1.
          1   -1    0    0  501    0 -0.00000000000E+00 -0.00000000000E+00 -0.97102056989E+03  0.97102056989E+03  0.00000000000E+00 0. -1.
         25    2    1    2    0    0 -0.10832712776E+03  0.15355821432E+03  0.43421968898E+02  0.22983845292E+03  0.12500142104E+03 0.  0.
          2    1    1    2  501    0  0.29938072695E+02 -0.18738211193E+03 -0.85812028863E+03  0.87885082570E+03  0.00000000000E+00 0. -1.
          1    1    1    2  502    0  0.78389055063E+02  0.33823897606E+02  0.18604899830E+03  0.20470253973E+03  0.00000000000E+00 0. -1.
         22    1    3    3    0    0 -0.28717009998E+02 -0.18739734788E+02 -0.30660077971E+01  0.34427383389E+02  0.00000000000E+00 0. -1.
         22    1    3    3    0    0 -0.79610117760E+02  0.17229794911E+03  0.46487976695E+02  0.19541106953E+03  0.00000000000E+00 0. -1.
</event>
<event>
 7    1  0.8792454E-005  0.2019607E+03  0.7818608E-02  0.1201891E+00
          2   -1    0    0  502    0  0.00000000000E+00  0.00000000000E+00  0.16602273164E+04  0.16602273164E+04  0.00000000000E+00 0. -1.
          1   -1    0    0  501    0 -0.00000000000E+00 -0.00000000000E+00 -0.32903521234E+03  0.32903521234E+03  0.00000000000E+00 0. -1.
         25    2    1    2    0    0 -0.21230435451E+03  0.13062841846E+03  0.37342099076E+02  0.28134839219E+03  0.12500225107E+03 0.  0.
          2    1    1    2  501    0  0.10689444207E+03 -0.16103755066E+03 -0.15939619665E+03  0.25053275629E+03  0.00000000000E+00 0. -1.
          1    1    1    2  502    0  0.10540991244E+03  0.30409132200E+02  0.14532462016E+04  0.14573813802E+04  0.00000000000E+00 0. -1.
         22    1    3    3    0    0 -0.70012354090E+02  0.25494797127E+02  0.69079915815E+02  0.10160585207E+03  0.00000000000E+00 0. -1.
         22    1    3    3    0    0 -0.14229200042E+03  0.10513362134E+03 -0.31737816739E+02  0.17974254012E+03  0.00000000000E+00 0. -1.
</event>
<event>
 7    1  0.8792454E-005  0.1011390E+04  0.7818608E-02  0.1022777E+00
          2   -1    0    0  502    0  0.00000000000E+00  0.00000000000E+00  0.25447309747E+04  0.25447309747E+04  0.00000000000E+00 0. -1.
          1   -1    0    0  501    0 -0.00000000000E+00 -0.00000000000E+00 -0.68778907751E+03  0.68778907751E+03  0.00000000000E+00 0. -1.
         25    2    1    2    0    0 -0.10545609778E+04 -0.17070799068E+03  0.17682156829E+02  0.10757209327E+04  0.12499116977E+03 0.  0.
          2    1    1    2  501    0  0.87146853474E+03  0.56841897260E+02  0.12145986765E+04  0.14959740483E+04  0.00000000000E+00 0. -1.
          1    1    1    2  502    0  0.18309244305E+03  0.11386609342E+03  0.62466106390E+03  0.66082507117E+03  0.00000000000E+00 0. -1.
         22    1    3    3    0    0 -0.79170272043E+03 -0.92730409537E+02  0.55011544500E+02  0.79901088629E+03  0.00000000000E+00 0.  1.
         22    1    3    3    0    0 -0.26285825736E+03 -0.77977581147E+02 -0.37329387671E+02  0.27671004645E+03  0.00000000000E+00 0.  1.
</event>
<event>
 7    1  0.8792454E-005  0.1310135E+04  0.7818608E-02  0.1017363E+00
          2   -1    0    0  502    0  0.00000000000E+00  0.00000000000E+00  0.12197143492E+04  0.12197143492E+04  0.00000000000E+00 0. -1.
          1   -1    0    0  501    0 -0.00000000000E+00 -0.00000000000E+00 -0.18334355474E+04  0.18334355474E+04  0.00000000000E+00 0. -1.
         25    2    1    2    0    0  0.26507782051E+01  0.12601851569E+04 -0.80519237660E+03  0.15006777168E+04  0.12500075997E+03 0.  0.
          2    1    1    2  501    0 -0.16626040782E+03  0.70670277762E+02  0.10467613494E+03  0.20879153382E+03  0.00000000000E+00 0. -1.
          1    1    1    2  502    0  0.16360962962E+03 -0.13308554347E+04  0.86795043390E+02  0.13436806460E+04  0.00000000000E+00 0. -1.
         22    1    3    3    0    0 -0.59518444984E+02  0.76232043109E+03 -0.48692438461E+03  0.90651543907E+03  0.00000000000E+00 0.  1.
         22    1    3    3    0    0  0.62169223189E+02  0.49786472583E+03 -0.31826799199E+03  0.59416227772E+03  0.00000000000E+00 0.  1.
</event>
<event>
 7    1  0.8792454E-005  0.4216781E+03  0.7818608E-02  0.1076993E+00
          2   -1    0    0  502    0  0.00000000000E+00  0.00000000000E+00  0.90827547196E+03  0.90827547196E+03  0.00000000000E+00 0. -1.
          1   -1    0    0  501    0 -0.00000000000E+00 -0.00000000000E+00 -0.76228347897E+03  0.76228347897E+03  0.00000000000E+00 0. -1.
         25    2    1    2    0    0  0.24640394412E+03  0.55691311934E+03  0.80902546894E+02  0.62692790751E+03  0.12500501169E+03 0.  0.
          2    1    1    2  501    0 -0.13075247564E+03 -0.19940961972E+03 -0.38774951899E+03  0.45520335653E+03  0.00000000000E+00 0. -1.
          1    1    1    2  502    0 -0.11565146849E+03 -0.35750349962E+03  0.45283896508E+03  0.58842768689E+03  0.00000000000E+00 0. -1.
         22    1    3    3    0    0  0.51693263397E+02  0.40185095964E+02 -0.13141263729E+02  0.66781196685E+02  0.00000000000E+00 0.  1.
         22    1    3    3    0    0  0.19471068073E+03  0.51672802337E+03  0.94043810623E+02  0.56014671082E+03  0.00000000000E+00 0.  1.
</event>
<event>
 7    1  0.8792454E-005  0.2046508E+03  0.7818608E-02  0.1224542E+00
          2   -1    0    0  502    0  0.00000000000E+00  0.00000000000E+00  0.46580520516E+03  0.46580520516E+03  0.00000000000E+00 0. -1.
          1   -1    0    0  501    0 -0.00000000000E+00 -0.00000000000E+00 -0.41072630950E+03  0.41072630950E+03  0.00000000000E+00 0. -1.
         25    2    1    2    0    0 -0.18201179926E+03 -0.61700381339E+02  0.11838464654E+03  0.25802167679E+03  0.12500011612E+03 0.  0.
          2    1    1    2  501    0  0.20845415853E+03 -0.19206606007E+02 -0.30065794856E+03  0.36635670044E+03  0.00000000000E+00 0. -1.
          1    1    1    2  502    0 -0.26442359276E+02  0.80906987346E+02  0.23735219769E+03  0.25215313743E+03  0.00000000000E+00 0. -1.
         22    1    3    3    0    0 -0.10348518409E+03  0.15602383341E+02  0.12842825493E+02  0.10543982103E+03  0.00000000000E+00 0. -1.
         22    1    3    3    0    0 -0.78526615161E+02 -0.77302764680E+02  0.10554182104E+03  0.15258185575E+03  0.00000000000E+00 0. -1.
</event>
<event>
 7    1  0.8792454E-005  0.1944760E+03  0.7818608E-02  0.1250688E+00
          2   -1    0    0  502    0  0.00000000000E+00  0.00000000000E+00  0.34153556343E+03  0.34153556343E+03  0.00000000000E+00 0. -1.
          1   -1    0    0  501    0 -0.00000000000E+00 -0.00000000000E+00 -0.76708846937E+03  0.76708846937E+03  0.00000000000E+00 0. -1.
         25    2    1    2    0    0 -0.70761863963E+02  0.11138086796E+03 -0.59522234219E+03  0.62235678835E+03  0.12500158487E+03 0.  0.
          2    1    1    2  501    0 -0.14100135260E+02  0.67147314139E+02 -0.11843311450E+03  0.13687212361E+03  0.00000000000E+00 0. -1.
          1    1    1    2  502    0  0.84861999222E+02 -0.17852818210E+03  0.28810255075E+03  0.34939512084E+03  0.00000000000E+00 0. -1.
         22    1    3    3    0    0 -0.89336310129E+02  0.11477546914E+03 -0.58041525268E+03  0.59836130403E+03  0.00000000000E+00 0. -1.
         22    1    3    3    0    0  0.18574446167E+02 -0.33946011809E+01 -0.14807089510E+02  0.23995484311E+02  0.00000000000E+00 0. -1.
</event>
<event>
 7    1  0.8792454E-005  0.1361287E+03  0.7818608E-02  0.1346631E+00
          2   -1    0    0  502    0  0.00000000000E+00  0.00000000000E+00  0.18021686684E+04  0.18021686684E+04  0.00000000000E+00 0. -1.
          1   -1    0    0  501    0 -0.00000000000E+00 -0.00000000000E+00 -0.10105918549E+03  0.10105918549E+03  0.00000000000E+00 0. -1.
         25    2    1    2    0    0 -0.99634652125E+02  0.32096290311E+02  0.16675042446E+03  0.23320897359E+03  0.12499394206E+03 0.  0.
          2    1    1    2  501    0 -0.38188346616E+02 -0.13038217623E+02 -0.58514957554E+02  0.71079850828E+02  0.00000000000E+00 0. -1.
          1    1    1    2  502    0  0.13782299874E+03 -0.19058072688E+02  0.15928740160E+04  0.15989390295E+04  0.00000000000E+00 0. -1.
         22    1    3    3    0    0 -0.66712111636E+02 -0.24532006035E+02  0.14940000357E+03  0.16544692873E+03  0.00000000000E+00 0.  1.
         22    1    3    3    0    0 -0.32922540489E+02  0.56628296346E+02  0.17350420889E+02  0.67762044865E+02  0.00000000000E+00 0.  1.
</event>
<event>
 7    1  0.8792454E-005  0.6242399E+03  0.7818608E-02  0.1192439E+00
          2   -1    0    0  502    0  0.00000000000E+00  0.00000000000E+00  0.32770851206E+04  0.32770851206E+04  0.00000000000E+00 0. -1.
          1   -1    0    0  501    0 -0.00000000000E+00 -0.00000000000E+00 -0.38041676495E+03  0.38041676495E+03  0.00000000000E+00 0. -1.
         25    2    1    2    0    0 -0.16755175212E+03 -0.58732995182E+03  0.17699205868E+03  0.64805976125E+03  0.12500081350E+03 0.  0.
          2    1    1    2  501    0  0.19026272975E+03  0.61946533598E+03  0.58081912469E+03  0.87022299694E+03  0.00000000000E+00 0. -1.
          1    1    1    2  502    0 -0.22710977623E+02 -0.32135384158E+02  0.21388571722E+04  0.21392191273E+04  0.00000000000E+00 0. -1.
         22    1    3    3    0    0 -0.63816089367E+02 -0.78742409235E+02  0.53089034483E+02  0.11441724458E+03  0.00000000000E+00 0. -1.
         22    1    3    3    0    0 -0.10373566276E+03 -0.50858754258E+03  0.12390302420E+03  0.53364251667E+03  0.00000000000E+00 0. -1.
</event>
<event>
 7    1  0.8792454E-005  0.1625043E+03  0.7818608E-02  0.1289433E+00
          2   -1    0    0  502    0  0.00000000000E+00  0.00000000000E+00  0.60168977883E+03  0.60168977883E+03  0.00000000000E+00 0. -1.
          1   -1    0    0  501    0 -0.00000000000E+00 -0.00000000000E+00 -0.38396360235E+03  0.38396360235E+03  0.00000000000E+00 0. -1.
         25    2    1    2    0    0  0.22976392940E+02  0.14096831118E+03  0.28158184936E+03  0.33957989074E+03  0.12500473957E+03 0.  0.
          2    1    1    2  501    0 -0.79358084044E+02 -0.14375457134E+03 -0.33288724771E+03  0.37118324581E+03  0.00000000000E+00 0. -1.
          1    1    1    2  502    0  0.56381691104E+02  0.27862601523E+01  0.26903157483E+03  0.27489024463E+03  0.00000000000E+00 0. -1.
         22    1    3    3    0    0  0.11934423573E+02  0.93663063254E+02  0.27475425289E+03  0.29052555716E+03  0.00000000000E+00 0.  1.
         22    1    3    3    0    0  0.11041969367E+02  0.47305247930E+02  0.68275964723E+01  0.49054333578E+02  0.00000000000E+00 0.  1.
</event>
<event>
 7    1  0.8792454E-005  0.5483509E+03  0.7818608E-02  0.1005883E+00
          2   -1    0    0  502    0  0.00000000000E+00  0.00000000000E+00  0.24974394647E+04  0.24974394647E+04  0.00000000000E+00 0. -1.
          1   -1    0    0  501    0 -0.00000000000E+00 -0.00000000000E+00 -0.18948486714E+04  0.18948486714E+04  0.00000000000E+00 0. -1.
         25    2    1    2    0    0  0.71050345314E+03 -0.63008942184E+03 -0.31303728294E+03  0.10076930675E+04  0.12500056545E+03 0.  0.
          2    1    1    2  501    0 -0.20216161342E+03  0.47372541274E+03 -0.11454929544E+04  0.12559614617E+04  0.00000000000E+00 0. -1.
          1    1    1    2  502    0 -0.50834183971E+03  0.15636400910E+03  0.20611210307E+04  0.21286336069E+04  0.00000000000E+00 0. -1.
         22    1    3    3    0    0  0.13161131170E+03 -0.59536990441E+02 -0.34760673204E+02  0.14857488011E+03  0.00000000000E+00 0. -1.
         22    1    3    3    0    0  0.57889214143E+03 -0.57055243140E+03 -0.27827660974E+03  0.85911818740E+03  0.00000000000E+00 0. -1.
</event>
<event>
 7    1  0.8792454E-005  0.8090045E+03  0.7818608E-02  0.1229849E+00
          2   -1    0    0  502    0  0.00000000000E+00  0.00000000000E+00  0.10546536650E+04  0.10546536650E+04  0.00000000000E+00 0. -1.
          1   -1    0    0  501    0 -0.00000000000E+00 -0.00000000000E+00 -0.10735237624E+04  0.10735237624E+04  0.00000000000E+00 0. -1.
         25    2    1    2    0    0 -0.33203406753E+03  0.72095455397E+03  0.65277636786E+03  0.10352600548E+04  0.12499721534E+03 0.  0.
          2    1    1    2  501    0  0.33232693470E+03 -0.74133144108E+03 -0.68969977161E+03  0.10656919217E+04  0.00000000000E+00 0. -1.
          1    1    1    2  502    0 -0.29286717663E+00  0.20376887116E+02  0.18053306438E+02  0.27225450833E+02  0.00000000000E+00 0. -1.
         22    1    3    3    0    0 -0.19501104202E+03  0.36230756923E+03  0.41087957803E+03  0.58147924199E+03  0.00000000000E+00 0.  1.
         22    1    3    3    0    0 -0.13702302551E+03  0.35864698474E+03  0.24189678982E+03  0.45378081285E+03  0.00000000000E+00 0.  1.
</event>
<event>
 7    1  0.8792454E-005  0.6736065E+02  0.7818608E-02  0.1405937E+00
          2   -1    0    0  502    0  0.00000000000E+00  0.00000000000E+00  0.88076966529E+03  0.88076966529E+03  0.00000000000E+00 0. -1.
          1   -1    0    0  501    0 -0.00000000000E+00 -0.00000000000E+00 -0.14984705957E+04  0.14984705957E+04  0.00000000000E+00 0. -1.
         25    2    1    2    0    0 -0.11218239313E+03 -0.15999765777E+02  0.37081809686E+03  0.40738557033E+03  0.12496423535E+03 0.  0.
          2    1    1    2  501    0  0.67027726357E+02 -0.57745778074E+01 -0.14781419378E+04  0.14796721428E+04  0.00000000000E+00 0. -1.
          1    1    1    2  502    0  0.45154666769E+02  0.21774343585E+02  0.48962291050E+03  0.49218254790E+03  0.00000000000E+00 0. -1.
         22    1    3    3    0    0 -0.95656734554E+02 -0.26345695504E+02  0.11953732325E+03  0.15534953552E+03  0.00000000000E+00 0.  1.
         22    1    3    3    0    0 -0.16525658573E+02  0.10345929726E+02  0.25128077361E+03  0.25203603481E+03  0.00000000000E+00 0.  1.
</event>
<event>
 7    1  0.8792454E-005  0.3411638E+03  0.7818608E-02  0.1175002E+00
          2   -1    0    0  502    0  0.00000000000E+00  0.00000000000E+00  0.83435366495E+03  0.83435366495E+03  0.00000000000E+00 0. -1.
          1   -1    0    0  501    0 -0.00000000000E+00 -0.00000000000E+00 -0.62974941040E+03  0.62974941040E+03  0.00000000000E+00 0. -1.
         25    2    1    2    0    0 -0.28246090205E+03 -0.23448027391E+03  0.54067569306E+03  0.66537343425E+03  0.12500576748E+03 0.  0.
          2    1    1    2  501    0  0.20346627406E+03  0.27206770142E+03 -0.50491383682E+03  0.60856991501E+03  0.00000000000E+00 0. -1.
          1    1    1    2  502    0  0.78994627989E+02 -0.37587427510E+02  0.16884239832E+03  0.19015972609E+03  0.00000000000E+00 0. -1.
         22    1    3    3    0    0 -0.17150066347E+03 -0.12962434770E+03  0.41601244516E+03  0.46827481634E+03  0.00000000000E+00 0. -1.
         22    1    3    3    0    0 -0.11096023858E+03 -0.10485592622E+03  0.12466324790E+03  0.19709861791E+03  0.00000000000E+00 0. -1.
</event>
<event>
 7    1  0.8792454E-005  0.1394188E+03  0.7818608E-02  0.1318116E+00
          2   -1    0    0  502    0  0.00000000000E+00  0.00000000000E+00  0.13462529785E+04  0.13462529785E+04  0.00000000000E+00 0. -1.
          1   -1    0    0  501    0 -0.00000000000E+00 -0.00000000000E+00 -0.55321532305E+02  0.55321532305E+02  0.00000000000E+00 0. -1.
         25    2    1    2    0    0  0.17620026940E+03  0.23681945534E+02  0.37260913014E+03  0.43135785417E+03  0.12499866005E+03 0.  0.
          2    1    1    2  501    0 -0.48442966196E+02  0.14576187719E+02  0.92660538264E+01  0.51430010459E+02  0.00000000000E+00 0. -1.
          1    1    1    2  502    0 -0.12775730321E+03 -0.38258133253E+02  0.90905626221E+03  0.91878664616E+03  0.00000000000E+00 0. -1.
         22    1    3    3    0    0  0.10486242644E+03 -0.43159408948E+02  0.14842113558E+03  0.18678248458E+03  0.00000000000E+00 0.  1.
         22    1    3    3    0    0  0.71337842966E+02  0.66841354482E+02  0.22418799456E+03  0.24457536959E+03  0.00000000000E+00 0.  1.
</event>
<event>
 7    1  0.8792454E-005  0.1691105E+03  0.7818608E-02  0.1308364E+00
          2   -1    0    0  502    0  0.00000000000E+00  0.00000000000E+00  0.15356617241E+04  0.15356617241E+04  0.00000000000E+00 0. -1.
          1   -1    0    0  501    0 -0.00000000000E+00 -0.00000000000E+00 -0.10439834597E+03  0.10439834597E+03  0.00000000000E+00 0. -1.
         25    2    1    2    0    0 -0.11387341634E+03  0.63750256700E+02  0.23653616953E+01  0.18072482711E+03  0.12499847207E+03 0.  0.
          2    1    1    2  501    0 -0.45540714778E+02 -0.61296794974E+00  0.42241667726E+02  0.62118362217E+02  0.00000000000E+00 0. -1.
          1    1    1    2  502    0  0.15941413112E+03 -0.63137288750E+02  0.13866563487E+04  0.13972168807E+04  0.00000000000E+00 0. -1.
         22    1    3    3    0    0 -0.69427205672E+02 -0.30654868049E+02 -0.54418191072E+01  0.76088574817E+02  0.00000000000E+00 0.  1.
         22    1    3    3    0    0 -0.44446210671E+02  0.94405124749E+02  0.78071808025E+01  0.10463625229E+03  0.00000000000E+00 0.  1.
</event>
<event>
 7    1  0.8792454E-005  0.1760437E+03  0.7818608E-02  0.1220087E+00
          2   -1    0    0  502    0  0.00000000000E+00  0.00000000000E+00  0.37056604131E+03  0.37056604131E+03  0.00000000000E+00 0. -1.
          1   -1    0    0  501    0 -0.00000000000E+00 -0.00000000000E+00 -0.24354878040E+04  0.24354878040E+04  0.00000000000E+00 0. -1.
         25    2    1    2    0    0 -0.31550564219E+02  0.21265571220E+03 -0.14714422622E+04  0.14923087233E+04  0.12500041806E+03 0.  0.
          2    1    1    2  501    0 -0.51632218821E+02 -0.15078515382E+03 -0.93929697760E+03  0.95272286672E+03  0.00000000000E+00 0. -1.
          1    1    1    2  502    0  0.83182783041E+02 -0.61870558383E+02  0.34581747709E+03  0.36102225534E+03  0.00000000000E+00 0. -1.
         22    1    3    3    0    0 -0.25571459136E+02  0.11145247954E+03 -0.39832364352E+03  0.41441196858E+03  0.00000000000E+00 0.  1.
         22    1    3    3    0    0 -0.59791050837E+01  0.10120323266E+03 -0.10731186187E+04  0.10778967547E+04  0.00000000000E+00 0.  1.
</event>
<event>
 7    1  0.8792454E-005  0.6689305E+02  0.7818608E-02  0.1457976E+00
          2   -1    0    0  502    0  0.00000000000E+00  0.00000000000E+00  0.55508679303E+03  0.55508679303E+03  0.00000000000E+00 0. -1.
          1   -1    0    0  501    0 -0.00000000000E+00 -0.00000000000E+00 -0.37873611708E+03  0.37873611708E+03  0.00000000000E+00 0. -1.
         25    2    1    2    0    0  0.54495928867E+02 -0.27729781357E+02  0.19134928048E+03  0.23660004190E+03  0.12500514249E+03 0.  0.
          2    1    1    2  501    0  0.14298657517E+02  0.30911979589E+02 -0.35180393508E+03  0.35344873861E+03  0.00000000000E+00 0. -1.
          1    1    1    2  502    0 -0.68794586384E+02 -0.31821982323E+01  0.33680533054E+03  0.34377412960E+03  0.00000000000E+00 0. -1.
         22    1    3    3    0    0  0.55049017636E+02 -0.58429563630E+02  0.56168661806E+02  0.97976154332E+02  0.00000000000E+00 0. -1.
         22    1    3    3    0    0 -0.55308876930E+00  0.30699782273E+02  0.13518061867E+03  0.13862388756E+03  0.00000000000E+00 0. -1.
</event>
<event>
 7    1  0.8792454E-005  0.4246717E+03  0.7818608E-02  0.1067741E+00
          2   -1    0    0  502    0  0.00000000000E+00  0.00000000000E+00  0.30701552063E+04  0.30701552063E+04  0.00000000000E+00 0. -1.
          1   -1    0    0  501    0 -0.00000000000E+00 -0.00000000000E+00 -0.83554617298E+03  0.83554617298E+03  0.00000000000E+00 0. -1.
         25    2    1    2    0    0 -0.12070359032E+03  0.22500227651E+03  0.12804770068E+04  0.13116559633E+04  0.12499847921E+03 0.  0.
          2    1    1    2  501    0  0.38777449258E+03 -0.19559776610E+03 -0.75117946232E+03  0.86769702536E+03  0.00000000000E+00 0. -1.
          1    1    1    2  502    0 -0.26707090225E+03 -0.29404510409E+02  0.17053114888E+04  0.17263483906E+04  0.00000000000E+00 0. -1.
         22    1    3    3    0    0 -0.10930419319E+02 -0.15846843944E+02  0.71718867169E+02  0.74257608617E+02  0.00000000000E+00 0.  1.
         22    1    3    3    0    0 -0.10977317100E+03  0.24084912046E+03  0.12087581397E+04  0.12373983547E+04  0.00000000000E+00 0.  1.
</event>
<event>
 7    1  0.8792454E-005  0.1401361E+03  0.7818608E-02  0.1273390E+00
          2   -1    0    0  502    0  0.00000000000E+00  0.00000000000E+00  0.30644993144E+02  0.30644993144E+02  0.00000000000E+00 0. -1.
          1   -1    0    0  501    0 -0.00000000000E+00 -0.00000000000E+00 -0.15790477687E+04  0.15790477687E+04  0.00000000000E+00 0. -1.
         25    2    1    2    0    0 -0.85473537103E+02 -0.16377203623E+03 -0.77513614568E+03  0.80659035282E+03  0.12499979013E+03 0.  0.
          2    1    1    2  501    0 -0.22228045383E+01  0.76198659236E+02 -0.45889087996E+03  0.46517955269E+03  0.00000000000E+00 0. -1.
          1    1    1    2  502    0  0.87696341642E+02  0.87573376999E+02 -0.31437574992E+03  0.33792285634E+03  0.00000000000E+00 0. -1.
         22    1    3    3    0    0 -0.60142366305E+02 -0.13850869081E+03 -0.36646627367E+03  0.39635752976E+03  0.00000000000E+00 0.  1.
         22    1    3    3    0    0 -0.25331170798E+02 -0.25263345425E+02 -0.40866987200E+03  0.41023282306E+03  0.00000000000E+00 0.  1.
</event>
<event>
 7    1  0.8792454E-005  0.1459849E+04  0.7818608E-02  0.1121030E+00
          2   -1    0    0  502    0  0.00000000000E+00  0.00000000000E+00  0.31721246476E+04  0.31721246476E+04  0.00000000000E+00 0. -1.
          1   -1    0    0  501    0 -0.00000000000E+00 -0.00000000000E+00 -0.18630542782E+04  0.18630542782E+04  0.00000000000E+00 0. -1.
         25    2    1    2    0    0  0.26258873127E+03  0.14186069995E+04  0.63238627679E+03  0.15801697056E+04  0.12500093877E+03 0.  0.
          2    1    1    2  501    0 -0.29762366298E+03 -0.14353987380E+04 -0.10021405611E+04  0.17757350833E+04  0.00000000000E+00 0. -1.
          1    1    1    2  502    0  0.35034931711E+02  0.16791738572E+02  0.16788246537E+04  0.16792741369E+04  0.00000000000E+00 0. -1.
         22    1    3    3    0    0  0.83739800773E+01  0.15733009413E+03  0.10668681439E+03  0.19027600591E+03  0.00000000000E+00 0.  1.
         22    1    3    3    0    0  0.25421475119E+03  0.12612769053E+04  0.52569946240E+03  0.13898936997E+04  0.00000000000E+00 0.  1.
</event>
<event>
 7    1  0.8792454E-005  0.1395394E+04  0.7818608E-02  0.1069500E+00
          2   -1    0    0  502    0  0.00000000000E+00  0.00000000000E+00  0.35538300264E+04  0.35538300264E+04  0.00000000000E+00 0. -1.
          1   -1    0    0  501    0 -0.00000000000E+00 -0.00000000000E+00 -0.82403818733E+03  0.82403818733E+03  0.00000000000E+00 0. -1.
         25    2    1    2    0    0  0.13407311725E+03  0.13642906515E+04  0.75001951584E+03  0.15676158234E+04  0.12500205247E+03 0.  0.
          2    1    1    2  501    0 -0.20108382633E+03 -0.14076490530E+04  0.80742208552E+03  0.16351883640E+04  0.00000000000E+00 0. -1.
          1    1    1    2  502    0  0.67010709071E+02  0.43358401550E+02  0.11723502377E+04  0.11750640264E+04  0.00000000000E+00 0. -1.
         22    1    3    3    0    0  0.13775909567E+03  0.11735364200E+04  0.60181496931E+03  0.13260266041E+04  0.00000000000E+00 0. -1.
         22    1    3    3    0    0 -0.36859784198E+01  0.19075423149E+03  0.14820454652E+03  0.24158921929E+03  0.00000000000E+00 0. -1.
</event>
<event>
 7    1  0.8792454E-005  0.4744910E+03  0.7818608E-02  0.1049472E+00
          2   -1    0    0  502    0  0.00000000000E+00  0.00000000000E+00  0.40599085264E+04  0.40599085264E+04  0.00000000000E+00 0. -1.
          1   -1    0    0  501    0 -0.00000000000E+00 -0.00000000000E+00 -0.23984266658E+04  0.23984266658E+04  0.00000000000E+00 0. -1.
         25    2    1    2    0    0  0.15781151514E+03 -0.39092968828E+03 -0.64060280313E+03  0.77699911728E+03  0.12500072556E+03 0.  0.
          2    1    1    2  501    0  0.12129229782E+03  0.52752943959E+03 -0.16400015127E+04  0.17270217407E+04  0.00000000000E+00 0. -1.
          1    1    1    2  502    0 -0.27910381296E+03 -0.13659975131E+03  0.39420861765E+04  0.39543143342E+04  0.00000000000E+00 0. -1.
         22    1    3    3    0    0  0.17835101640E+03 -0.33473430900E+03 -0.56669965015E+03  0.68191248424E+03  0.00000000000E+00 0. -1.
         22    1    3    3    0    0 -0.20539501257E+02 -0.56195379279E+02 -0.73903152975E+02  0.95086633045E+02  0.00000000000E+00 0. -1.
</event>
<event>
 7    1  0.8792454E-005  0.7052549E+02  0.7818608E-02  0.1410203E+00
          2   -1    0    0  502    0  0.00000000000E+00  0.00000000000E+00  0.12598258593E+04  0.12598258593E+04  0.00000000000E+00 0. -1.
          1   -1    0    0  501    0 -0.00000000000E+00 -0.00000000000E+00 -0.27471236409E+03  0.27471236409E+03  0.00000000000E+00 0. -1.
         25    2    1    2    0    0  0.10917060318E+02  0.85914259902E+02  0.17075373333E+01  0.15207924772E+03  0.12499895857E+03 0.  0.
          2    1    1    2  501    0 -0.44651732894E+02 -0.54188874155E+02 -0.19287937448E+03  0.20526242821E+03  0.00000000000E+00 0. -1.
          1    1    1    2  502    0  0.33734672576E+02 -0.31725385747E+02  0.11762853324E+04  0.11771965475E+04  0.00000000000E+00 0. -1.
         22    1    3    3    0    0  0.25439342157E+01  0.11557442209E+03 -0.15731705054E+02  0.11666792698E+03  0.00000000000E+00 0.  1.
         22    1    3    3    0    0  0.83731261022E+01 -0.29660162186E+02  0.17439242387E+02  0.35411320741E+02  0.00000000000E+00 0.  1.
</event>
<event>
 7    1  0.8792454E-005  0.4146621E+03  0.7818608E-02  0.1114449E+00
          2   -1    0    0  502    0  0.00000000000E+00  0.00000000000E+00  0.57417236851E+03  0.57417236851E+03  0.00000000000E+00 0. -1.
          1   -1    0    0  501    0 -0.00000000000E+00 -0.00000000000E+00 -0.62810451382E+03  0.62810451382E+03  0.00000000000E+00 0. -1.
         25    2    1    2    0    0  0.48701336248E+03  0.18520808714E+03  0.15507325686E+02  0.53604891453E+03  0.12499564328E+03 0.  0.
          2    1    1    2  501    0 -0.35797970817E+03 -0.11158505670E+03 -0.23598992997E+03  0.44304846619E+03  0.00000000000E+00 0. -1.
          1    1    1    2  502    0 -0.12903365431E+03 -0.73623030444E+02  0.16655045897E+03  0.22317950161E+03  0.00000000000E+00 0. -1.
         22    1    3    3    0    0  0.34269323339E+03  0.10594703890E+03 -0.43098780745E+02  0.36127680823E+03  0.00000000000E+00 0.  1.
         22    1    3    3    0    0  0.14432012910E+03  0.79261048241E+02  0.58606106431E+02  0.17477210630E+03  0.00000000000E+00 0.  1.
</event>
<event>
 7    1  0.8792454E-005  0.2536821E+03  0.7818608E-02  0.1182961E+00
          2   -1    0    0  502    0  0.00000000000E+00  0.00000000000E+00  0.94507123371E+03  0.94507123371E+03  0.00000000000E+00 0. -1.
          1   -1    0    0  501    0 -0.00000000000E+00 -0.00000000000E+00 -0.27690511998E+03  0.27690511998E+03  0.00000000000E+00 0. -1.
         25    2    1    2    0    0  0.12913771904E+03 -0.23753442902E+03  0.49682466280E+03  0.57927445925E+03  0.12499999248E+03 0.  0.
          2    1    1    2  501    0  0.66477140130E+02  0.84563054560E+02 -0.18165302959E+03  0.21111121125E+03  0.00000000000E+00 0. -1.
          1    1    1    2  502    0 -0.19561485917E+03  0.15297137446E+03  0.35299448052E+03  0.43159068319E+03  0.00000000000E+00 0. -1.
         22    1    3    3    0    0  0.29032051311E+02 -0.12670966344E+03  0.33362923810E+03  0.35805958628E+03  0.00000000000E+00 0.  1.
         22    1    3    3    0    0  0.10010566773E+03 -0.11082476559E+03  0.16319542470E+03  0.22121487297E+03  0.00000000000E+00 0.  1.
</event>
<event>
 7    1  0.8792454E-005  0.5890791E+03  0.7818608E-02  0.1003546E+00
          2   -1    0    0  502    0  0.00000000000E+00  0.00000000000E+00  0.24643897348E+04  0.24643897348E+04  0.00000000000E+00 0. -1.
          1   -1    0    0  501    0 -0.00000000000E+00 -0.00000000000E+00 -0.13622676569E+04  0.13622676569E+04  0.00000000000E+00 0. -1.
         25    2    1    2    0    0 -0.31088043990E+03 -0.42439912396E+03  0.19022632416E+03  0.57321271693E+03  0.12500200047E+03 0.  0.
          2    1    1    2  501    0  0.45219746098E+03 -0.20683251806E+03 -0.10639463539E+04  0.11744122267E+04  0.00000000000E+00 0. -1.
          1    1    1    2  502    0 -0.14131702107E+03  0.63123164201E+03  0.19758421076E+04  0.20790324481E+04  0.00000000000E+00 0. -1.
         22    1    3    3    0    0 -0.31328333955E+03 -0.38931602398E+03  0.15442592445E+03  0.52303038488E+03  0.00000000000E+00 0.  1.
         22    1    3    3    0    0  0.24028996460E+01 -0.35083099982E+02  0.35800399712E+02  0.50182332056E+02  0.00000000000E+00 0.  1.
</event>
<event>
 7    1  0.8792454E-005  0.4009537E+03  0.7818608E-02  0.1211462E+00
          2   -1    0    0  502    0  0.00000000000E+00  0.00000000000E+00  0.34361761802E+03  0.34361761802E+03  0.00000000000E+00 0. -1.
          1   -1    0    0  501    0 -0.00000000000E+00 -0.00000000000E+00 -0.23534363753E+04  0.23534363753E+04  0.00000000000E+00 0. -1.
         25    2    1    2    0    0 -0.28999879117E+03 -0.28990766533E+03 -0.42746038086E+03  0.60538621535E+03  0.12499735693E+03 0.  0.
          2    1    1    2  501    0  0.43763673211E+02 -0.23898319211E+02 -0.16802182970E+04  0.16809580346E+04  0.00000000000E+00 0. -1.
          1    1    1    2  502    0  0.24623511796E+03  0.31380598454E+03  0.97859920510E+02  0.41070974336E+03  0.00000000000E+00 0. -1.
         22    1    3    3    0    0 -0.54037090775E+02 -0.19734977685E+02 -0.16398822518E+02  0.59819711665E+02  0.00000000000E+00 0. -1.
         22    1    3    3    0    0 -0.23596170040E+03 -0.27017268764E+03 -0.41106155834E+03  0.54556650369E+03  0.00000000000E+00 0. -1.
</event>
<event>
 7    1  0.8792454E-005  0.4954606E+03  0.7818608E-02  0.1091641E+00
          2   -1    0    0  502    0  0.00000000000E+00  0.00000000000E+00  0.16896850448E+04  0.16896850448E+04  0.00000000000E+00 0. -1.
          1   -1    0    0  501    0 -0.00000000000E+00 -0.00000000000E+00 -0.95914144022E+03  0.95914144022E+03  0.00000000000E+00 0. -1.
         25    2    1    2    0    0 -0.41488474406E+03 -0.19930891486E+03  0.10434243805E+04  0.11472629747E+04  0.12499800375E+03 0.  0.
          2    1    1    2  501    0  0.49639161765E+03  0.53695559210E+02 -0.82423732263E+03  0.96366748164E+03  0.00000000000E+00 0. -1.
          1    1    1    2  502    0 -0.81506873593E+02  0.14561335565E+03  0.51135654666E+03  0.53789602861E+03  0.00000000000E+00 0. -1.
         22    1    3    3    0    0 -0.28425464820E+03 -0.69361589347E+02  0.62905160044E+03  0.69377060410E+03  0.00000000000E+00 0. -1.
         22    1    3    3    0    0 -0.13063009586E+03 -0.12994732552E+03  0.41437278008E+03  0.45349237063E+03  0.00000000000E+00 0. -1.
</event>
<event>
 7    1  0.8792454E-005  0.1543045E+03  0.7818608E-02  0.1251604E+00
          2   -1    0    0  502    0  0.00000000000E+00  0.00000000000E+00  0.10521974613E+04  0.10521974613E+04  0.00000000000E+00 0. -1.
          1   -1    0    0  501    0 -0.00000000000E+00 -0.00000000000E+00 -0.18082213279E+03  0.18082213279E+03  0.00000000000E+00 0. -1.
         25    2    1    2    0    0 -0.32144895379E+02 -0.10435169477E+03  0.24751286930E+03  0.29801217700E+03  0.12500426661E+03 0.  0.
          2    1    1    2  501    0  0.11730293460E+03  0.11386337621E+03 -0.10943188487E+03  0.19672362424E+03  0.00000000000E+00 0. -1.
          1    1    1    2  502    0 -0.85158039223E+02 -0.95116814360E+01  0.73329434404E+03  0.73828379281E+03  0.00000000000E+00 0. -1.
         22    1    3    3    0    0 -0.34469845415E+00  0.67693318484E+01 -0.12079600448E+02  0.13851332704E+02  0.00000000000E+00 0. -1.
         22    1    3    3    0    0 -0.31800196925E+02 -0.11112102662E+03  0.25959246975E+03  0.28416084430E+03  0.00000000000E+00 0. -1.
</event>
<event>
 7    1  0.8792454E-005  0.4965410E+03  0.7818608E-02  0.1079487E+00
          2   -1    0    0  502    0  0.00000000000E+00  0.00000000000E+00  0.13355760070E+04  0.13355760070E+04  0.00000000000E+00 0. -1.
          1   -1    0    0  501    0 -0.00000000000E+00 -0.00000000000E+00 -0.48761701955E+03  0.48761701955E+03  0.00000000000E+00 0. -1.
         25    2    1    2    0    0  0.39911724600E+03 -0.24218682475E+03  0.24061822285E+03  0.53988042742E+03  0.12499885041E+03 0.  0.
          2    1    1    2  501    0 -0.31579391456E+03  0.41936343597E+03 -0.11286843931E+03  0.53696440524E+03  0.00000000000E+00 0. -1.
          1    1    1    2  502    0 -0.83323331441E+02 -0.17717661122E+03  0.72020920387E+03  0.74634819385E+03  0.00000000000E+00 0. -1.
         22    1    3    3    0    0  0.18513559025E+03 -0.87260083439E+02  0.40929141692E+02  0.20872159346E+03  0.00000000000E+00 0.  1.
         22    1    3    3    0    0  0.21398165575E+03 -0.15492674131E+03  0.19968908116E+03  0.33115883396E+03  0.00000000000E+00 0.  1.
</event>
<event>
 7    1  0.8792454E-005  0.5085103E+03  0.7818608E-02  0.1057698E+00
          2   -1    0    0  502    0  0.00000000000E+00  0.00000000000E+00  0.13173344255E+04  0.13173344255E+04  0.00000000000E+00 0. -1.
          1   -1    0    0  501    0 -0.00000000000E+00 -0.00000000000E+00 -0.82202514431E+03  0.82202514431E+03  0.00000000000E+00 0. -1.
         25    2    1    2    0    0  0.31004635157E+03  0.60072181367E+03 -0.80858648972E+02  0.69221243447E+03  0.12499798313E+03 0.  0.
          2    1    1    2  501    0 -0.22758015350E+03 -0.12164496256E+03 -0.32994307175E+03  0.41887068861E+03  0.00000000000E+00 0. -1.
          1    1    1    2  502    0 -0.82466198076E+02 -0.47907685110E+03  0.90611100190E+03  0.10282764467E+04  0.00000000000E+00 0. -1.
         22    1    3    3    0    0  0.13696018753E+03  0.39801407322E+03 -0.50561287507E+02  0.42394544371E+03  0.00000000000E+00 0. -1.
         22    1    3    3    0    0  0.17308616404E+03  0.20270774045E+03 -0.30297361466E+02  0.26826699076E+03  0.00000000000E+00 0. -1.
</event>
<event>
 7    1  0.8792454E-005  0.2476271E+03  0.7818608E-02  0.1278984E+00
          2   -1    0    0  502    0  0.00000000000E+00  0.00000000000E+00  0.67577854072E+03  0.67577854072E+03  0.00000000000E+00 0. -1.
          1   -1    0    0  501    0 -0.00000000000E+00 -0.00000000000E+00 -0.59151492113E+03  0.59151492113E+03  0.00000000000E+00 0. -1.
         25    2    1    2    0    0 -0.26593632013E+03 -0.29326912317E+02 -0.54727989388E+02  0.30033831647E+03  0.12500302942E+03 0.  0.
          2    1    1    2  501    0  0.24229848258E+03 -0.40393998447E+01 -0.37764113809E+03  0.44870669773E+03  0.00000000000E+00 0. -1.
          1    1    1    2  502    0  0.23637837550E+02  0.33366312162E+02  0.51663274707E+03  0.51824844765E+03  0.00000000000E+00 0. -1.
         22    1    3    3    0    0 -0.16039428337E+03 -0.22053033711E+01 -0.92303632120E+02  0.18507066219E+03  0.00000000000E+00 0.  1.
         22    1    3    3    0    0 -0.10554203676E+03 -0.27121608946E+02  0.37575642732E+02  0.11526765428E+03  0.00000000000E+00 0.  1.
</event>
<event>
 7    1  0.8792454E-005  0.2140822E+03  0.7818608E-02  0.1166563E+00
          2   -1    0    0  502    0  0.00000000000E+00  0.00000000000E+00  0.26139469563E+04  0.26139469563E+04  0.00000000000E+00 0. -1.
          1   -1    0    0  501    0 -0.00000000000E+00 -0.00000000000E+00 -0.34424248796E+03  0.34424248796E+03  0.00000000000E+00 0. -1.
         25    2    1    2    0    0 -0.28032796263E+02  0.15515807541E+03  0.19612974299E+04  0.19715914383E+04  0.12500129964E+03 0.  0.
          2    1    1    2  501    0 -0.12394812234E+03 -0.17681016687E+03 -0.29409165515E+03  0.36484911096E+03  0.00000000000E+00 0. -1.
          1    1    1    2  502    0  0.15198091861E+03  0.21652091461E+02  0.60249869359E+03  0.62174889502E+03  0.00000000000E+00 0. -1.
         22    1    3    3    0    0 -0.56868112115E+01  0.15262724378E+03  0.19028027592E+04  0.19089226689E+04  0.00000000000E+00 0.  1.
         22    1    3    3    0    0 -0.22345985052E+02  0.25308316273E+01  0.58494670736E+02  0.62668769424E+02  0.00000000000E+00 0.  1.
</event>
<event>
 7    1  0.8792454E-005  0.1567394E+03  0.7818608E-02  0.1311243E+00
          2   -1    0    0  502    0  0.00000000000E+00  0.00000000000E+00  0.12587738529E+04  0.12587738529E+04  0.00000000000E+00 0. -1.
          1   -1    0    0  501    0 -0.00000000000E+00 -0.00000000000E+00 -0.30721190864E+03  0.30721190864E+03  0.00000000000E+00 0. -1.
         25    2    1    2    0    0  0.11987440662E+03 -0.16092276310E+03  0.20327206571E+03  0.31178612560E+03  0.12500018550E+03 0.  0.
          2    1    1    2  501    0 -0.90894704362E+02  0.12281871018E+03 -0.22924200687E+03  0.27549624420E+03  0.00000000000E+00 0. -1.
          1    1    1    2  502    0 -0.28979702260E+02  0.38104052925E+02  0.97753188538E+03  0.97870339171E+03  0.00000000000E+00 0. -1.
         22    1    3    3    0    0 -0.15463625758E+02 -0.42373488957E+02  0.72032899356E+01  0.45678481519E+02  0.00000000000E+00 0.  1.
         22    1    3    3    0    0  0.13533803238E+03 -0.11854927415E+03  0.19606877577E+03  0.26610764409E+03  0.00000000000E+00 0.  1.
</event>
<event>
 7    1  0.8792454E-005  0.1224652E+03  0.7818608E-02  0.1241815E+00
          2   -1    0    0  502    0  0.00000000000E+00  0.00000000000E+00  0.73229820758E+02  0.73229820758E+02  0.00000000000E+00 0. -1.
          1   -1    0    0  501    0 -0.00000000000E+00 -0.00000000000E+00 -0.12730960480E+04  0.12730960480E+04  0.00000000000E+00 0. -1.
         25    2    1    2    0    0 -0.13859422367E+03 -0.40059953527E+02 -0.74625512916E+03  0.77028092562E+03  0.12499131114E+03 0.  0.
          2    1    1    2  501    0  0.99487133436E+02 -0.75993346713E+02 -0.43440293669E+03  0.45208250339E+03  0.00000000000E+00 0. -1.
          1    1    1    2  502    0  0.39107090234E+02  0.11605330024E+03 -0.19208161382E+02  0.12396243974E+03  0.00000000000E+00 0. -1.
         22    1    3    3    0    0 -0.56149662298E+02 -0.77629403448E+02 -0.30020653031E+03  0.31512389579E+03  0.00000000000E+00 0. -1.
         22    1    3    3    0    0 -0.82444561372E+02  0.37569449921E+02 -0.44604859885E+03  0.45515702983E+03  0.00000000000E+00 0. -1.
</event>
<event>
 7    1  0.8792454E-005  0.2620372E+03  0.7818608E-02  0.1218185E+00
          2   -1    0    0  502    0  0.00000000000E+00  0.00000000000E+00  0.21415515178E+04  0.21415515178E+04  0.00000000000E+00 0. -1.
          1   -1    0    0  501    0 -0.00000000000E+00 -0.00000000000E+00 -0.58024815362E+03  0.58024815362E+03  0.00000000000E+00 0. -1.
         25    2    1    2    0    0  0.53914570302E+02  0.23509488408E+03 -0.31566804597E+03  0.41646999565E+03  0.12499822646E+03 0.  0.
          2    1    1    2  501    0 -0.92824357123E+02 -0.29454889625E+03 -0.10188239279E+03  0.32520060812E+03  0.00000000000E+00 0. -1.
          1    1    1    2  502    0  0.38909786821E+02  0.59454012171E+02  0.19788538030E+04  0.19801290677E+04  0.00000000000E+00 0. -1.
         22    1    3    3    0    0  0.10268285642E+02  0.20966591227E+03 -0.19863172069E+03  0.28899791162E+03  0.00000000000E+00 0. -1.
         22    1    3    3    0    0  0.43646284660E+02  0.25428971817E+02 -0.11703632528E+03  0.12747208403E+03  0.00000000000E+00 0. -1.
</event>
<event>
 7    1  0.8792454E-005  0.9019687E+03  0.7818608E-02  0.1130001E+00
          2   -1    0    0  502    0  0.00000000000E+00  0.00000000000E+00  0.80039990166E+03  0.80039990166E+03  0.00000000000E+00 0. -1.
          1   -1    0    0  501    0 -0.00000000000E+00 -0.00000000000E+00 -0.12285721817E+04  0.12285721817E+04  0.00000000000E+00 0. -1.
         25    2    1    2    0    0  0.50314170413E+03 -0.72136152494E+03  0.14896423769E+02  0.88845985261E+03  0.12499992867E+03 0.  0.
          2    1    1    2  501    0 -0.55929253860E+03  0.72503676049E+03 -0.51390913324E+03  0.10500424015E+04  0.00000000000E+00 0. -1.
          1    1    1    2  502    0  0.56150834472E+02 -0.36752355592E+01  0.70840429394E+02  0.90469829253E+02  0.00000000000E+00 0. -1.
         22    1    3    3    0    0  0.10060883903E+03 -0.90089321491E+02  0.34960160802E+02  0.13950067090E+03  0.00000000000E+00 0. -1.
         22    1    3    3    0    0  0.40253286510E+03 -0.63127220344E+03 -0.20063737033E+02  0.74895918171E+03  0.00000000000E+00 0. -1.
</event>
<event>
 7    1  0.8792454E-005  0.4437248E+03  0.7818608E-02  0.1077236E+00
          2   -1    0    0  502    0  0.00000000000E+00  0.00000000000E+00  0.28329288713E+04  0.28329288713E+04  0.00000000000E+00 0. -1.
          1   -1    0    0  501    0 -0.00000000000E+00 -0.00000000000E+00 -0.10367163105E+04  0.10367163105E+04  0.00000000000E+00 0. -1.
         25    2    1    2    0    0 -0.26266639328E+03  0.33806009209E+03 -0.67652376676E+03  0.81029997931E+03  0.12499355764E+03 0.  0.
          2    1    1    2  501    0 -0.14957804200E+03 -0.16923449076E+03 -0.22869687022E+03  0.32142831543E+03  0.00000000000E+00 0. -1.
          1    1    1    2  502    0  0.41224443528E+03 -0.16882560133E+03  0.27014331978E+04  0.27379168871E+04  0.00000000000E+00 0. -1.
         22    1    3    3    0    0 -0.18678762460E+03  0.14057225243E+03 -0.33329759514E+03  0.40710866090E+03  0.00000000000E+00 0.  1.
         22    1    3    3    0    0 -0.75878768677E+02  0.19748783966E+03 -0.34322617162E+03  0.40319131840E+03  0.00000000000E+00 0.  1.
</event>
<event>
 7    1  0.1451271E-004  0.1405055E+03  0.7818608E-02  0.1214603E+00
          2   -1    0    0  502    0  0.00000000000E+00  0.00000000000E+00  0.10226375213E+04  0.10226375213E+04  0.00000000000E+00 0. -1.
          1   -1    0    0  501    0 -0.00000000000E+00 -0.00000000000E+00 -0.10492043090E+04  0.10492043090E+04  0.00000000000E+00 0. -1.
         25    2    1    2    0    0  0.15072697598E+03 -0.24666050289E+02 -0.44036156129E+03  0.48256689294E+03  0.12500186469E+03 0.  0.
          2    1    1    2  501    0 -0.66416741506E+02  0.13706520478E+03 -0.57281098423E+03  0.59271449921E+03  0.00000000000E+00 0. -1.
          1    1    1    2  502    0 -0.84310234471E+02 -0.11239915449E+03  0.98660575777E+03  0.99656043812E+03  0.00000000000E+00 0. -1.
         22    1    3    3    0    0  0.20447201675E+01 -0.72438366602E+01  0.73322489875E+01  0.10507898236E+02  0.00000000000E+00 0. -1.
         22    1    3    3    0    0  0.14868225581E+03 -0.17422213629E+02 -0.44769381028E+03  0.47205899470E+03  0.00000000000E+00 0. -1.
</event>
<event>
 7    1  0.8792454E-005  0.2338886E+03  0.7818608E-02  0.1159394E+00
          2   -1    0    0  502    0  0.00000000000E+00  0.00000000000E+00  0.20453054002E+04  0.20453054002E+04  0.00000000000E+00 0. -1.
          1   -1    0    0  501    0 -0.00000000000E+00 -0.00000000000E+00 -0.62308356513E+03  0.62308356513E+03  0.00000000000E+00 0. -1.
         25    2    1    2    0    0 -0.23823655418E+03 -0.19544598305E+03  0.67865319437E+03  0.75574532944E+03  0.12500022682E+03 0.  0.
          2    1    1    2  501    0  0.20240038063E+02  0.15132970807E+03 -0.56502180147E+03  0.58528623410E+03  0.00000000000E+00 0. -1.
          1    1    1    2  502    0  0.21799651612E+03  0.44116274986E+02  0.13085904422E+04  0.13273574018E+04  0.00000000000E+00 0. -1.
         22    1    3    3    0    0 -0.14579497948E+03 -0.63155950209E+02  0.43853479541E+03  0.46643072033E+03  0.00000000000E+00 0. -1.
         22    1    3    3    0    0 -0.92441574699E+02 -0.13229003284E+03  0.24011839896E+03  0.28931460911E+03  0.00000000000E+00 0. -1.
</event>
<event>
 7    1  0.8792454E-005  0.1023410E+04  0.7818608E-02  0.1052283E+00
          2   -1    0    0  502    0  0.00000000000E+00  0.00000000000E+00  0.22636207106E+04  0.22636207106E+04  0.00000000000E+00 0. -1.
          1   -1    0    0  501    0 -0.00000000000E+00 -0.00000000000E+00 -0.16747311686E+04  0.16747311686E+04  0.00000000000E+00 0. -1.
         25    2    1    2    0    0 -0.36724420388E+03 -0.97976723590E+03 -0.44656177494E+01  0.10537821392E+04  0.12499885351E+03 0.  0.
          2    1    1    2  501    0  0.13780542963E+03 -0.12971228527E+02 -0.99113260661E+03  0.10007509346E+04  0.00000000000E+00 0. -1.
          1    1    1    2  502    0  0.22943877424E+03  0.99273846442E+03  0.15844877663E+04  0.18838188054E+04  0.00000000000E+00 0. -1.
         22    1    3    3    0    0 -0.26784958638E+03 -0.83259865796E+03  0.17796073340E+02  0.87480319294E+03  0.00000000000E+00 0. -1.
         22    1    3    3    0    0 -0.99394617498E+02 -0.14716857794E+03 -0.22261691089E+02  0.17897894628E+03  0.00000000000E+00 0. -1.
</event>
<event>
 7    1  0.9539865E-005  0.1619216E+03  0.7818608E-02  0.1227418E+00
          2   -1    0    0  502    0  0.00000000000E+00  0.00000000000E+00  0.20650575841E+04  0.20650575841E+04  0.00000000000E+00 0. -1.
          1   -1    0    0  501    0 -0.00000000000E+00 -0.00000000000E+00 -0.10326534966E+04  0.10326534966E+04  0.00000000000E+00 0. -1.
         25    2    1    2    0    0  0.50017193648E+02 -0.88373635352E+02 -0.83025111912E+03  0.84572653352E+03  0.12499931845E+03 0.  0.
          2    1    1    2  501    0 -0.75803686086E+02 -0.71802963244E+02 -0.17720749432E+03  0.20568023823E+03  0.00000000000E+00 0. -1.
          1    1    1    2  502    0  0.25786492438E+02  0.16017659860E+03  0.20398627010E+04  0.20463043089E+04  0.00000000000E+00 0. -1.
         22    1    3    3    0    0 -0.16367832538E+02  0.51938556565E+01 -0.40224348773E+03  0.40260986762E+03  0.00000000000E+00 0. -1.
         22    1    3    3    0    0  0.66385026186E+02 -0.93567491009E+02 -0.42800763139E+03  0.44311666591E+03  0.00000000000E+00 0. -1.
</event>
<event>
 7    1  0.8792454E-005  0.2762025E+03  0.7818608E-02  0.1120071E+00
          2   -1    0    0  502    0  0.00000000000E+00  0.00000000000E+00  0.19381870307E+04  0.19381870307E+04  0.00000000000E+00 0. -1.
          1   -1    0    0  501    0 -0.00000000000E+00 -0.00000000000E+00 -0.62802982966E+03  0.62802982966E+03  0.00000000000E+00 0. -1.
         25    2    1    2    0    0  0.17694315673E+03  0.53752373327E+02  0.15497591097E+04  0.15657506720E+04  0.12499468160E+03 0.  0.
          2    1    1    2  501    0 -0.23914781137E+03  0.14453893397E+03 -0.55579841631E+03  0.62208926907E+03  0.00000000000E+00 0. -1.
          1    1    1    2  502    0  0.62204654639E+02 -0.19829130729E+03  0.31619650767E+03  0.37837691931E+03  0.00000000000E+00 0. -1.
         22    1    3    3    0    0  0.46312023493E+02  0.76028052656E+02  0.53130451542E+03  0.53871101383E+03  0.00000000000E+00 0.  1.
         22    1    3    3    0    0  0.13063113324E+03 -0.22275679329E+02  0.10184545943E+04  0.10270396582E+04  0.00000000000E+00 0.  1.
</event>
<event>
 7    1  0.8792454E-005  0.3357984E+03  0.7818608E-02  0.1147631E+00
          2   -1    0    0  502    0  0.00000000000E+00  0.00000000000E+00  0.16969441955E+04  0.16969441955E+04  0.00000000000E+00 0. -1.
          1   -1    0    0  501    0 -0.00000000000E+00 -0.00000000000E+00 -0.14019940393E+04  0.14019940393E+04  0.00000000000E+00 0. -1.
         25    2    1    2    0    0  0.17128719055E+03  0.33040661237E+03 -0.47941307677E+03  0.61965257700E+03  0.12499834742E+03 0.  0.
          2    1    1    2  501    0  0.71403596408E+02 -0.99092929596E+02 -0.83067432385E+03  0.83960568994E+03  0.00000000000E+00 0. -1.
          1    1    1    2  502    0 -0.24269078696E+03 -0.23131368277E+03  0.16050375569E+04  0.16396799678E+04  0.00000000000E+00 0. -1.
         22    1    3    3    0    0  0.19026604230E+03  0.31335617397E+03 -0.45534284653E+03  0.58457708346E+03  0.00000000000E+00 0.  1.
         22    1    3    3    0    0 -0.18978851749E+02  0.17050438402E+02 -0.24070230238E+02  0.35075493541E+02  0.00000000000E+00 0.  1.
</event>
<event>
 7    1  0.8792454E-005  0.2446630E+03  0.7818608E-02  0.1165540E+00
          2   -1    0    0  502    0  0.00000000000E+00  0.00000000000E+00  0.35597756969E+03  0.35597756969E+03  0.00000000000E+00 0. -1.
          1   -1    0    0  501    0 -0.00000000000E+00 -0.00000000000E+00 -0.16180027785E+04  0.16180027785E+04  0.00000000000E+00 0. -1.
         25    2    1    2    0    0 -0.27180861451E+02 -0.32854228088E+03 -0.31563510166E+03  0.47321191851E+03  0.12500069147E+03 0.  0.
          2    1    1    2  501    0 -0.72752670097E+02  0.11480878142E+03 -0.11687088213E+04  0.11765858729E+04  0.00000000000E+00 0. -1.
          1    1    1    2  502    0  0.99933531549E+02  0.21373349946E+03  0.22231871410E+03  0.32418255684E+03  0.00000000000E+00 0. -1.
         22    1    3    3    0    0 -0.41274930498E+02 -0.31753726275E+03 -0.32211408250E+03  0.45419270720E+03  0.00000000000E+00 0. -1.
         22    1    3    3    0    0  0.14094069047E+02 -0.11005018134E+02  0.64789808454E+01  0.19019211319E+02  0.00000000000E+00 0. -1.
</event>
<event>
 7    1  0.8792454E-005  0.5389448E+03  0.7818608E-02  0.1031353E+00
          2   -1    0    0  502    0  0.00000000000E+00  0.00000000000E+00  0.46080992521E+03  0.46080992521E+03  0.00000000000E+00 0. -1.
          1   -1    0    0  501    0 -0.00000000000E+00 -0.00000000000E+00 -0.27834827740E+04  0.27834827740E+04  0.00000000000E+00 0. -1.
         25    2    1    2    0    0  0.36061918258E+03 -0.39196973567E+03 -0.99842806764E+02  0.55612994902E+03  0.12500186241E+03 0.  0.
          2    1    1    2  501    0 -0.28563919299E+03 -0.21249065972E+03 -0.20125467597E+04  0.20437921835E+04  0.00000000000E+00 0. -1.
          1    1    1    2  502    0 -0.74979989589E+02  0.60446039540E+03 -0.21028328226E+03  0.64437056671E+03  0.00000000000E+00 0. -1.
         22    1    3    3    0    0  0.23724693292E+03 -0.33479540860E+03 -0.87790340412E+02  0.41962032442E+03  0.00000000000E+00 0. -1.
         22    1    3    3    0    0  0.12337224966E+03 -0.57174327078E+02 -0.12052466352E+02  0.13650962460E+03  0.00000000000E+00 0. -1.
</event>
<event>
 7    1  0.8792454E-005  0.9261854E+02  0.7818608E-02  0.1334439E+00
          2   -1    0    0  502    0  0.00000000000E+00  0.00000000000E+00  0.64256471754E+02  0.64256471754E+02  0.00000000000E+00 0. -1.
          1   -1    0    0  501    0 -0.00000000000E+00 -0.00000000000E+00 -0.21816787721E+04  0.21816787721E+04  0.00000000000E+00 0. -1.
         25    2    1    2    0    0 -0.13398301342E+02 -0.78447984241E+02 -0.43175206372E+02  0.15434545000E+03  0.12499927512E+03 0.  0.
          2    1    1    2  501    0 -0.52499637503E+02  0.77157958645E+02 -0.19379178075E+04  0.19401636506E+04  0.00000000000E+00 0. -1.
          1    1    1    2  502    0  0.65897938845E+02  0.12900255964E+01 -0.13632928655E+03  0.15142614332E+03  0.00000000000E+00 0. -1.
         22    1    3    3    0    0 -0.62520773157E+02 -0.74305160832E+02 -0.17187340711E+02  0.98617993709E+02  0.00000000000E+00 0.  1.
         22    1    3    3    0    0  0.49122471815E+02 -0.41428234092E+01 -0.25987865662E+02  0.55727456291E+02  0.00000000000E+00 0.  1.
</event>
<event>
 7    1  0.8792454E-005  0.1181668E+03  0.7818608E-02  0.1360944E+00
          2   -1    0    0  502    0  0.00000000000E+00  0.00000000000E+00  0.13615813471E+04  0.13615813471E+04  0.00000000000E+00 0. -1.
          1   -1    0    0  501    0 -0.00000000000E+00 -0.00000000000E+00 -0.25981958074E+03  0.25981958074E+03  0.00000000000E+00 0. -1.
         25    2    1    2    0    0  0.60459921462E+02 -0.66840961656E+02 -0.17468139956E+03  0.23292527525E+03  0.12496990134E+03 0.  0.
          2    1    1    2  501    0 -0.92609475191E+01 -0.40116483461E+02 -0.45420747081E+02  0.61303683900E+02  0.00000000000E+00 0. -1.
          1    1    1    2  502    0 -0.51198973943E+02  0.10695744512E+03  0.13218639130E+04  0.13271719687E+04  0.00000000000E+00 0. -1.
         22    1    3    3    0    0 -0.15794105926E+01 -0.14808295307E+02 -0.14640298256E+03  0.14715846374E+03  0.00000000000E+00 0.  1.
         22    1    3    3    0    0  0.62039332055E+02 -0.52032666349E+02 -0.28278417001E+02  0.85766811514E+02  0.00000000000E+00 0.  1.
</event>
<event>
 7    1  0.8792454E-005  0.2913442E+02  0.7818608E-02  0.1643121E+00
          2   -1    0    0  502    0  0.00000000000E+00  0.00000000000E+00  0.19226031753E+04  0.19226031753E+04  0.00000000000E+00 0. -1.
          1   -1    0    0  501    0 -0.00000000000E+00 -0.00000000000E+00 -0.25591471042E+03  0.25591471042E+03  0.00000000000E+00 0. -1.
         25    2    1    2    0    0 -0.19870326536E+02  0.99147403895E+01  0.21832275197E+03  0.25255300256E+03  0.12500025249E+03 0.  0.
          2    1    1    2  501    0 -0.63613511932E+01 -0.22856522293E+02 -0.23808315986E+03  0.23926236313E+03  0.00000000000E+00 0. -1.
          1    1    1    2  502    0  0.26231677729E+02  0.12941781903E+02  0.16864488728E+04  0.16867025201E+04  0.00000000000E+00 0. -1.
         22    1    3    3    0    0 -0.51795519976E+02 -0.19408193801E+02  0.38035978420E+02  0.67128157509E+02  0.00000000000E+00 0. -1.
         22    1    3    3    0    0  0.31925193440E+02  0.29322934190E+02  0.18028677355E+03  0.18542484506E+03  0.00000000000E+00 0. -1.
</event>
<event>
 7    1  0.8828090E-005  0.1404925E+03  0.7818608E-02  0.1335147E+00
          2   -1    0    0  502    0  0.00000000000E+00  0.00000000000E+00  0.20603152555E+04  0.20603152555E+04  0.00000000000E+00 0. -1.
          1   -1    0    0  501    0 -0.00000000000E+00 -0.00000000000E+00 -0.80190336951E+03  0.80190336951E+03  0.00000000000E+00 0. -1.
         25    2    1    2    0    0  0.55656530875E+02 -0.84901841054E+02 -0.55382423743E+03  0.57675972903E+03  0.12499810807E+03 0.  0.
          2    1    1    2  501    0  0.26684787671E+01 -0.43100494999E+02 -0.23220408179E+03  0.23618532775E+03  0.00000000000E+00 0. -1.
          1    1    1    2  502    0 -0.58325009642E+02  0.12800233605E+03  0.20444402052E+04  0.20492735683E+04  0.00000000000E+00 0. -1.
         22    1    3    3    0    0  0.73786515075E+02 -0.76993723927E+01 -0.35569169670E+03  0.36334599659E+03  0.00000000000E+00 0. -1.
         22    1    3    3    0    0 -0.18129984200E+02 -0.77202468661E+02 -0.19813254073E+03  0.21341373243E+03  0.00000000000E+00 0. -1.
</event>
<event>
 7    1  0.8792454E-005  0.1095348E+03  0.7818608E-02  0.1351960E+00
          2   -1    0    0  502    0  0.00000000000E+00  0.00000000000E+00  0.83614114409E+03  0.83614114409E+03  0.00000000000E+00 0. -1.
          1   -1    0    0  501    0 -0.00000000000E+00 -0.00000000000E+00 -0.35052425991E+03  0.35052425991E+03  0.00000000000E+00 0. -1.
         25    2    1    2    0    0 -0.78244298534E+02 -0.10589391401E+03 -0.56177851287E+02  0.19004286169E+03  0.12499858810E+03 0.  0.
          2    1    1    2  501    0  0.47905679475E+02  0.11115069460E+01 -0.22096534596E+03  0.22610146768E+03  0.00000000000E+00 0. -1.
          1    1    1    2  502    0  0.30338619059E+02  0.10478240706E+03  0.76276008142E+03  0.77052107463E+03  0.00000000000E+00 0. -1.
         22    1    3    3    0    0 -0.95288704319E+02 -0.31143934185E+02 -0.10497238462E+02  0.10079719154E+03  0.00000000000E+00 0. -1.
         22    1    3    3    0    0  0.17044405786E+02 -0.74749979824E+02 -0.45680612825E+02  0.89245670149E+02  0.00000000000E+00 0. -1.
</event>
<event>
 7    1  0.8792454E-005  0.5941458E+02  0.7818608E-02  0.1422178E+00
          2   -1    0    0  502    0  0.00000000000E+00  0.00000000000E+00  0.11181524578E+04  0.11181524578E+04  0.00000000000E+00 0. -1.
          1   -1    0    0  501    0 -0.00000000000E+00 -0.00000000000E+00 -0.74982800781E+03  0.74982800781E+03  0.00000000000E+00 0. -1.
         25    2    1    2    0    0 -0.17432950508E+02 -0.12104087531E+01  0.28166959556E+03  0.30867771102E+03  0.12505516929E+03 0.  0.
          2    1    1    2  501    0 -0.37200057985E+02  0.33569000671E+02 -0.73424403309E+03  0.73595177984E+03  0.00000000000E+00 0. -1.
          1    1    1    2  502    0  0.54633008492E+02 -0.32358591917E+02  0.82089888749E+03  0.82335097472E+03  0.00000000000E+00 0. -1.
         22    1    3    3    0    0 -0.45199850705E+02  0.18251275908E+02  0.26753837868E+03  0.27194286098E+03  0.00000000000E+00 0.  1.
         22    1    3    3    0    0  0.27766900198E+02 -0.19461684661E+02  0.14131216880E+02  0.36734850033E+02  0.00000000000E+00 0.  1.
</event>
<event>
 7    1  0.8792454E-005  0.1653688E+03  0.7818608E-02  0.1231266E+00
          2   -1    0    0  502    0  0.00000000000E+00  0.00000000000E+00  0.18988521451E+04  0.18988521451E+04  0.00000000000E+00 0. -1.
          1   -1    0    0  501    0 -0.00000000000E+00 -0.00000000000E+00 -0.43478921350E+03  0.43478921350E+03  0.00000000000E+00 0. -1.
         25    2    1    2    0    0  0.22146203309E+03 -0.26659318297E+02  0.89859062631E+03  0.93426359856E+03  0.12500882587E+03 0.  0.
          2    1    1    2  501    0 -0.14165537611E+03  0.83963613287E+02 -0.39809823531E+03  0.43081125669E+03  0.00000000000E+00 0. -1.
          1    1    1    2  502    0 -0.79806656985E+02 -0.57304294989E+02  0.96357054060E+03  0.96856650336E+03  0.00000000000E+00 0. -1.
         22    1    3    3    0    0  0.14683342594E+03  0.32683887252E+02  0.41644473781E+03  0.44278043216E+03  0.00000000000E+00 0.  1.
         22    1    3    3    0    0  0.74628607156E+02 -0.59343205550E+02  0.48214588850E+03  0.49148316639E+03  0.00000000000E+00 0.  1.
</event>
<event>
 7    1  0.8792454E-005  0.2640816E+03  0.7818608E-02  0.1163546E+00
          2   -1    0    0  502    0  0.00000000000E+00  0.00000000000E+00  0.11764049458E+04  0.11764049458E+04  0.00000000000E+00 0. -1.
          1   -1    0    0  501    0 -0.00000000000E+00 -0.00000000000E+00 -0.50553825000E+03  0.50553825000E+03  0.00000000000E+00 0. -1.
         25    2    1    2    0    0  0.31845616779E+03 -0.63437379866E+02 -0.10193404287E+02  0.34809055675E+03  0.12499799294E+03 0.  0.
          2    1    1    2  501    0 -0.21159655676E+03  0.13544684304E+03 -0.27306981608E+03  0.37106074244E+03  0.00000000000E+00 0. -1.
          1    1    1    2  502    0 -0.10685961103E+03 -0.72009463178E+02  0.95412991615E+03  0.96279189660E+03  0.00000000000E+00 0. -1.
         22    1    3    3    0    0  0.14139240387E+03 -0.77541430920E+02 -0.44273094415E+02  0.16722617101E+03  0.00000000000E+00 0.  1.
         22    1    3    3    0    0  0.17706376393E+03  0.14104051055E+02  0.34079690128E+02  0.18086438575E+03  0.00000000000E+00 0.  1.
</event>
<event>
 7    1  0.8792454E-005  0.6052724E+02  0.7818608E-02  0.1413093E+00
          2   -1    0    0  502    0  0.00000000000E+00  0.00000000000E+00  0.54174146469E+02  0.54174146469E+02  0.00000000000E+00 0. -1.
          1   -1    0    0  501    0 -0.00000000000E+00 -0.00000000000E+00 -0.55538989971E+03  0.55538989971E+03  0.00000000000E+00 0. -1.
         25    2    1    2    0    0 -0.49747732795E+02  0.77734410952E+02 -0.14507746126E+03  0.21257935627E+03  0.12500014952E+03 0.  0.
          2    1    1    2  501    0  0.40016017536E+00 -0.59073385614E+02 -0.33496839000E+03  0.34013768876E+03  0.00000000000E+00 0. -1.
          1    1    1    2  502    0  0.49347572620E+02 -0.18661025338E+02 -0.21169901976E+02  0.56847001150E+02  0.00000000000E+00 0. -1.
         22    1    3    3    0    0  0.15261035067E+02  0.18693344418E+02  0.16114701130E+02  0.29017648240E+02  0.00000000000E+00 0. -1.
         22    1    3    3    0    0 -0.65008767862E+02  0.59041066534E+02 -0.16119216239E+03  0.18356170803E+03  0.00000000000E+00 0. -1.
</event>
<event>
 7    1  0.8792454E-005  0.5496274E+03  0.7818608E-02  0.1227736E+00
          2   -1    0    0  502    0  0.00000000000E+00  0.00000000000E+00  0.34322560634E+03  0.34322560634E+03  0.00000000000E+00 0. -1.
          1   -1    0    0  501    0 -0.00000000000E+00 -0.00000000000E+00 -0.98514784378E+03  0.98514784378E+03  0.00000000000E+00 0. -1.
         25    2    1    2    0    0 -0.34084477712E+03 -0.45019338193E+03 -0.28323695507E+03  0.64397095986E+03  0.12500472474E+03 0.  0.
          2    1    1    2  501    0  0.31293625754E+03  0.43750145003E+03 -0.36871965613E+03  0.65214323954E+03  0.00000000000E+00 0. -1.
          1    1    1    2  502    0  0.27908519578E+02  0.12691931901E+02  0.10034373750E+02  0.32259250720E+02  0.00000000000E+00 0. -1.
         22    1    3    3    0    0 -0.22787750887E+03 -0.20778763611E+03 -0.12169405919E+03  0.33153175536E+03  0.00000000000E+00 0.  1.
         22    1    3    3    0    0 -0.11296726825E+03 -0.24240574582E+03 -0.16154289588E+03  0.31243920450E+03  0.00000000000E+00 0.  1.
</event>
<event>
 7    1  0.8792454E-005  0.1945503E+03  0.7818608E-02  0.1206423E+00
          2   -1    0    0  502    0  0.00000000000E+00  0.00000000000E+00  0.49926886832E+03  0.49926886832E+03  0.00000000000E+00 0. -1.
          1   -1    0    0  501    0 -0.00000000000E+00 -0.00000000000E+00 -0.19111830113E+03  0.19111830113E+03  0.00000000000E+00 0. -1.
         25    2    1    2    0    0  0.21998109829E+03 -0.12867441312E+03  0.15993141456E+03  0.32580893803E+03  0.12499847413E+03 0.  0.
          2    1    1    2  501    0 -0.11185653581E+03  0.13713966632E+03 -0.47814999855E+01  0.17703681941E+03  0.00000000000E+00 0. -1.
          1    1    1    2  502    0 -0.10812456248E+03 -0.84652532036E+01  0.15300065261E+03  0.18754141202E+03  0.00000000000E+00 0. -1.
         22    1    3    3    0    0  0.29241548906E+02 -0.81890171255E+02  0.40212170061E+02  0.95802332705E+02  0.00000000000E+00 0.  1.
         22    1    3    3    0    0  0.19073954939E+03 -0.46784241866E+02  0.11971924450E+03  0.23000660532E+03  0.00000000000E+00 0.  1.
</event>
<event>
 7    1  0.8792454E-005  0.2902004E+03  0.7818608E-02  0.1203819E+00
          2   -1    0    0  502    0  0.00000000000E+00  0.00000000000E+00  0.18202312576E+04  0.18202312576E+04  0.00000000000E+00 0. -1.
          1   -1    0    0  501    0 -0.00000000000E+00 -0.00000000000E+00 -0.16024569253E+03  0.16024569253E+03  0.00000000000E+00 0. -1.
         25    2    1    2    0    0 -0.22686162077E+03 -0.15038681988E+02  0.12721497734E+02  0.25976685420E+03  0.12499850039E+03 0.  0.
          2    1    1    2  501    0 -0.70186632628E+02  0.25792323516E+02  0.37348629225E+02  0.83584253643E+02  0.00000000000E+00 0. -1.
          1    1    1    2  502    0  0.29704825340E+03 -0.10753641527E+02  0.16099154381E+04  0.16371258423E+04  0.00000000000E+00 0. -1.
         22    1    3    3    0    0 -0.21740165964E+03  0.59011575021E+01 -0.21505479020E+02  0.21854242357E+03  0.00000000000E+00 0. -1.
         22    1    3    3    0    0 -0.94599611332E+01 -0.20939839490E+02  0.34226976754E+02  0.41224430623E+02  0.00000000000E+00 0. -1.
</event>
<event>
 7    1  0.8792454E-005  0.2848426E+03  0.7818608E-02  0.1277710E+00
          2   -1    0    0  502    0  0.00000000000E+00  0.00000000000E+00  0.10749828871E+04  0.10749828871E+04  0.00000000000E+00 0. -1.
          1   -1    0    0  501    0 -0.00000000000E+00 -0.00000000000E+00 -0.40606557797E+03  0.40606557797E+03  0.00000000000E+00 0. -1.
         25    2    1    2    0    0 -0.26603753396E+03 -0.52340800067E+02  0.25001305829E+03  0.38942248857E+03  0.12501126533E+03 0.  0.
          2    1    1    2  501    0 -0.11646395948E+02 -0.34046084834E+02 -0.30727822959E+03  0.30937789968E+03  0.00000000000E+00 0. -1.
          1    1    1    2  502    0  0.27768392990E+03  0.86386884900E+02  0.72618248039E+03  0.78224807678E+03  0.00000000000E+00 0. -1.
         22    1    3    3    0    0 -0.24205024322E+03 -0.31329252917E+02  0.15482237469E+03  0.28903254149E+03  0.00000000000E+00 0. -1.
         22    1    3    3    0    0 -0.23987290731E+02 -0.21011547150E+02  0.95190683603E+02  0.10038994708E+03  0.00000000000E+00 0. -1.
</event>
<event>
 7    1  0.8792454E-005  0.3060661E+03  0.7818608E-02  0.1117031E+00
          2   -1    0    0  502    0  0.00000000000E+00  0.00000000000E+00  0.17113831711E+04  0.17113831711E+04  0.00000000000E+00 0. -1.
          1   -1    0    0  501    0 -0.00000000000E+00 -0.00000000000E+00 -0.15852833854E+04  0.15852833854E+04  0.00000000000E+00 0. -1.
         25    2    1    2    0    0  0.11122391937E+03  0.15475857452E+03  0.55837894035E+03  0.60309994526E+03  0.12498610450E+03 0.  0.
          2    1    1    2  501    0 -0.29593520122E+03 -0.92798756143E+02 -0.15389432620E+04  0.15698839499E+04  0.00000000000E+00 0. -1.
          1    1    1    2  502    0  0.18471128185E+03 -0.61959818373E+02  0.11066641074E+04  0.11236826613E+04  0.00000000000E+00 0. -1.
         22    1    3    3    0    0  0.33076860313E+01 -0.21203892044E+02  0.55497854041E+02  0.59502585052E+02  0.00000000000E+00 0.  1.
         22    1    3    3    0    0  0.10791623333E+03  0.17596246656E+03  0.50288108631E+03  0.54359736021E+03  0.00000000000E+00 0.  1.
</event>
<event>
 7    1  0.8792454E-005  0.9600484E+02  0.7818608E-02  0.1366073E+00
          2   -1    0    0  502    0  0.00000000000E+00  0.00000000000E+00  0.66360081526E+03  0.66360081526E+03  0.00000000000E+00 0. -1.
          1   -1    0    0  501    0 -0.00000000000E+00 -0.00000000000E+00 -0.33422920604E+03  0.33422920604E+03  0.00000000000E+00 0. -1.
         25    2    1    2    0    0  0.51109204208E+02  0.43780653797E+02 -0.40214579834E+02  0.14754891170E+03  0.12499829004E+03 0.  0.
          2    1    1    2  501    0 -0.14144828655E+02  0.46442611382E+02 -0.23394267965E+03  0.23892712213E+03  0.00000000000E+00 0. -1.
          1    1    1    2  502    0 -0.36964375554E+02 -0.90223265179E+02  0.60352886869E+03  0.61135398746E+03  0.00000000000E+00 0. -1.
         22    1    3    3    0    0  0.33126740522E+01  0.75217904397E+02  0.37716510810E+01  0.75385226027E+02  0.00000000000E+00 0. -1.
         22    1    3    3    0    0  0.47796530156E+02 -0.31437250600E+02 -0.43986230915E+02  0.72163685676E+02  0.00000000000E+00 0. -1.
</event>
<event>
 7    1  0.8792454E-005  0.3450491E+03  0.7818608E-02  0.1253260E+00
          2   -1    0    0  502    0  0.00000000000E+00  0.00000000000E+00  0.32582342979E+04  0.32582342979E+04  0.00000000000E+00 0. -1.
          1   -1    0    0  501    0 -0.00000000000E+00 -0.00000000000E+00 -0.50641463134E+02  0.50641463134E+02  0.00000000000E+00 0. -1.
         25    2    1    2    0    0 -0.41463359893E+02 -0.33812439986E+03  0.21893455065E+04  0.22192129330E+04  0.12499990112E+03 0.  0.
          2    1    1    2  501    0  0.79154529901E+02  0.33848686062E+03  0.95145803035E+03  0.10129714596E+04  0.00000000000E+00 0. -1.
          1    1    1    2  502    0 -0.37691170008E+02 -0.36246076420E+00  0.66789297910E+02  0.76691368417E+02  0.00000000000E+00 0. -1.
         22    1    3    3    0    0 -0.30296400801E+02 -0.64337387008E+02  0.79660142684E+03  0.79976934457E+03  0.00000000000E+00 0.  1.
         22    1    3    3    0    0 -0.11166959093E+02 -0.27378701285E+03  0.13927440797E+04  0.14194435885E+04  0.00000000000E+00 0.  1.
</event>
<event>
 7    1  0.8792454E-005  0.2345593E+03  0.7818608E-02  0.1144698E+00
          2   -1    0    0  502    0  0.00000000000E+00  0.00000000000E+00  0.12164780173E+04  0.12164780173E+04  0.00000000000E+00 0. -1.
          1   -1    0    0  501    0 -0.00000000000E+00 -0.00000000000E+00 -0.90692729083E+03  0.90692729083E+03  0.00000000000E+00 0. -1.
         25    2    1    2    0    0  0.12118267398E+03  0.19747067469E+03 -0.42998895589E+03  0.50417780752E+03  0.12499940630E+03 0.  0.
          2    1    1    2  501    0 -0.25992221721E+03 -0.81102599226E+02 -0.38979033294E+03  0.47547207515E+03  0.00000000000E+00 0. -1.
          1    1    1    2  502    0  0.13873954323E+03 -0.11636807546E+03  0.11293300153E+04  0.11437554255E+04  0.00000000000E+00 0. -1.
         22    1    3    3    0    0  0.35331814851E+02  0.15555183098E+03 -0.32618985837E+03  0.36310402500E+03  0.00000000000E+00 0.  1.
         22    1    3    3    0    0  0.85850859128E+02  0.41918843708E+02 -0.10379909751E+03  0.14107378252E+03  0.00000000000E+00 0.  1.
</event>
<event>
 7    1  0.8792454E-005  0.4255877E+03  0.7818608E-02  0.1055444E+00
          2   -1    0    0  502    0  0.00000000000E+00  0.00000000000E+00  0.46106273324E+03  0.46106273324E+03  0.00000000000E+00 0. -1.
          1   -1    0    0  501    0 -0.00000000000E+00 -0.00000000000E+00 -0.19648822423E+04  0.19648822423E+04  0.00000000000E+00 0. -1.
         25    2    1    2    0    0 -0.38962371358E+03  0.27442689862E+03 -0.21104645660E+03  0.53598698355E+03  0.12499871527E+03 0.  0.
          2    1    1    2  501    0 -0.46548912361E+02 -0.31485422774E+03 -0.14026815736E+04  0.14383377847E+04  0.00000000000E+00 0. -1.
          1    1    1    2  502    0  0.43617262595E+03  0.40427329121E+02  0.10990852118E+03  0.45162020724E+03  0.00000000000E+00 0. -1.
         22    1    3    3    0    0 -0.30197700091E+03  0.23924884885E+03 -0.21549626171E+03  0.44143941777E+03  0.00000000000E+00 0.  1.
         22    1    3    3    0    0 -0.87646712676E+02  0.35178049768E+02  0.44498051136E+01  0.94547565775E+02  0.00000000000E+00 0.  1.
</event>
<event>
 7    1  0.8792454E-005  0.1039600E+04  0.7818608E-02  0.1132413E+00
          2   -1    0    0  502    0  0.00000000000E+00  0.00000000000E+00  0.87975584910E+03  0.87975584910E+03  0.00000000000E+00 0. -1.
          1   -1    0    0  501    0 -0.00000000000E+00 -0.00000000000E+00 -0.24587365744E+04  0.24587365744E+04  0.00000000000E+00 0. -1.
         25    2    1    2    0    0  0.55678626982E+03  0.89944176382E+03  0.58645466668E+02  0.10668039626E+04  0.12499986826E+03 0.  0.
          2    1    1    2  501    0 -0.25570265863E+02 -0.39910898282E+02 -0.11478109181E+04  0.11487891982E+04  0.00000000000E+00 0. -1.
          1    1    1    2  502    0 -0.53121600396E+03 -0.85953086554E+03 -0.48981527393E+03  0.11228992627E+04  0.00000000000E+00 0. -1.
         22    1    3    3    0    0  0.22386598947E+03  0.32634511653E+03 -0.35648641095E+02  0.39735115696E+03  0.00000000000E+00 0.  1.
         22    1    3    3    0    0  0.33292028035E+03  0.57309664729E+03  0.94294107763E+02  0.66945280563E+03  0.00000000000E+00 0.  1.
</event>
<event>
 7    1  0.8792454E-005  0.7130505E+02  0.7818608E-02  0.1519626E+00
          2   -1    0    0  502    0  0.00000000000E+00  0.00000000000E+00  0.29304895733E+04  0.29304895733E+04  0.00000000000E+00 0. -1.
          1   -1    0    0  501    0 -0.00000000000E+00 -0.00000000000E+00 -0.20216279029E+02  0.20216279029E+02  0.00000000000E+00 0. -1.
         25    2    1    2    0    0  0.83963716053E+02 -0.18271284734E+02  0.19750187952E+04  0.19808350680E+04  0.12499831952E+03 0.  0.
          2    1    1    2  501    0 -0.20768120407E+02  0.59893884171E+00 -0.94960976394E+01  0.22844023799E+02  0.00000000000E+00 0. -1.
          1    1    1    2  502    0 -0.63195595646E+02  0.17672345893E+02  0.94475059669E+03  0.94702676048E+03  0.00000000000E+00 0. -1.
         22    1    3    3    0    0 -0.23808043462E+02 -0.74205922352E+01  0.11536856286E+03  0.11803301834E+03  0.00000000000E+00 0.  1.
         22    1    3    3    0    0  0.10777175951E+03 -0.10850692499E+02  0.18596502323E+04  0.18628020497E+04  0.00000000000E+00 0.  1.
</event>
<event>
 7    1  0.8792454E-005  0.1769895E+03  0.7818608E-02  0.1342188E+00
          2   -1    0    0  502    0  0.00000000000E+00  0.00000000000E+00  0.13362618094E+04  0.13362618094E+04  0.00000000000E+00 0. -1.
          1   -1    0    0  501    0 -0.00000000000E+00 -0.00000000000E+00 -0.10104273820E+03  0.10104273820E+03  0.00000000000E+00 0. -1.
         25    2    1    2    0    0 -0.71013720561E+02 -0.16321679988E+03  0.24857079687E+03  0.33029559286E+03  0.12500026134E+03 0.  0.
          2    1    1    2  501    0  0.30836374053E+02 -0.94305411429E+01 -0.47702579570E+02  0.57579103576E+02  0.00000000000E+00 0. -1.
          1    1    1    2  502    0  0.40177346508E+02  0.17264734102E+03  0.10343508539E+04  0.10494298511E+04  0.00000000000E+00 0. -1.
         22    1    3    3    0    0 -0.32067728355E+02 -0.17356956858E+03  0.19156184803E+03  0.26048162307E+03  0.00000000000E+00 0.  1.
         22    1    3    3    0    0 -0.38945992206E+02  0.10352768708E+02  0.57008948847E+02  0.69813969787E+02  0.00000000000E+00 0.  1.
</event>
<event>
 7    1  0.8792454E-005  0.4342185E+03  0.7818608E-02  0.1242272E+00
          2   -1    0    0  502    0  0.00000000000E+00  0.00000000000E+00  0.18432789726E+03  0.18432789726E+03  0.00000000000E+00 0. -1.
          1   -1    0    0  501    0 -0.00000000000E+00 -0.00000000000E+00 -0.12523302138E+04  0.12523302138E+04  0.00000000000E+00 0. -1.
         25    2    1    2    0    0  0.27626588738E+03  0.34312863768E+03 -0.44941657524E+03  0.64160769646E+03  0.12500030215E+03 0.  0.
          2    1    1    2  501    0 -0.29364579548E+03 -0.31455891359E+03 -0.62709730733E+03  0.76054335589E+03  0.00000000000E+00 0. -1.
          1    1    1    2  502    0  0.17379908102E+02 -0.28569724091E+02  0.85115660714E+01  0.34507058659E+02  0.00000000000E+00 0. -1.
         22    1    3    3    0    0  0.20474184335E+02  0.10385147364E+03 -0.12928764369E+03  0.16709163837E+03  0.00000000000E+00 0.  1.
         22    1    3    3    0    0  0.25579170305E+03  0.23927716404E+03 -0.32012893155E+03  0.47451605810E+03  0.00000000000E+00 0.  1.
</event>
<event>
 7    1  0.8792454E-005  0.1119887E+03  0.7818608E-02  0.1288442E+00
          2   -1    0    0  502    0  0.00000000000E+00  0.00000000000E+00  0.18553338048E+04  0.18553338048E+04  0.00000000000E+00 0. -1.
          1   -1    0    0  501    0 -0.00000000000E+00 -0.00000000000E+00 -0.25975292057E+03  0.25975292057E+03  0.00000000000E+00 0. -1.
         25    2    1    2    0    0 -0.56509001878E+02 -0.17899164555E+03 -0.12509723960E+03  0.25788641386E+03  0.12499922652E+03 0.  0.
          2    1    1    2  501    0  0.66271347963E+00  0.82676630048E+02 -0.40806283823E+02  0.92200960649E+02  0.00000000000E+00 0. -1.
          1    1    1    2  502    0  0.55846288398E+02  0.96315015498E+02  0.17614844076E+04  0.17649993509E+04  0.00000000000E+00 0. -1.
         22    1    3    3    0    0  0.13004363306E+02 -0.34145515358E+01 -0.54742008923E+02  0.56368964583E+02  0.00000000000E+00 0.  1.
         22    1    3    3    0    0 -0.69513365184E+02 -0.17557709401E+03 -0.70355230675E+02  0.20151744928E+03  0.00000000000E+00 0.  1.
</event>
<event>
 7    1  0.8792454E-005  0.1402627E+03  0.7818608E-02  0.1252054E+00
          2   -1    0    0  502    0  0.00000000000E+00  0.00000000000E+00  0.38797295334E+03  0.38797295334E+03  0.00000000000E+00 0. -1.
          1   -1    0    0  501    0 -0.00000000000E+00 -0.00000000000E+00 -0.39557456287E+03  0.39557456287E+03  0.00000000000E+00 0. -1.
         25    2    1    2    0    0  0.14946285095E+03 -0.25164035668E+02 -0.30997490202E+03  0.36698944429E+03  0.12499775932E+03 0.  0.
          2    1    1    2  501    0 -0.86668720398E+02  0.94903364652E+02  0.35013531209E+02  0.13320684324E+03  0.00000000000E+00 0. -1.
          1    1    1    2  502    0 -0.62794130555E+02 -0.69739328984E+02  0.26735976128E+03  0.28335122867E+03  0.00000000000E+00 0. -1.
         22    1    3    3    0    0  0.85851694598E+02 -0.23296094850E+02 -0.55891097122E+02  0.10505729978E+03  0.00000000000E+00 0.  1.
         22    1    3    3    0    0  0.63611156356E+02 -0.18679408178E+01 -0.25408380490E+03  0.26193214451E+03  0.00000000000E+00 0.  1.
</event>
<event>
 7    1  0.8792454E-005  0.2132529E+03  0.7818608E-02  0.1219476E+00
          2   -1    0    0  502    0  0.00000000000E+00  0.00000000000E+00  0.20463313736E+03  0.20463313736E+03  0.00000000000E+00 0. -1.
          1   -1    0    0  501    0 -0.00000000000E+00 -0.00000000000E+00 -0.14245085809E+04  0.14245085809E+04  0.00000000000E+00 0. -1.
         25    2    1    2    0    0  0.17949151190E+03  0.97769117317E+02 -0.12391858402E+03  0.26973723642E+03  0.12500543228E+03 0.  0.
          2    1    1    2  501    0  0.42273678440E+02 -0.75044225942E+02 -0.11305357922E+04  0.11338120996E+04  0.00000000000E+00 0. -1.
          1    1    1    2  502    0 -0.22176519034E+03 -0.22724891375E+02  0.34578932701E+02  0.22559238223E+03  0.00000000000E+00 0. -1.
         22    1    3    3    0    0  0.18877136183E+03  0.80929282444E+02 -0.77551091918E+02  0.21954122087E+03  0.00000000000E+00 0. -1.
         22    1    3    3    0    0 -0.92798499281E+01  0.16839834873E+02 -0.46367492100E+02  0.50196015548E+02  0.00000000000E+00 0. -1.
</event>
<event>
 7    1  0.8792454E-005  0.6048486E+02  0.7818608E-02  0.1417633E+00
          2   -1    0    0  502    0  0.00000000000E+00  0.00000000000E+00  0.34119464367E+03  0.34119464367E+03  0.00000000000E+00 0. -1.
          1   -1    0    0  501    0 -0.00000000000E+00 -0.00000000000E+00 -0.69496825490E+02  0.69496825490E+02  0.00000000000E+00 0. -1.
         25    2    1    2    0    0 -0.56876485867E+02  0.82689953768E+02  0.64902593404E+02  0.17294282337E+03  0.12499724168E+03 0.  0.
          2    1    1    2  501    0  0.99119274433E+01 -0.49998590636E+02  0.52450626753E+02  0.73138044943E+02  0.00000000000E+00 0. -1.
          1    1    1    2  502    0  0.46964558424E+02 -0.32691363131E+02  0.15434459802E+03  0.16461060084E+03  0.00000000000E+00 0. -1.
         22    1    3    3    0    0 -0.38000382131E+02  0.80490911375E+02  0.99479461592E+02  0.13348774901E+03  0.00000000000E+00 0.  1.
         22    1    3    3    0    0 -0.18876103736E+02  0.21990423930E+01 -0.34576868188E+02  0.39455074368E+02  0.00000000000E+00 0.  1.
</event>
<event>
 7    1  0.8792454E-005  0.2472155E+03  0.7818608E-02  0.1166204E+00
          2   -1    0    0  502    0  0.00000000000E+00  0.00000000000E+00  0.10620837067E+04  0.10620837067E+04  0.00000000000E+00 0. -1.
          1   -1    0    0  501    0 -0.00000000000E+00 -0.00000000000E+00 -0.21489139462E+03  0.21489139462E+03  0.00000000000E+00 0. -1.
         25    2    1    2    0    0 -0.67656307695E+02  0.27327334785E+03  0.50645938178E+03  0.59277604488E+03  0.12500654132E+03 0.  0.
          2    1    1    2  501    0 -0.91071217612E+02 -0.97601433904E+02 -0.11137361567E+03  0.17385076602E+03  0.00000000000E+00 0. -1.
          1    1    1    2  502    0  0.15872752531E+03 -0.17567191395E+03  0.45210654595E+03  0.51034829041E+03  0.00000000000E+00 0. -1.
         22    1    3    3    0    0 -0.60466832030E+02  0.16864603524E+03  0.19823388237E+03  0.26719729620E+03  0.00000000000E+00 0. -1.
         22    1    3    3    0    0 -0.71894756651E+01  0.10462731261E+03  0.30822549941E+03  0.32557874867E+03  0.00000000000E+00 0. -1.
</event>
<event>
 7    1  0.8792454E-005  0.4012824E+03  0.7818608E-02  0.1045300E+00
          2   -1    0    0  502    0  0.00000000000E+00  0.00000000000E+00  0.18735965772E+04  0.18735965772E+04  0.00000000000E+00 0. -1.
          1   -1    0    0  501    0 -0.00000000000E+00 -0.00000000000E+00 -0.22211900317E+04  0.22211900317E+04  0.00000000000E+00 0. -1.
         25    2    1    2    0    0 -0.45904150945E+03  0.67053349257E+02 -0.65781313875E+03  0.81458854642E+03  0.12498446064E+03 0.  0.
          2    1    1    2  501    0  0.21368623058E+03 -0.37030625062E+03 -0.14321979641E+04  0.14946503045E+04  0.00000000000E+00 0. -1.
          1    1    1    2  502    0  0.24535527887E+03  0.30325290136E+03  0.17424176483E+04  0.17855477580E+04  0.00000000000E+00 0. -1.
         22    1    3    3    0    0 -0.27550919044E+03  0.96651667275E+02 -0.36001463971E+03  0.46352712932E+03  0.00000000000E+00 0. -1.
         22    1    3    3    0    0 -0.18353231900E+03 -0.29598318018E+02 -0.29779849903E+03  0.35106141710E+03  0.00000000000E+00 0. -1.
</event>
<event>
 7    1  0.8792454E-005  0.5519674E+03  0.7818608E-02  0.1175286E+00
          2   -1    0    0  502    0  0.00000000000E+00  0.00000000000E+00  0.48920861779E+03  0.48920861779E+03  0.00000000000E+00 0. -1.
          1   -1    0    0  501    0 -0.00000000000E+00 -0.00000000000E+00 -0.20437850227E+04  0.20437850227E+04  0.00000000000E+00 0. -1.
         25    2    1    2    0    0 -0.24347168978E+03 -0.48720272896E+03 -0.98067907327E+03  0.11287162876E+04  0.12499620153E+03 0.  0.
          2    1    1    2  501    0  0.29629072699E+03  0.47647696394E+03 -0.90717483986E+03  0.10666699031E+04  0.00000000000E+00 0. -1.
          1    1    1    2  502    0 -0.52819037213E+02  0.10725765026E+02  0.33327750817E+03  0.33760744983E+03  0.00000000000E+00 0. -1.
         22    1    3    3    0    0 -0.18982965993E+03 -0.39326280860E+03 -0.87277672289E+03  0.97592527605E+03  0.00000000000E+00 0.  1.
         22    1    3    3    0    0 -0.53642029845E+02 -0.93939920363E+02 -0.10790235038E+03  0.15279101158E+03  0.00000000000E+00 0.  1.
</event>
<event>
 7    1  0.8792454E-005  0.4552633E+03  0.7818608E-02  0.1081723E+00
          2   -1    0    0  502    0  0.00000000000E+00  0.00000000000E+00  0.44992207467E+04  0.44992207467E+04  0.00000000000E+00 0. -1.
          1   -1    0    0  501    0 -0.00000000000E+00 -0.00000000000E+00 -0.32433940160E+03  0.32433940160E+03  0.00000000000E+00 0. -1.
         25    2    1    2    0    0 -0.43145104540E+03 -0.65044097239E+02  0.28002555040E+04  0.28368002274E+04  0.12499561293E+03 0.  0.
          2    1    1    2  501    0 -0.18455103276E+02 -0.20639071002E+03 -0.22331681826E+03  0.30464424718E+03  0.00000000000E+00 0. -1.
          1    1    1    2  502    0  0.44990614868E+03  0.27143480726E+03  0.15979426593E+04  0.16821156737E+04  0.00000000000E+00 0. -1.
         22    1    3    3    0    0 -0.31182944794E+03 -0.92651616561E+02  0.18144959433E+04  0.18434254677E+04  0.00000000000E+00 0.  1.
         22    1    3    3    0    0 -0.11962159746E+03  0.27607519323E+02  0.98575956065E+03  0.99337475965E+03  0.00000000000E+00 0.  1.
</event>
<event>
 7    1  0.8792454E-005  0.2529759E+03  0.7818608E-02  0.1185549E+00
          2   -1    0    0  502    0  0.00000000000E+00  0.00000000000E+00  0.33808457473E+04  0.33808457473E+04  0.00000000000E+00 0. -1.
          1   -1    0    0  501    0 -0.00000000000E+00 -0.00000000000E+00 -0.32471113437E+03  0.32471113437E+03  0.00000000000E+00 0. -1.
         25    2    1    2    0    0  0.18255791515E+03  0.20340588387E+03  0.67014196331E+03  0.73445181548E+03  0.12501148867E+03 0.  0.
          2    1    1    2  501    0 -0.98861344108E+02  0.34762081339E+02 -0.27700679143E+03  0.29616672696E+03  0.00000000000E+00 0. -1.
          1    1    1    2  502    0 -0.83696571046E+02 -0.23816796521E+03  0.26629994411E+04  0.26749383393E+04  0.00000000000E+00 0. -1.
         22    1    3    3    0    0  0.13326531814E+02  0.97994087574E+02  0.26640786240E+03  0.28417175580E+03  0.00000000000E+00 0. -1.
         22    1    3    3    0    0  0.16923138334E+03  0.10541179630E+03  0.40373410091E+03  0.45028005968E+03  0.00000000000E+00 0. -1.
</event>
<event>
 7    1  0.8792454E-005  0.3681679E+03  0.7818608E-02  0.1150726E+00
          2   -1    0    0  502    0  0.00000000000E+00  0.00000000000E+00  0.69901256124E+03  0.69901256124E+03  0.00000000000E+00 0. -1.
          1   -1    0    0  501    0 -0.00000000000E+00 -0.00000000000E+00 -0.11237028209E+04  0.11237028209E+04  0.00000000000E+00 0. -1.
         25    2    1    2    0    0 -0.30488426176E+03  0.12916256098E+03  0.16338534158E+03  0.38981777729E+03  0.12500299765E+03 0.  0.
          2    1    1    2  501    0 -0.92172397162E+02 -0.55096315809E+02 -0.91005000222E+03  0.91636366217E+03  0.00000000000E+00 0. -1.
          1    1    1    2  502    0  0.39705665893E+03 -0.74066245168E+02  0.32197440096E+03  0.51653394269E+03  0.00000000000E+00 0. -1.
         22    1    3    3    0    0 -0.48081380696E+02  0.72474230510E+02  0.16274895114E+02  0.88482797586E+02  0.00000000000E+00 0.  1.
         22    1    3    3    0    0 -0.25680288107E+03  0.56688330466E+02  0.14711044647E+03  0.30133497971E+03  0.00000000000E+00 0.  1.
</event>
<event>
 7    1  0.8792454E-005  0.1515203E+03  0.7818608E-02  0.1251220E+00
          2   -1    0    0  502    0  0.00000000000E+00  0.00000000000E+00  0.16606358518E+03  0.16606358518E+03  0.00000000000E+00 0. -1.
          1   -1    0    0  501    0 -0.00000000000E+00 -0.00000000000E+00 -0.54875719495E+03  0.54875719495E+03  0.00000000000E+00 0. -1.
         25    2    1    2    0    0  0.15422006442E+03  0.12983024455E+03 -0.16285235028E+03  0.28772414533E+03  0.12499830057E+03 0.  0.
          2    1    1    2  501    0 -0.13377899056E+03 -0.44651639940E+02 -0.28495725067E+03  0.31794845804E+03  0.00000000000E+00 0. -1.
          1    1    1    2  502    0 -0.20441073860E+02 -0.85178604610E+02  0.65115991174E+02  0.10914817676E+03  0.00000000000E+00 0. -1.
         22    1    3    3    0    0  0.52285715425E+02  0.83444910321E+01  0.91925158620E+01  0.53739453997E+02  0.00000000000E+00 0. -1.
         22    1    3    3    0    0  0.10193434899E+03  0.12148575352E+03 -0.17204486614E+03  0.23398469133E+03  0.00000000000E+00 0. -1.
</event>
<event>
 7    1  0.8792454E-005  0.1275823E+03  0.7818608E-02  0.1335566E+00
          2   -1    0    0  502    0  0.00000000000E+00  0.00000000000E+00  0.15514995023E+04  0.15514995023E+04  0.00000000000E+00 0. -1.
          1   -1    0    0  501    0 -0.00000000000E+00 -0.00000000000E+00 -0.10492638957E+03  0.10492638957E+03  0.00000000000E+00 0. -1.
         25    2    1    2    0    0  0.48141208121E+02 -0.94495498879E+02 -0.32080533444E+02  0.16704113342E+03  0.12500641744E+03 0.  0.
          2    1    1    2  501    0  0.46787492933E+02  0.74664020933E+01  0.51254975574E+03  0.51473495001E+03  0.00000000000E+00 0. -1.
          1    1    1    2  502    0 -0.94928701054E+02  0.87029096786E+02  0.96610389039E+03  0.97464980839E+03  0.00000000000E+00 0. -1.
         22    1    3    3    0    0  0.16635852989E+02 -0.10131065038E+03  0.21138876891E+02  0.10482104560E+03  0.00000000000E+00 0. -1.
         22    1    3    3    0    0  0.31505355132E+02  0.68151515004E+01 -0.53219410335E+02  0.62220087821E+02  0.00000000000E+00 0. -1.
</event>
<event>
 7    1  0.8792454E-005  0.2710844E+03  0.7818608E-02  0.1301623E+00
          2   -1    0    0  502    0  0.00000000000E+00  0.00000000000E+00  0.17117347053E+04  0.17117347053E+04  0.00000000000E+00 0. -1.
          1   -1    0    0  501    0 -0.00000000000E+00 -0.00000000000E+00 -0.10136504883E+04  0.10136504883E+04  0.00000000000E+00 0. -1.
         25    2    1    2    0    0  0.15944704295E+03  0.22810836924E+03  0.20785566917E+03  0.36916877722E+03  0.12499927699E+03 0.  0.
          2    1    1    2  501    0 -0.29009411883E+02  0.84649103314E+01 -0.91992393679E+03  0.92042014871E+03  0.00000000000E+00 0. -1.
          1    1    1    2  502    0 -0.13043763107E+03 -0.23657327958E+03  0.14101524847E+04  0.14357962677E+04  0.00000000000E+00 0. -1.
         22    1    3    3    0    0  0.14458665430E+01  0.64930083138E+02  0.96200197570E+02  0.11607103101E+03  0.00000000000E+00 0.  1.
         22    1    3    3    0    0  0.15800117641E+03  0.16317828611E+03  0.11165547159E+03  0.25309774622E+03  0.00000000000E+00 0.  1.
</event>
<event>
 7    1  0.8792454E-005  0.8204664E+02  0.7818608E-02  0.1334953E+00
          2   -1    0    0  502    0  0.00000000000E+00  0.00000000000E+00  0.27849926899E+04  0.27849926899E+04  0.00000000000E+00 0. -1.
          1   -1    0    0  501    0 -0.00000000000E+00 -0.00000000000E+00 -0.21060371615E+02  0.21060371615E+02  0.00000000000E+00 0. -1.
         25    2    1    2    0    0  0.78954558705E+02 -0.75536225316E+02  0.19518019887E+04  0.19588505448E+04  0.12499964089E+03 0.  0.
          2    1    1    2  501    0 -0.82029792230E+02  0.15298742963E+01  0.91983988104E+02  0.12325697301E+03  0.00000000000E+00 0. -1.
          1    1    1    2  502    0  0.30752335248E+01  0.74006351019E+02  0.72014634145E+03  0.72394554364E+03  0.00000000000E+00 0. -1.
         22    1    3    3    0    0  0.54103598016E+02 -0.39549564205E+02  0.17896533128E+04  0.17909076881E+04  0.00000000000E+00 0. -1.
         22    1    3    3    0    0  0.24850960689E+02 -0.35986661111E+02  0.16214867591E+03  0.16794285672E+03  0.00000000000E+00 0. -1.
</event>
<event>
 7    1  0.8792454E-005  0.3010979E+03  0.7818608E-02  0.1256777E+00
          2   -1    0    0  502    0  0.00000000000E+00  0.00000000000E+00  0.20654523617E+04  0.20654523617E+04  0.00000000000E+00 0. -1.
          1   -1    0    0  501    0 -0.00000000000E+00 -0.00000000000E+00 -0.77684892367E+02  0.77684892367E+02  0.00000000000E+00 0. -1.
         25    2    1    2    0    0 -0.31358212780E+03 -0.11300062512E+02  0.83389221396E+03  0.89970284799E+03  0.12501019113E+03 0.  0.
          2    1    1    2  501    0  0.29105069691E+03  0.46407699942E+02  0.44754761677E+03  0.53587596705E+03  0.00000000000E+00 0. -1.
          1    1    1    2  502    0  0.22531430892E+02 -0.35107637430E+02  0.70632763860E+03  0.70755843903E+03  0.00000000000E+00 0. -1.
         22    1    3    3    0    0 -0.38638314275E+02  0.18564817101E+02  0.24971682227E+03  0.25336942019E+03  0.00000000000E+00 0. -1.
         22    1    3    3    0    0 -0.27494381353E+03 -0.29864879613E+02  0.58417539170E+03  0.64633342780E+03  0.00000000000E+00 0. -1.
</event>
<event>
 7    1  0.8792454E-005  0.3890767E+03  0.7818608E-02  0.1142093E+00
          2   -1    0    0  502    0  0.00000000000E+00  0.00000000000E+00  0.42624137251E+03  0.42624137251E+03  0.00000000000E+00 0. -1.
          1   -1    0    0  501    0 -0.00000000000E+00 -0.00000000000E+00 -0.58319126963E+03  0.58319126963E+03  0.00000000000E+00 0. -1.
         25    2    1    2    0    0 -0.84391668626E+02  0.41422444077E+03  0.10167840294E+03  0.45240633627E+03  0.12501661653E+03 0.  0.
          2    1    1    2  501    0  0.92235352923E+02 -0.64636625020E+02 -0.15636234394E+03  0.19270297409E+03  0.00000000000E+00 0. -1.
          1    1    1    2  502    0 -0.78436842972E+01 -0.34958781575E+03 -0.10226595611E+03  0.36432333178E+03  0.00000000000E+00 0. -1.
         22    1    3    3    0    0 -0.55035972733E+01  0.25138444599E+03  0.15317097630E+02  0.25191078331E+03  0.00000000000E+00 0.  1.
         22    1    3    3    0    0 -0.78888071353E+02  0.16283999478E+03  0.86361305308E+02  0.20049555296E+03  0.00000000000E+00 0.  1.
</event>
<event>
 7    1  0.8792454E-005  0.2358524E+03  0.7818608E-02  0.1134489E+00
          2   -1    0    0  502    0  0.00000000000E+00  0.00000000000E+00  0.23805620118E+03  0.23805620118E+03  0.00000000000E+00 0. -1.
          1   -1    0    0  501    0 -0.00000000000E+00 -0.00000000000E+00 -0.26964024321E+04  0.26964024321E+04  0.00000000000E+00 0. -1.
         25    2    1    2    0    0  0.31669029015E+03 -0.13042080840E+03 -0.64460862134E+03  0.74057255811E+03  0.12500044792E+03 0.  0.
          2    1    1    2  501    0 -0.19330111640E+03 -0.64261017728E+02 -0.19265355771E+04  0.19372749237E+04  0.00000000000E+00 0. -1.
          1    1    1    2  502    0 -0.12338917376E+03  0.19468182612E+03  0.11279796750E+03  0.25661115154E+03  0.00000000000E+00 0. -1.
         22    1    3    3    0    0  0.27468121965E+03 -0.15540466790E+03 -0.56448410826E+03  0.64671685591E+03  0.00000000000E+00 0.  1.
         22    1    3    3    0    0  0.42009070501E+02  0.24983859503E+02 -0.80124513084E+02  0.93855702208E+02  0.00000000000E+00 0.  1.
</event>
<event>
 7    1  0.8792454E-005  0.1377133E+03  0.7818608E-02  0.1323861E+00
          2   -1    0    0  502    0  0.00000000000E+00  0.00000000000E+00  0.22908688311E+04  0.22908688311E+04  0.00000000000E+00 0. -1.
          1   -1    0    0  501    0 -0.00000000000E+00 -0.00000000000E+00 -0.44199768422E+02  0.44199768422E+02  0.00000000000E+00 0. -1.
         25    2    1    2    0    0 -0.13781337638E+03 -0.69430898021E+02  0.17841376231E+04  0.17951561488E+04  0.12500145611E+03 0.  0.
          2    1    1    2  501    0  0.48095281526E+02 -0.73693038069E+01 -0.12650589379E+02  0.50274249426E+02  0.00000000000E+00 0. -1.
          1    1    1    2  502    0  0.89718094854E+02  0.76800201828E+02  0.47518202893E+03  0.48963820129E+03  0.00000000000E+00 0. -1.
         22    1    3    3    0    0 -0.20161096401E+02 -0.53472062918E+02  0.10433776653E+04  0.10449414739E+04  0.00000000000E+00 0. -1.
         22    1    3    3    0    0 -0.11765227998E+03 -0.15958835103E+02  0.74075995780E+03  0.75021467493E+03  0.00000000000E+00 0. -1.
</event>
<event>
 7    1  0.8792454E-005  0.4125859E+03  0.7818608E-02  0.1067686E+00
          2   -1    0    0  502    0  0.00000000000E+00  0.00000000000E+00  0.92908348414E+03  0.92908348414E+03  0.00000000000E+00 0. -1.
          1   -1    0    0  501    0 -0.00000000000E+00 -0.00000000000E+00 -0.44257407573E+03  0.44257407573E+03  0.00000000000E+00 0. -1.
         25    2    1    2    0    0  0.19997742759E+02  0.42546476846E+03  0.47137934059E+03  0.64749008807E+03  0.12499900996E+03 0.  0.
          2    1    1    2  501    0  0.26328484998E+03 -0.85317703323E+02  0.45443217413E+02  0.28046944350E+03  0.00000000000E+00 0. -1.
          1    1    1    2  502    0 -0.28328259274E+03 -0.34014706514E+03 -0.30313149603E+02  0.44369802829E+03  0.00000000000E+00 0. -1.
         22    1    3    3    0    0  0.43002953895E+02  0.18437120268E+03  0.28381408537E+03  0.34116334721E+03  0.00000000000E+00 0. -1.
         22    1    3    3    0    0 -0.23005211136E+02  0.24109356578E+03  0.18756525522E+03  0.30632674086E+03  0.00000000000E+00 0. -1.
</event>
<event>
 7    1  0.8792454E-005  0.1105412E+03  0.7818608E-02  0.1261789E+00
          2   -1    0    0  502    0  0.00000000000E+00  0.00000000000E+00  0.19070246454E+02  0.19070246454E+02  0.00000000000E+00 0. -1.
          1   -1    0    0  501    0 -0.00000000000E+00 -0.00000000000E+00 -0.25588658548E+04  0.25588658548E+04  0.00000000000E+00 0. -1.
         25    2    1    2    0    0 -0.13338974323E+03  0.15382002686E+02 -0.85415768366E+03  0.87363639832E+03  0.12500311322E+03 0.  0.
          2    1    1    2  501    0  0.61835548529E+02 -0.96491258741E+02 -0.12574700583E+04  0.12626817278E+04  0.00000000000E+00 0. -1.
          1    1    1    2  502    0  0.71554194702E+02  0.81109256054E+02 -0.42816786644E+03  0.44161797523E+03  0.00000000000E+00 0. -1.
         22    1    3    3    0    0 -0.56787763045E+02  0.68716031697E+02 -0.37253943310E+03  0.38305661756E+03  0.00000000000E+00 0.  1.
         22    1    3    3    0    0 -0.76601980187E+02 -0.53334029010E+02 -0.48161825056E+03  0.49057978076E+03  0.00000000000E+00 0.  1.
</event>
<event>
 7    1  0.8792454E-005  0.3011965E+03  0.7818608E-02  0.1203293E+00
          2   -1    0    0  502    0  0.00000000000E+00  0.00000000000E+00  0.87793547521E+03  0.87793547521E+03  0.00000000000E+00 0. -1.
          1   -1    0    0  501    0 -0.00000000000E+00 -0.00000000000E+00 -0.21187222031E+03  0.21187222031E+03  0.00000000000E+00 0. -1.
         25    2    1    2    0    0 -0.30170064100E+03 -0.18059204816E+02  0.27837559078E+03  0.42949580047E+03  0.12499704567E+03 0.  0.
          2    1    1    2  501    0  0.11393192090E+02 -0.71554652832E+02 -0.76606669755E+02  0.10544408480E+03  0.00000000000E+00 0. -1.
          1    1    1    2  502    0  0.29030744891E+03  0.89613857647E+02  0.46429433388E+03  0.55486781024E+03  0.00000000000E+00 0. -1.
         22    1    3    3    0    0 -0.50820519261E+02 -0.30224676570E+01  0.12522823902E+03  0.13518125735E+03  0.00000000000E+00 0. -1.
         22    1    3    3    0    0 -0.25088012174E+03 -0.15036737159E+02  0.15314735175E+03  0.29431454313E+03  0.00000000000E+00 0. -1.
</event>
<event>
 7    1  0.8792454E-005  0.7546862E+02  0.7818608E-02  0.1391730E+00
          2   -1    0    0  502    0  0.00000000000E+00  0.00000000000E+00  0.10511171567E+04  0.10511171567E+04  0.00000000000E+00 0. -1.
          1   -1    0    0  501    0 -0.00000000000E+00 -0.00000000000E+00 -0.21515733344E+03  0.21515733344E+03  0.00000000000E+00 0. -1.
         25    2    1    2    0    0 -0.71467116118E+02  0.78846181459E+02  0.23464926129E+03  0.28637440725E+03  0.12500302512E+03 0.  0.
          2    1    1    2  501    0  0.21914638540E+02 -0.71583771051E+02 -0.18106086947E+03  0.19592734907E+03  0.00000000000E+00 0. -1.
          1    1    1    2  502    0  0.49552477578E+02 -0.72624104084E+01  0.78237143141E+03  0.78397273379E+03  0.00000000000E+00 0. -1.
         22    1    3    3    0    0 -0.71336573630E+02 -0.37557173157E+01  0.60437782307E+02  0.93572098834E+02  0.00000000000E+00 0. -1.
         22    1    3    3    0    0 -0.13054248758E+00  0.82601898775E+02  0.17421147898E+03  0.19280230842E+03  0.00000000000E+00 0. -1.
</event>
<event>
 7    1  0.8792454E-005  0.1853001E+03  0.7818608E-02  0.1209951E+00
          2   -1    0    0  502    0  0.00000000000E+00  0.00000000000E+00  0.16195918124E+04  0.16195918124E+04  0.00000000000E+00 0. -1.
          1   -1    0    0  501    0 -0.00000000000E+00 -0.00000000000E+00 -0.88283225068E+02  0.88283225068E+02  0.00000000000E+00 0. -1.
         25    2    1    2    0    0  0.10590510946E+03  0.21444631581E+03  0.25501903431E+03  0.37129821150E+03  0.12499815768E+03 0.  0.
          2    1    1    2  501    0 -0.11190315689E+03 -0.10496279047E+03  0.18746362814E+03  0.24224391794E+03  0.00000000000E+00 0. -1.
          1    1    1    2  502    0  0.59980474290E+01 -0.10948352534E+03  0.10888259248E+04  0.10943329080E+04  0.00000000000E+00 0. -1.
         22    1    3    3    0    0  0.99756894103E+02  0.72683454882E+02  0.85090473200E+02  0.14991568018E+03  0.00000000000E+00 0.  1.
         22    1    3    3    0    0  0.61482153617E+01  0.14176286093E+03  0.16992856111E+03  0.22138253131E+03  0.00000000000E+00 0.  1.
</event>
<event>
 7    1  0.8792454E-005  0.1386558E+03  0.7818608E-02  0.1248831E+00
          2   -1    0    0  502    0  0.00000000000E+00  0.00000000000E+00  0.77065349140E+03  0.77065349140E+03  0.00000000000E+00 0. -1.
          1   -1    0    0  501    0 -0.00000000000E+00 -0.00000000000E+00 -0.12755416085E+04  0.12755416085E+04  0.00000000000E+00 0. -1.
         25    2    1    2    0    0 -0.17590198058E+03  0.13094712629E+03 -0.32938796002E+03  0.41498199095E+03  0.12499987181E+03 0.  0.
          2    1    1    2  501    0  0.82594580049E+02 -0.10086855278E+03 -0.89531292815E+03  0.90475497728E+03  0.00000000000E+00 0. -1.
          1    1    1    2  502    0  0.93307400535E+02 -0.30078573502E+02  0.71981277110E+03  0.72645813164E+03  0.00000000000E+00 0. -1.
         22    1    3    3    0    0 -0.12834718105E+03  0.12513227554E+03 -0.16456249710E+03  0.24333495581E+03  0.00000000000E+00 0.  1.
         22    1    3    3    0    0 -0.47554799532E+02  0.58148507477E+01 -0.16482546292E+03  0.17164703514E+03  0.00000000000E+00 0.  1.
</event>
<event>
 7    1  0.8792454E-005  0.7945601E+02  0.7818608E-02  0.1371102E+00
          2   -1    0    0  502    0  0.00000000000E+00  0.00000000000E+00  0.92384612512E+03  0.92384612512E+03  0.00000000000E+00 0. -1.
          1   -1    0    0  501    0 -0.00000000000E+00 -0.00000000000E+00 -0.20970447062E+03  0.20970447062E+03  0.00000000000E+00 0. -1.
         25    2    1    2    0    0 -0.77329686580E+02  0.62818975690E+02  0.29311212565E+03  0.33386447345E+03  0.12499865718E+03 0.  0.
          2    1    1    2  501    0 -0.12158705220E+01 -0.56250706462E+02 -0.18252845603E+03  0.19100329206E+03  0.00000000000E+00 0. -1.
          1    1    1    2  502    0  0.78545557102E+02 -0.65682692283E+01  0.60355798487E+03  0.60868283022E+03  0.00000000000E+00 0. -1.
         22    1    3    3    0    0 -0.51816903699E+02 -0.15378399385E+02  0.21033648926E+03  0.21717026820E+03  0.00000000000E+00 0.  1.
         22    1    3    3    0    0 -0.25512782881E+02  0.78197375075E+02  0.82775636389E+02  0.11669420525E+03  0.00000000000E+00 0.  1.
</event>
<event>
 7    1  0.8792454E-005  0.2392191E+03  0.7818608E-02  0.1185961E+00
          2   -1    0    0  502    0  0.00000000000E+00  0.00000000000E+00  0.15549366409E+03  0.15549366409E+03  0.00000000000E+00 0. -1.
          1   -1    0    0  501    0 -0.00000000000E+00 -0.00000000000E+00 -0.21390101292E+04  0.21390101292E+04  0.00000000000E+00 0. -1.
         25    2    1    2    0    0 -0.13171780395E+03 -0.23752171140E+03 -0.52851594486E+03  0.60722325686E+03  0.12499934574E+03 0.  0.
          2    1    1    2  501    0  0.18801896163E+03  0.14265761544E+03 -0.15337118313E+04  0.15517649006E+04  0.00000000000E+00 0. -1.
          1    1    1    2  502    0 -0.56301157680E+02  0.94864095962E+02  0.78711311090E+02  0.13551563582E+03  0.00000000000E+00 0. -1.
         22    1    3    3    0    0 -0.14172576280E+03 -0.24547562280E+03 -0.48384212024E+03  0.56075633795E+03  0.00000000000E+00 0. -1.
         22    1    3    3    0    0  0.10007958854E+02  0.79539113985E+01 -0.44673824621E+02  0.46466918913E+02  0.00000000000E+00 0. -1.
</event>
<event>
 7    1  0.8792454E-005  0.2014178E+03  0.7818608E-02  0.1271563E+00
          2   -1    0    0  502    0  0.00000000000E+00  0.00000000000E+00  0.88840402405E+03  0.88840402405E+03  0.00000000000E+00 0. -1.
          1   -1    0    0  501    0 -0.00000000000E+00 -0.00000000000E+00 -0.30330635911E+03  0.30330635911E+03  0.00000000000E+00 0. -1.
         25    2    1    2    0    0  0.16342564103E+03  0.19162245515E+03 -0.70389460371E+02  0.28984133960E+03  0.12500488208E+03 0.  0.
          2    1    1    2  501    0 -0.35181146514E+02 -0.40939922548E+02 -0.10392219445E+03  0.11710513579E+03  0.00000000000E+00 0. -1.
          1    1    1    2  502    0 -0.12824449452E+03 -0.15068253260E+03  0.75940931977E+03  0.78476390778E+03  0.00000000000E+00 0. -1.
         22    1    3    3    0    0  0.77006932486E+01  0.49874647653E+02  0.27668244017E+02  0.57552696566E+02  0.00000000000E+00 0.  1.
         22    1    3    3    0    0  0.15572494778E+03  0.14174780749E+03 -0.98057704388E+02  0.23228864303E+03  0.00000000000E+00 0.  1.
</event>
<event>
 7    1  0.8792454E-005  0.1160903E+03  0.7818608E-02  0.1315852E+00
          2   -1    0    0  502    0  0.00000000000E+00  0.00000000000E+00  0.12466253335E+04  0.12466253335E+04  0.00000000000E+00 0. -1.
          1   -1    0    0  501    0 -0.00000000000E+00 -0.00000000000E+00 -0.62164863758E+03  0.62164863758E+03  0.00000000000E+00 0. -1.
         25    2    1    2    0    0 -0.11574008660E+02  0.62915237883E+02  0.92387666798E+03  0.93448685051E+03  0.12500116521E+03 0.  0.
          2    1    1    2  501    0  0.62562962939E+02 -0.98190457494E+02 -0.60773645793E+03  0.61878840694E+03  0.00000000000E+00 0. -1.
          1    1    1    2  502    0 -0.50988954279E+02  0.35275219611E+02  0.30883648583E+03  0.31499871358E+03  0.00000000000E+00 0. -1.
         22    1    3    3    0    0 -0.10971088669E+02 -0.22040266919E+02  0.43209597120E+02  0.49731352643E+02  0.00000000000E+00 0.  1.
         22    1    3    3    0    0 -0.60291999088E+00  0.84955504801E+02  0.88066707086E+03  0.88475549786E+03  0.00000000000E+00 0.  1.
</event>
<event>
 7    1  0.8792454E-005  0.1669954E+03  0.7818608E-02  0.1188370E+00
          2   -1    0    0  502    0  0.00000000000E+00  0.00000000000E+00  0.52168792313E+03  0.52168792313E+03  0.00000000000E+00 0. -1.
          1   -1    0    0  501    0 -0.00000000000E+00 -0.00000000000E+00 -0.50922307859E+03  0.50922307859E+03  0.00000000000E+00 0. -1.
         25    2    1    2    0    0  0.28864029172E+03  0.99099065172E+02 -0.28957218052E+02  0.33105446502E+03  0.12499878244E+03 0.  0.
          2    1    1    2  501    0 -0.15100134245E+03 -0.29485940185E+02 -0.29335730640E+03  0.33125418534E+03  0.00000000000E+00 0. -1.
          1    1    1    2  502    0 -0.13763894927E+03 -0.69613124987E+02  0.33477936899E+03  0.36860235136E+03  0.00000000000E+00 0. -1.
         22    1    3    3    0    0  0.56648594658E+02 -0.10351438229E+01  0.39736715363E+02  0.69203622357E+02  0.00000000000E+00 0.  1.
         22    1    3    3    0    0  0.23199169706E+03  0.10013420899E+03 -0.68693933415E+02  0.26185084267E+03  0.00000000000E+00 0.  1.
</event>
<event>
 7    1  0.8792454E-005  0.1166569E+03  0.7818608E-02  0.1266894E+00
          2   -1    0    0  502    0  0.00000000000E+00  0.00000000000E+00  0.10934048786E+04  0.10934048786E+04  0.00000000000E+00 0. -1.
          1   -1    0    0  501    0 -0.00000000000E+00 -0.00000000000E+00 -0.10695880532E+03  0.10695880532E+03  0.00000000000E+00 0. -1.
         25    2    1    2    0    0  0.52636609368E+02  0.15567468703E+03  0.97445880054E+02  0.22830886611E+03  0.12499607186E+03 0.  0.
          2    1    1    2  501    0 -0.82453289760E+02 -0.62835396114E+02  0.30536332348E+02  0.10807080823E+03  0.00000000000E+00 0. -1.
          1    1    1    2  502    0  0.29816680393E+02 -0.92839290915E+02  0.85846386091E+03  0.86398400961E+03  0.00000000000E+00 0. -1.
         22    1    3    3    0    0  0.44278164533E+01 -0.61776182438E+01 -0.20801803976E+02  0.22146863759E+02  0.00000000000E+00 0.  1.
         22    1    3    3    0    0  0.48208792914E+02  0.16185230527E+03  0.11824768403E+03  0.20616200236E+03  0.00000000000E+00 0.  1.
</event>
<event>
 7    1  0.8792454E-005  0.4678452E+03  0.7818608E-02  0.1050350E+00
          2   -1    0    0  502    0  0.00000000000E+00  0.00000000000E+00  0.52878592097E+03  0.52878592097E+03  0.00000000000E+00 0. -1.
          1   -1    0    0  501    0 -0.00000000000E+00 -0.00000000000E+00 -0.14735405797E+04  0.14735405797E+04  0.00000000000E+00 0. -1.
         25    2    1    2    0    0 -0.53815285899E+03  0.28641407821E+03 -0.41871442697E+03  0.75005996750E+03  0.12500663846E+03 0.  0.
          2    1    1    2  501    0  0.23722317085E+03 -0.36581391201E+03 -0.75090459674E+03  0.86830430404E+03  0.00000000000E+00 0. -1.
          1    1    1    2  502    0  0.30092968813E+03  0.79399833808E+02  0.22486436495E+03  0.38396222917E+03  0.00000000000E+00 0. -1.
         22    1    3    3    0    0 -0.44823691386E+03  0.27696802465E+03 -0.32122664666E+03  0.61710143101E+03  0.00000000000E+00 0.  1.
         22    1    3    3    0    0 -0.89915945128E+02  0.94460535523E+01 -0.97487780311E+02  0.13295853649E+03  0.00000000000E+00 0.  1.
</event>
<event>
 7    1  0.8792454E-005  0.1184584E+03  0.7818608E-02  0.1253421E+00
          2   -1    0    0  502    0  0.00000000000E+00  0.00000000000E+00  0.23540021895E+04  0.23540021895E+04  0.00000000000E+00 0. -1.
          1   -1    0    0  501    0 -0.00000000000E+00 -0.00000000000E+00 -0.28508518649E+03  0.28508518649E+03  0.00000000000E+00 0. -1.
         25    2    1    2    0    0  0.77834582721E+02 -0.10414766664E+03  0.21199078387E+03  0.27833759119E+03  0.12500705376E+03 0.  0.
          2    1    1    2  501    0  0.42447237246E+02  0.10106538544E+03 -0.23817863861E+03  0.26219276110E+03  0.00000000000E+00 0. -1.
          1    1    1    2  502    0 -0.12028181997E+03  0.30822812060E+01  0.20951048578E+04  0.20985570237E+04  0.00000000000E+00 0. -1.
         22    1    3    3    0    0  0.72656378779E+02 -0.12556896283E+03  0.21127436298E+03  0.25628767090E+03  0.00000000000E+00 0.  1.
         22    1    3    3    0    0  0.51782039422E+01  0.21421296182E+02  0.71642089355E+00  0.22049920296E+02  0.00000000000E+00 0.  1.
</event>
<event>
 7    1  0.8792454E-005  0.9582631E+02  0.7818608E-02  0.1327203E+00
          2   -1    0    0  502    0  0.00000000000E+00  0.00000000000E+00  0.70495894192E+02  0.70495894192E+02  0.00000000000E+00 0. -1.
          1   -1    0    0  501    0 -0.00000000000E+00 -0.00000000000E+00 -0.76197653890E+03  0.76197653890E+03  0.00000000000E+00 0. -1.
         25    2    1    2    0    0  0.79265763776E+02  0.46584149481E+02 -0.72795182626E+02  0.17140093628E+03  0.12500399215E+03 0.  0.
          2    1    1    2  501    0  0.48361151741E+02 -0.47641138304E+02 -0.69125974295E+02  0.96885909083E+02  0.00000000000E+00 0. -1.
          1    1    1    2  502    0 -0.12762691552E+03  0.10569888233E+01 -0.54955948778E+03  0.56418558773E+03  0.00000000000E+00 0. -1.
         22    1    3    3    0    0  0.70684161182E+02 -0.30561534810E+02 -0.29078808847E+02  0.82315461342E+02  0.00000000000E+00 0.  1.
         22    1    3    3    0    0  0.85816025936E+01  0.77145684291E+02 -0.43716373778E+02  0.89085474934E+02  0.00000000000E+00 0.  1.
</event>
<event>
 7    1  0.8792454E-005  0.1662508E+03  0.7818608E-02  0.1248126E+00
          2   -1    0    0  502    0  0.00000000000E+00  0.00000000000E+00  0.48533417486E+03  0.48533417486E+03  0.00000000000E+00 0. -1.
          1   -1    0    0  501    0 -0.00000000000E+00 -0.00000000000E+00 -0.13663171184E+03  0.13663171184E+03  0.00000000000E+00 0. -1.
         25    2    1    2    0    0 -0.18730588222E+03  0.22114704820E+02  0.12946161176E+03  0.26068731027E+03  0.12500004453E+03 0.  0.
          2    1    1    2  501    0  0.13547589109E+03 -0.86098485507E+02  0.42121622680E+02  0.16595450391E+03  0.00000000000E+00 0. -1.
          1    1    1    2  502    0  0.51829991132E+02  0.63983780686E+02  0.17711922858E+03  0.19532407252E+03  0.00000000000E+00 0. -1.
         22    1    3    3    0    0 -0.19164701070E+03  0.30669047822E+01  0.14104601273E+03  0.23797470521E+03  0.00000000000E+00 0.  1.
         22    1    3    3    0    0  0.43411284776E+01  0.19047800038E+02 -0.11584400965E+02  0.22712605057E+02  0.00000000000E+00 0.  1.
</event>
<event>
 7    1  0.8792454E-005  0.9690584E+02  0.7818608E-02  0.1311915E+00
          2   -1    0    0  502    0  0.00000000000E+00  0.00000000000E+00  0.75540497314E+03  0.75540497314E+03  0.00000000000E+00 0. -1.
          1   -1    0    0  501    0 -0.00000000000E+00 -0.00000000000E+00 -0.58172479542E+02  0.58172479542E+02  0.00000000000E+00 0. -1.
         25    2    1    2    0    0 -0.44726311453E+02 -0.13402845870E+03  0.38302581197E+03  0.42696678433E+03  0.12501116591E+03 0.  0.
          2    1    1    2  501    0  0.60234958803E+02  0.47903539064E+02  0.19791319954E+02  0.79465059381E+02  0.00000000000E+00 0. -1.
          1    1    1    2  502    0 -0.15508647350E+02  0.86124919636E+02  0.29441536167E+03  0.30714560898E+03  0.00000000000E+00 0. -1.
         22    1    3    3    0    0 -0.51405547900E+01  0.22882432847E+02  0.80896937491E+02  0.84227937954E+02  0.00000000000E+00 0.  1.
         22    1    3    3    0    0 -0.39585756663E+02 -0.15691089155E+03  0.30212887448E+03  0.34273884637E+03  0.00000000000E+00 0.  1.
</event>
<event>
 7    1  0.9285998E-005  0.1144289E+03  0.7818608E-02  0.1339791E+00
          2   -1    0    0  502    0  0.00000000000E+00  0.00000000000E+00  0.86781934091E+03  0.86781934091E+03  0.00000000000E+00 0. -1.
          1   -1    0    0  501    0 -0.00000000000E+00 -0.00000000000E+00 -0.84196732255E+03  0.84196732255E+03  0.00000000000E+00 0. -1.
         25    2    1    2    0    0  0.64345399966E+02  0.13881335588E+02 -0.18088015499E+03  0.22951129784E+03  0.12499913357E+03 0.  0.
          2    1    1    2  501    0  0.44145072289E+02  0.25379610444E+02 -0.63179712287E+03  0.63384581446E+03  0.00000000000E+00 0. -1.
          1    1    1    2  502    0 -0.10849047226E+03 -0.39260946032E+02  0.83852929623E+03  0.84642955116E+03  0.00000000000E+00 0. -1.
         22    1    3    3    0    0  0.73489809778E+02  0.24138840813E+02 -0.19501607184E+03  0.20979681612E+03  0.00000000000E+00 0.  1.
         22    1    3    3    0    0 -0.91444098121E+01 -0.10257505226E+02  0.14135916854E+02  0.19714481722E+02  0.00000000000E+00 0.  1.
</event>
<event>
 7    1  0.8792454E-005  0.8153375E+02  0.7818608E-02  0.1326727E+00
          2   -1    0    0  502    0  0.00000000000E+00  0.00000000000E+00  0.43005718700E+03  0.43005718700E+03  0.00000000000E+00 0. -1.
          1   -1    0    0  501    0 -0.00000000000E+00 -0.00000000000E+00 -0.18923298723E+04  0.18923298723E+04  0.00000000000E+00 0. -1.
         25    2    1    2    0    0 -0.41154895181E+02 -0.10670795613E+03  0.77309426902E+02  0.18623131363E+03  0.12500016555E+03 0.  0.
          2    1    1    2  501    0  0.73359480383E+02  0.32215880257E+02 -0.18314567849E+04  0.18332085073E+04  0.00000000000E+00 0. -1.
          1    1    1    2  502    0 -0.32204585202E+02  0.74492075876E+02  0.29187467270E+03  0.30294723837E+03  0.00000000000E+00 0. -1.
         22    1    3    3    0    0  0.16873134290E+02  0.47414267295E+01  0.56136268546E+02  0.58808710532E+02  0.00000000000E+00 0. -1.
         22    1    3    3    0    0 -0.58028029471E+02 -0.11144938286E+03  0.21173158356E+02  0.12742260309E+03  0.00000000000E+00 0. -1.
</event>
<event>
 7    1  0.8792454E-005  0.2997476E+03  0.7818608E-02  0.1216889E+00
          2   -1    0    0  502    0  0.00000000000E+00  0.00000000000E+00  0.28627333669E+04  0.28627333669E+04  0.00000000000E+00 0. -1.
          1   -1    0    0  501    0 -0.00000000000E+00 -0.00000000000E+00 -0.10373054909E+04  0.10373054909E+04  0.00000000000E+00 0. -1.
         25    2    1    2    0    0  0.66146804133E+02  0.27164483842E+03 -0.35304603019E+03  0.46736848125E+03  0.12500191955E+03 0.  0.
          2    1    1    2  501    0 -0.12666331955E+03 -0.28905031831E+03 -0.58701294306E+03  0.66646671211E+03  0.00000000000E+00 0. -1.
          1    1    1    2  502    0  0.60516515414E+02  0.17405479889E+02  0.27654868493E+04  0.27662036644E+04  0.00000000000E+00 0. -1.
         22    1    3    3    0    0  0.46893396730E+02  0.29808031697E+02 -0.29320297384E+02  0.62826660338E+02  0.00000000000E+00 0.  1.
         22    1    3    3    0    0  0.19253407403E+02  0.24183680672E+03 -0.32372573281E+03  0.40454182091E+03  0.00000000000E+00 0.  1.
</event>
<event>
 7    1  0.8792454E-005  0.3479729E+03  0.7818608E-02  0.1082708E+00
          2   -1    0    0  502    0  0.00000000000E+00  0.00000000000E+00  0.25243240622E+04  0.25243240622E+04  0.00000000000E+00 0. -1.
          1   -1    0    0  501    0 -0.00000000000E+00 -0.00000000000E+00 -0.12415679906E+03  0.12415679906E+03  0.00000000000E+00 0. -1.
         25    2    1    2    0    0  0.21125411281E+03  0.38578885884E+03  0.13460488224E+04  0.14215955363E+04  0.12500037114E+03 0.  0.
          2    1    1    2  501    0 -0.30922189623E+03 -0.13682402988E+03  0.42403058205E+03  0.54234761064E+03  0.00000000000E+00 0. -1.
          1    1    1    2  502    0  0.97967783417E+02 -0.24896482896E+03  0.63008785866E+03  0.68453771429E+03  0.00000000000E+00 0. -1.
         22    1    3    3    0    0  0.13558235659E+03  0.13033080530E+03  0.48150054542E+03  0.51692501339E+03  0.00000000000E+00 0. -1.
         22    1    3    3    0    0  0.75671756214E+02  0.25545805354E+03  0.86454827700E+03  0.90467052294E+03  0.00000000000E+00 0. -1.
</event>
<event>
 7    1  0.8792454E-005  0.1021189E+03  0.7818608E-02  0.1300287E+00
          2   -1    0    0  502    0  0.00000000000E+00  0.00000000000E+00  0.34858991962E+04  0.34858991962E+04  0.00000000000E+00 0. -1.
          1   -1    0    0  501    0 -0.00000000000E+00 -0.00000000000E+00 -0.24666996370E+02  0.24666996370E+02  0.00000000000E+00 0. -1.
         25    2    1    2    0    0 -0.31500155188E+01  0.10375807661E+03  0.17283710696E+04  0.17359916618E+04  0.12499933751E+03 0.  0.
          2    1    1    2  501    0 -0.76879862571E+02 -0.26171156439E+02  0.67819509042E+02  0.10580608917E+03  0.00000000000E+00 0. -1.
          1    1    1    2  502    0  0.80029878090E+02 -0.77586920169E+02  0.16650416212E+04  0.16687684417E+04  0.00000000000E+00 0. -1.
         22    1    3    3    0    0 -0.39626378359E+02  0.11691326598E+03  0.13556904217E+04  0.13612991886E+04  0.00000000000E+00 0. -1.
         22    1    3    3    0    0  0.36476362840E+02 -0.13155189368E+02  0.37268064797E+03  0.37469247313E+03  0.00000000000E+00 0. -1.
</event>
<event>
 7    1  0.8792454E-005  0.1730267E+04  0.7818608E-02  0.1107849E+00
          2   -1    0    0  502    0  0.00000000000E+00  0.00000000000E+00  0.32471857798E+04  0.32471857798E+04  0.00000000000E+00 0. -1.
          1   -1    0    0  501    0 -0.00000000000E+00 -0.00000000000E+00 -0.19070676228E+04  0.19070676228E+04  0.00000000000E+00 0. -1.
         25    2    1    2    0    0 -0.13250435207E+04 -0.11073782679E+04 -0.76809808434E+03  0.18941032990E+04  0.12500271947E+03 0.  0.
          2    1    1    2  501    0  0.13574319181E+04  0.10861637830E+04  0.73679810269E+03  0.18881855364E+04  0.00000000000E+00 0. -1.
          1    1    1    2  502    0 -0.32388397389E+02  0.21214484978E+02  0.13714181387E+04  0.13719645672E+04  0.00000000000E+00 0. -1.
         22    1    3    3    0    0 -0.50887104663E+02 -0.19131022998E+02 -0.11477815889E+02  0.55562880771E+02  0.00000000000E+00 0.  1.
         22    1    3    3    0    0 -0.12741564161E+04 -0.10882472449E+04 -0.75662026845E+03  0.18385404182E+04  0.00000000000E+00 0.  1.
</event>
<event>
 7    1  0.8792454E-005  0.2122291E+03  0.7818608E-02  0.1239607E+00
          2   -1    0    0  502    0  0.00000000000E+00  0.00000000000E+00  0.17089249973E+04  0.17089249973E+04  0.00000000000E+00 0. -1.
          1   -1    0    0  501    0 -0.00000000000E+00 -0.00000000000E+00 -0.17836126442E+03  0.17836126442E+03  0.00000000000E+00 0. -1.
         25    2    1    2    0    0  0.25556709589E+03 -0.87283366125E+02  0.39865569625E+03  0.49747547663E+03  0.12499023636E+03 0.  0.
          2    1    1    2  501    0 -0.18569240664E+03  0.79621895409E+02 -0.48117405285E+02  0.20769352614E+03  0.00000000000E+00 0. -1.
          1    1    1    2  502    0 -0.69874689253E+02  0.76614707169E+01  0.11800254420E+04  0.11821172590E+04  0.00000000000E+00 0. -1.
         22    1    3    3    0    0  0.18749460596E+03 -0.72806412199E+02  0.37210885909E+03  0.42298936622E+03  0.00000000000E+00 0. -1.
         22    1    3    3    0    0  0.68072489931E+02 -0.14476953927E+02  0.26546837163E+02  0.74486110408E+02  0.00000000000E+00 0. -1.
</event>
<event>
 7    1  0.8792454E-005  0.1297163E+03  0.7818608E-02  0.1288914E+00
          2   -1    0    0  502    0  0.00000000000E+00  0.00000000000E+00  0.17560481194E+04  0.17560481194E+04  0.00000000000E+00 0. -1.
          1   -1    0    0  501    0 -0.00000000000E+00 -0.00000000000E+00 -0.11987779914E+03  0.11987779914E+03  0.00000000000E+00 0. -1.
         25    2    1    2    0    0 -0.49281168883E+02 -0.94309946051E+02  0.33083983182E+03  0.36932778549E+03  0.12500007713E+03 0.  0.
          2    1    1    2  501    0  0.57672041249E+02 -0.41521791214E+02 -0.84335587975E+02  0.11028424587E+03  0.00000000000E+00 0. -1.
          1    1    1    2  502    0 -0.83908723662E+01  0.13583173726E+03  0.13896660764E+04  0.13963138871E+04  0.00000000000E+00 0. -1.
         22    1    3    3    0    0 -0.13972249703E+02  0.16259528747E+02  0.31245633609E+01  0.21664693236E+02  0.00000000000E+00 0.  1.
         22    1    3    3    0    0 -0.35308919180E+02 -0.11056947480E+03  0.32771526846E+03  0.34766309225E+03  0.00000000000E+00 0.  1.
</event>
<event>
 7    1  0.8792454E-005  0.2096183E+03  0.7818608E-02  0.1159069E+00
          2   -1    0    0  502    0  0.00000000000E+00  0.00000000000E+00  0.14842665039E+04  0.14842665039E+04  0.00000000000E+00 0. -1.
          1   -1    0    0  501    0 -0.00000000000E+00 -0.00000000000E+00 -0.38050945275E+03  0.38050945275E+03  0.00000000000E+00 0. -1.
         25    2    1    2    0    0 -0.18126296528E+03  0.31728951570E+03  0.22805108482E+03  0.44850983217E+03  0.12499949167E+03 0.  0.
          2    1    1    2  501    0  0.63486647497E+02 -0.15878034295E+03 -0.23361088833E+03  0.28950958337E+03  0.00000000000E+00 0. -1.
          1    1    1    2  502    0  0.11777631778E+03 -0.15850917275E+03  0.11093168547E+04  0.11267565411E+04  0.00000000000E+00 0. -1.
         22    1    3    3    0    0 -0.57101687257E+02  0.21950946045E+02  0.12692212353E+02  0.62478308030E+02  0.00000000000E+00 0. -1.
         22    1    3    3    0    0 -0.12416127802E+03  0.29533856965E+03  0.21535887246E+03  0.38603152414E+03  0.00000000000E+00 0. -1.
</event>
<event>
 7    1  0.8792454E-005  0.2466957E+03  0.7818608E-02  0.1318850E+00
          2   -1    0    0  502    0  0.00000000000E+00  0.00000000000E+00  0.13749668727E+04  0.13749668727E+04  0.00000000000E+00 0. -1.
          1   -1    0    0  501    0 -0.00000000000E+00 -0.00000000000E+00 -0.17411250408E+03  0.17411250408E+03  0.00000000000E+00 0. -1.
         25    2    1    2    0    0  0.26402422801E+03 -0.59822125964E+02  0.10650685396E+02  0.29837235506E+03  0.12500058174E+03 0.  0.
          2    1    1    2  501    0 -0.28020526932E+02 -0.46433476801E+01 -0.65952456373E+01  0.29158324236E+02  0.00000000000E+00 0. -1.
          1    1    1    2  502    0 -0.23600370108E+03  0.64465473644E+02  0.11967989289E+04  0.12215486975E+04  0.00000000000E+00 0. -1.
         22    1    3    3    0    0  0.19662374680E+03 -0.21631598880E+02 -0.45152682418E+02  0.20289797585E+03  0.00000000000E+00 0.  1.
         22    1    3    3    0    0  0.67400481214E+02 -0.38190527084E+02  0.55803367814E+02  0.95474379213E+02  0.00000000000E+00 0.  1.
</event>
<event>
 7    1  0.8792454E-005  0.1746251E+03  0.7818608E-02  0.1193195E+00
          2   -1    0    0  502    0  0.00000000000E+00  0.00000000000E+00  0.71925744055E+03  0.71925744055E+03  0.00000000000E+00 0. -1.
          1   -1    0    0  501    0 -0.00000000000E+00 -0.00000000000E+00 -0.14884400461E+03  0.14884400461E+03  0.00000000000E+00 0. -1.
         25    2    1    2    0    0 -0.28826086750E+02  0.24955815432E+03  0.21205177224E+03  0.35171424596E+03  0.12500696397E+03 0.  0.
          2    1    1    2  501    0 -0.61930685651E+02 -0.14361092352E+03  0.29491447644E+02  0.15915166560E+03  0.00000000000E+00 0. -1.
          1    1    1    2  502    0  0.90756772401E+02 -0.10594723080E+03  0.32887021606E+03  0.35723553360E+03  0.00000000000E+00 0. -1.
         22    1    3    3    0    0  0.42418177775E+02  0.51396264254E+02  0.28928905847E+02  0.72648189093E+02  0.00000000000E+00 0.  1.
         22    1    3    3    0    0 -0.71244264525E+02  0.19816189007E+03  0.18312286639E+03  0.27906605687E+03  0.00000000000E+00 0.  1.
</event>
<event>
 7    1  0.8792454E-005  0.6592011E+02  0.7818608E-02  0.1431513E+00
          2   -1    0    0  502    0  0.00000000000E+00  0.00000000000E+00  0.15236755846E+04  0.15236755846E+04  0.00000000000E+00 0. -1.
          1   -1    0    0  501    0 -0.00000000000E+00 -0.00000000000E+00 -0.99093768138E+03  0.99093768138E+03  0.00000000000E+00 0. -1.
         25    2    1    2    0    0  0.14912388655E+02 -0.31583417224E+02  0.75622697457E+03  0.76728361686E+03  0.12500008017E+03 0.  0.
          2    1    1    2  501    0  0.12561725617E+02 -0.40143668457E+02 -0.98302268828E+03  0.98392221072E+03  0.00000000000E+00 0. -1.
          1    1    1    2  502    0 -0.27474114272E+02  0.71727085681E+02  0.75953361692E+03  0.76340743840E+03  0.00000000000E+00 0. -1.
         22    1    3    3    0    0  0.54330557319E+01 -0.71276173384E+02  0.64235162949E+03  0.64631681619E+03  0.00000000000E+00 0.  1.
         22    1    3    3    0    0  0.94793329231E+01  0.39692756160E+02  0.11387534509E+03  0.12096680066E+03  0.00000000000E+00 0.  1.
</event>
<event>
 7    1  0.8792454E-005  0.3992061E+03  0.7818608E-02  0.1165492E+00
          2   -1    0    0  502    0  0.00000000000E+00  0.00000000000E+00  0.10382298714E+04  0.10382298714E+04  0.00000000000E+00 0. -1.
          1   -1    0    0  501    0 -0.00000000000E+00 -0.00000000000E+00 -0.12666393342E+04  0.12666393342E+04  0.00000000000E+00 0. -1.
         25    2    1    2    0    0  0.31698217938E+03 -0.32050309093E+03  0.62925363896E+03  0.78408249656E+03  0.12500114369E+03 0.  0.
          2    1    1    2  501    0 -0.23363597713E+03  0.32097815047E+03 -0.11501056952E+04  0.12166987520E+04  0.00000000000E+00 0. -1.
          1    1    1    2  502    0 -0.83346202249E+02 -0.47505954273E+00  0.29244259352E+03  0.30408795704E+03  0.00000000000E+00 0. -1.
         22    1    3    3    0    0  0.71356323050E+01 -0.25088984716E+02  0.10007155403E+03  0.10341513588E+03  0.00000000000E+00 0.  1.
         22    1    3    3    0    0  0.30984654708E+03 -0.29541410622E+03  0.52918208493E+03  0.68066736068E+03  0.00000000000E+00 0.  1.
</event>
<event>
 7    1  0.8792454E-005  0.2530152E+03  0.7818608E-02  0.1206367E+00
          2   -1    0    0  502    0  0.00000000000E+00  0.00000000000E+00  0.10610156958E+04  0.10610156958E+04  0.00000000000E+00 0. -1.
          1   -1    0    0  501    0 -0.00000000000E+00 -0.00000000000E+00 -0.45831310117E+03  0.45831310117E+03  0.00000000000E+00 0. -1.
         25    2    1    2    0    0  0.24328241041E+03 -0.27819739660E+02 -0.33560257654E+03  0.43383771475E+03  0.12500321686E+03 0.  0.
          2    1    1    2  501    0 -0.31403537594E+03 -0.16419654350E+02  0.27737649560E+03  0.41931556458E+03  0.00000000000E+00 0. -1.
          1    1    1    2  502    0  0.70752965527E+02  0.44239394011E+02  0.66092867557E+03  0.66617551764E+03  0.00000000000E+00 0. -1.
         22    1    3    3    0    0  0.11288568330E+03 -0.65004976979E+02 -0.10940877928E+03  0.17011497732E+03  0.00000000000E+00 0.  1.
         22    1    3    3    0    0  0.13039672711E+03  0.37185237319E+02 -0.22619379726E+03  0.26372273743E+03  0.00000000000E+00 0.  1.
</event>
<event>
 7    1  0.8792454E-005  0.1612585E+03  0.7818608E-02  0.1220478E+00
          2   -1    0    0  502    0  0.00000000000E+00  0.00000000000E+00  0.86501409847E+03  0.86501409847E+03  0.00000000000E+00 0. -1.
          1   -1    0    0  501    0 -0.00000000000E+00 -0.00000000000E+00 -0.17963040964E+04  0.17963040964E+04  0.00000000000E+00 0. -1.
         25    2    1    2    0    0 -0.13624477009E+03  0.83777400225E+01 -0.45079006357E+02  0.19053783909E+03  0.12505889575E+03 0.  0.
          2    1    1    2  501    0  0.12754545770E+03  0.10399710695E+03 -0.16704229553E+04  0.16785100809E+04  0.00000000000E+00 0. -1.
          1    1    1    2  502    0  0.86993123897E+01 -0.11237484697E+03  0.78421196378E+03  0.79227027485E+03  0.00000000000E+00 0. -1.
         22    1    3    3    0    0 -0.13886191150E+03  0.44899226530E+02 -0.48438631865E+02  0.15376889173E+03  0.00000000000E+00 0. -1.
         22    1    3    3    0    0  0.26171414134E+01 -0.36521486507E+02  0.33596255088E+01  0.36768947353E+02  0.00000000000E+00 0. -1.
</event>
<event>
 7    1  0.8792454E-005  0.5877914E+03  0.7818608E-02  0.9956545E-01
          2   -1    0    0  502    0  0.00000000000E+00  0.00000000000E+00  0.39118719768E+04  0.39118719768E+04  0.00000000000E+00 0. -1.
          1   -1    0    0  501    0 -0.00000000000E+00 -0.00000000000E+00 -0.14062034561E+04  0.14062034561E+04  0.00000000000E+00 0. -1.
         25    2    1    2    0    0 -0.13158931699E+03  0.38069176532E+03 -0.74786072464E+03  0.85858177299E+03  0.12500011572E+03 0.  0.
          2    1    1    2  501    0 -0.46553412668E+03 -0.31909076691E+03 -0.44116121942E+03  0.71635477394E+03  0.00000000000E+00 0. -1.
          1    1    1    2  502    0  0.59712344367E+03 -0.61600998415E+02  0.36946904647E+04  0.37431388860E+04  0.00000000000E+00 0. -1.
         22    1    3    3    0    0 -0.41213099107E+02  0.13291611749E+03 -0.14718979150E+03  0.20255875333E+03  0.00000000000E+00 0. -1.
         22    1    3    3    0    0 -0.90376217885E+02  0.24777564783E+03 -0.60067093313E+03  0.65602301966E+03  0.00000000000E+00 0. -1.
</event>
<event>
 7    1  0.8792454E-005  0.1040512E+03  0.7818608E-02  0.1342148E+00
          2   -1    0    0  502    0  0.00000000000E+00  0.00000000000E+00  0.94420069164E+02  0.94420069164E+02  0.00000000000E+00 0. -1.
          1   -1    0    0  501    0 -0.00000000000E+00 -0.00000000000E+00 -0.21232000701E+04  0.21232000701E+04  0.00000000000E+00 0. -1.
         25    2    1    2    0    0 -0.61845862399E+02  0.89476546160E+02 -0.51907349511E+03  0.54487967674E+03  0.12500242313E+03 0.  0.
          2    1    1    2  501    0 -0.32469500224E+02 -0.44230826027E+02 -0.15569809367E+04  0.15579474547E+04  0.00000000000E+00 0. -1.
          1    1    1    2  502    0  0.94315362623E+02 -0.45245720133E+02  0.47274430904E+02  0.11479300778E+03  0.00000000000E+00 0. -1.
         22    1    3    3    0    0 -0.54779606212E+02  0.10253234839E+03 -0.25340832204E+03  0.27880004555E+03  0.00000000000E+00 0. -1.
         22    1    3    3    0    0 -0.70662561866E+01 -0.13055802228E+02 -0.26566517307E+03  0.26607963118E+03  0.00000000000E+00 0. -1.
</event>
<event>
 7    1  0.8792454E-005  0.4380635E+03  0.7818608E-02  0.1140893E+00
          2   -1    0    0  502    0  0.00000000000E+00  0.00000000000E+00  0.98185540034E+03  0.98185540034E+03  0.00000000000E+00 0. -1.
          1   -1    0    0  501    0 -0.00000000000E+00 -0.00000000000E+00 -0.16805334717E+04  0.16805334717E+04  0.00000000000E+00 0. -1.
         25    2    1    2    0    0 -0.40132995123E+03  0.22240164481E+03 -0.89822118954E+03  0.10163436607E+04  0.12499964004E+03 0.  0.
          2    1    1    2  501    0 -0.18643051948E+02 -0.99762464009E+02 -0.66733977567E+03  0.67501295454E+03  0.00000000000E+00 0. -1.
          1    1    1    2  502    0  0.41997300318E+03 -0.12263918080E+03  0.86688289384E+03  0.97103225678E+03  0.00000000000E+00 0. -1.
         22    1    3    3    0    0 -0.40660163941E+03  0.20673560107E+03 -0.88307448179E+03  0.99392406265E+03  0.00000000000E+00 0. -1.
         22    1    3    3    0    0  0.52716881807E+01  0.15666043738E+02 -0.15146707746E+02  0.22419598083E+02  0.00000000000E+00 0. -1.
</event>
<event>
 7    1  0.8792454E-005  0.3511416E+03  0.7818608E-02  0.1191775E+00
          2   -1    0    0  502    0  0.00000000000E+00  0.00000000000E+00  0.14022165053E+03  0.14022165053E+03  0.00000000000E+00 0. -1.
          1   -1    0    0  501    0 -0.00000000000E+00 -0.00000000000E+00 -0.18711981146E+04  0.18711981146E+04  0.00000000000E+00 0. -1.
         25    2    1    2    0    0  0.29470646286E+03 -0.26588608815E+03 -0.60733346833E+03  0.73622446278E+03  0.12500082688E+03 0.  0.
          2    1    1    2  501    0 -0.48708197678E+02  0.50925022963E+02 -0.83883962953E+03  0.84179437546E+03  0.00000000000E+00 0. -1.
          1    1    1    2  502    0 -0.24599826518E+03  0.21496106518E+03 -0.28480336620E+03  0.43340092687E+03  0.00000000000E+00 0. -1.
         22    1    3    3    0    0  0.45490120313E+02  0.63930550136E+01 -0.51685392444E+02  0.69149128632E+02  0.00000000000E+00 0.  1.
         22    1    3    3    0    0  0.24921634254E+03 -0.27227914316E+03 -0.55564807589E+03  0.66707533415E+03  0.00000000000E+00 0.  1.
</event>
<event>
 7    1  0.8792454E-005  0.4815176E+02  0.7818608E-02  0.1481799E+00
          2   -1    0    0  502    0  0.00000000000E+00  0.00000000000E+00  0.73017949344E+02  0.73017949344E+02  0.00000000000E+00 0. -1.
          1   -1    0    0  501    0 -0.00000000000E+00 -0.00000000000E+00 -0.96090058094E+03  0.96090058094E+03  0.00000000000E+00 0. -1.
         25    2    1    2    0    0  0.35660092253E+02  0.69283901838E+02 -0.18329702725E+02  0.14844109503E+03  0.12500751761E+03 0.  0.
          2    1    1    2  501    0 -0.37788137733E+02 -0.29449780449E+02 -0.82205785086E+03  0.82345269632E+03  0.00000000000E+00 0. -1.
          1    1    1    2  502    0  0.21280454801E+01 -0.39834121389E+02 -0.47495078012E+02  0.62024738933E+02  0.00000000000E+00 0. -1.
         22    1    3    3    0    0  0.67516964277E+02  0.76057773105E+02 -0.40039021669E+02  0.10929981048E+03  0.00000000000E+00 0.  1.
         22    1    3    3    0    0 -0.31856872023E+02 -0.67738712668E+01  0.21709318944E+02  0.39141284548E+02  0.00000000000E+00 0.  1.
</event>
<event>
 7    1  0.8792454E-005  0.8431537E+02  0.7818608E-02  0.1392167E+00
          2   -1    0    0  502    0  0.00000000000E+00  0.00000000000E+00  0.91813028458E+01  0.91813028458E+01  0.00000000000E+00 0. -1.
          1   -1    0    0  501    0 -0.00000000000E+00 -0.00000000000E+00 -0.24562067370E+04  0.24562067370E+04  0.00000000000E+00 0. -1.
         25    2    1    2    0    0  0.42709941659E+02  0.55849413793E+02 -0.10297561085E+04  0.10396989954E+04  0.12503224371E+03 0.  0.
          2    1    1    2  501    0 -0.23128324115E+02  0.38216762099E+02 -0.77352426860E+03  0.77481303189E+03  0.00000000000E+00 0. -1.
          1    1    1    2  502    0 -0.19581617544E+02 -0.94066175892E+02 -0.64374505705E+03  0.65087601251E+03  0.00000000000E+00 0. -1.
         22    1    3    3    0    0  0.63820492546E+02 -0.17688561626E+02 -0.42662720909E+03  0.43173685970E+03  0.00000000000E+00 0. -1.
         22    1    3    3    0    0 -0.21110550887E+02  0.73537975419E+02 -0.60312889942E+03  0.60796213575E+03  0.00000000000E+00 0. -1.
</event>
<event>
 7    1  0.8792454E-005  0.2579612E+03  0.7818608E-02  0.1129598E+00
          2   -1    0    0  502    0  0.00000000000E+00  0.00000000000E+00  0.13435548026E+03  0.13435548026E+03  0.00000000000E+00 0. -1.
          1   -1    0    0  501    0 -0.00000000000E+00 -0.00000000000E+00 -0.22129905551E+04  0.22129905551E+04  0.00000000000E+00 0. -1.
         25    2    1    2    0    0  0.27680858739E+03 -0.15026750383E+03 -0.22622775323E+03  0.40743998372E+03  0.12500010895E+03 0.  0.
          2    1    1    2  501    0 -0.53508219714E+02  0.19035246406E+03 -0.15463068558E+04  0.15588977139E+04  0.00000000000E+00 0. -1.
          1    1    1    2  502    0 -0.22330036768E+03 -0.40084960228E+02 -0.30610046577E+03  0.38100833769E+03  0.00000000000E+00 0. -1.
         22    1    3    3    0    0  0.16267908353E+03 -0.10583604842E+03 -0.20650242762E+03  0.28338843657E+03  0.00000000000E+00 0.  1.
         22    1    3    3    0    0  0.11412950386E+03 -0.44431455410E+02 -0.19725325614E+02  0.12405154716E+03  0.00000000000E+00 0.  1.
</event>
<event>
 7    1  0.8792454E-005  0.1946187E+03  0.7818608E-02  0.1319865E+00
          2   -1    0    0  502    0  0.00000000000E+00  0.00000000000E+00  0.11865249437E+04  0.11865249437E+04  0.00000000000E+00 0. -1.
          1   -1    0    0  501    0 -0.00000000000E+00 -0.00000000000E+00 -0.82233897903E+02  0.82233897903E+02  0.00000000000E+00 0. -1.
         25    2    1    2    0    0  0.18574357710E+03 -0.82317359875E+02  0.19568582820E+03  0.30853587769E+03  0.12499848116E+03 0.  0.
          2    1    1    2  501    0 -0.15492570042E+03  0.10029325586E+03  0.31160731580E+03  0.36215994958E+03  0.00000000000E+00 0. -1.
          1    1    1    2  502    0 -0.30817876685E+02 -0.17975895989E+02  0.59699790179E+03  0.59806301432E+03  0.00000000000E+00 0. -1.
         22    1    3    3    0    0  0.15585239985E+03 -0.11302397779E+03  0.13891149479E+03  0.23740428277E+03  0.00000000000E+00 0.  1.
         22    1    3    3    0    0  0.29891177258E+02  0.30706617913E+02  0.56774333414E+02  0.71131594922E+02  0.00000000000E+00 0.  1.
</event>
<event>
 7    1  0.8792454E-005  0.2366913E+03  0.7818608E-02  0.1198907E+00
          2   -1    0    0  502    0  0.00000000000E+00  0.00000000000E+00  0.82419188022E+03  0.82419188022E+03  0.00000000000E+00 0. -1.
          1   -1    0    0  501    0 -0.00000000000E+00 -0.00000000000E+00 -0.62866561647E+03  0.62866561647E+03  0.00000000000E+00 0. -1.
         25    2    1    2    0    0 -0.29981548296E+03  0.73325229182E+01  0.13121737458E+02  0.32517450976E+03  0.12499276817E+03 0.  0.
          2    1    1    2  501    0  0.21929844642E+03 -0.60870823137E+02 -0.44129852505E+03  0.49652940892E+03  0.00000000000E+00 0. -1.
          1    1    1    2  502    0  0.80517036535E+02  0.53538300219E+02  0.62370305135E+03  0.63115357800E+03  0.00000000000E+00 0. -1.
         22    1    3    3    0    0 -0.16358513803E+03  0.45339670225E+02  0.53686466049E+02  0.17803937687E+03  0.00000000000E+00 0.  1.
         22    1    3    3    0    0 -0.13623034493E+03 -0.38007147307E+02 -0.40564728591E+02  0.14713513289E+03  0.00000000000E+00 0.  1.
</event>
<event>
 7    1  0.8792454E-005  0.1137751E+03  0.7818608E-02  0.1281034E+00
          2   -1    0    0  502    0  0.00000000000E+00  0.00000000000E+00  0.13272206858E+03  0.13272206858E+03  0.00000000000E+00 0. -1.
          1   -1    0    0  501    0 -0.00000000000E+00 -0.00000000000E+00 -0.52516487595E+03  0.52516487595E+03  0.00000000000E+00 0. -1.
         25    2    1    2    0    0  0.11807127601E+03  0.71860412707E+02 -0.84143021494E+02  0.20447374959E+03  0.12499888428E+03 0.  0.
          2    1    1    2  501    0 -0.38368666098E+02 -0.10742654398E+03 -0.34148879181E+03  0.36003779221E+03  0.00000000000E+00 0. -1.
          1    1    1    2  502    0 -0.79702609917E+02  0.35566131268E+02  0.33189005935E+02  0.93375402735E+02  0.00000000000E+00 0. -1.
         22    1    3    3    0    0  0.47189345326E+01 -0.31508218144E+02 -0.23167180661E+02  0.39392314143E+02  0.00000000000E+00 0.  1.
         22    1    3    3    0    0  0.11335234148E+03  0.10336863085E+03 -0.60975840833E+02  0.16508143545E+03  0.00000000000E+00 0.  1.
</event>
<event>
 7    1  0.8792454E-005  0.5019153E+03  0.7818608E-02  0.1085463E+00
          2   -1    0    0  502    0  0.00000000000E+00  0.00000000000E+00  0.28356395043E+04  0.28356395043E+04  0.00000000000E+00 0. -1.
          1   -1    0    0  501    0 -0.00000000000E+00 -0.00000000000E+00 -0.58843447019E+03  0.58843447019E+03  0.00000000000E+00 0. -1.
         25    2    1    2    0    0  0.41132883261E+02  0.38518646622E+03  0.53535197683E+02  0.41055109824E+03  0.12500263610E+03 0.  0.
          2    1    1    2  501    0  0.14845672974E+03  0.99619260967E+02 -0.36287090994E+03  0.40452279916E+03  0.00000000000E+00 0. -1.
          1    1    1    2  502    0 -0.18958961300E+03 -0.48480572719E+03  0.25565407463E+04  0.26090000771E+04  0.00000000000E+00 0. -1.
         22    1    3    3    0    0 -0.32529483711E+02  0.88579937163E+02 -0.19433035423E+02  0.96344254858E+02  0.00000000000E+00 0. -1.
         22    1    3    3    0    0  0.73662366972E+02  0.29660652906E+03  0.72968233107E+02  0.31420684338E+03  0.00000000000E+00 0. -1.
</event>
<event>
 7    1  0.8792454E-005  0.2035161E+03  0.7818608E-02  0.1280377E+00
          2   -1    0    0  502    0  0.00000000000E+00  0.00000000000E+00  0.31566559689E+03  0.31566559689E+03  0.00000000000E+00 0. -1.
          1   -1    0    0  501    0 -0.00000000000E+00 -0.00000000000E+00 -0.14421772962E+04  0.14421772962E+04  0.00000000000E+00 0. -1.
         25    2    1    2    0    0  0.82713932189E+02  0.23235327284E+03 -0.12649150671E+02  0.27679272320E+03  0.12499829050E+03 0.  0.
          2    1    1    2  501    0 -0.82605187335E+02 -0.18325504759E+03 -0.12862217548E+04  0.13018342567E+04  0.00000000000E+00 0. -1.
          1    1    1    2  502    0 -0.10874485320E+00 -0.49098225249E+02  0.17235920622E+03  0.17921591312E+03  0.00000000000E+00 0. -1.
         22    1    3    3    0    0  0.41093984136E+02  0.11766364003E+02 -0.29102044449E+02  0.51711621954E+02  0.00000000000E+00 0.  1.
         22    1    3    3    0    0  0.41619948052E+02  0.22058690883E+03  0.16452893778E+02  0.22508110125E+03  0.00000000000E+00 0.  1.
</event>
<event>
 7    1  0.8792454E-005  0.1376001E+03  0.7818608E-02  0.1258990E+00
          2   -1    0    0  502    0  0.00000000000E+00  0.00000000000E+00  0.16739432133E+04  0.16739432133E+04  0.00000000000E+00 0. -1.
          1   -1    0    0  501    0 -0.00000000000E+00 -0.00000000000E+00 -0.64930023988E+03  0.64930023988E+03  0.00000000000E+00 0. -1.
         25    2    1    2    0    0 -0.24753918232E+02  0.15949313379E+03  0.60529004057E+03  0.63878710841E+03  0.12498848133E+03 0.  0.
          2    1    1    2  501    0 -0.67505276071E+02 -0.58478017959E+02 -0.62491520388E+03  0.63126512094E+03  0.00000000000E+00 0. -1.
          1    1    1    2  502    0  0.92259194304E+02 -0.10101511583E+03  0.10442681367E+04  0.10531912238E+04  0.00000000000E+00 0. -1.
         22    1    3    3    0    0 -0.51133977807E+02  0.77752732585E+02  0.46555572465E+03  0.47476552514E+03  0.00000000000E+00 0. -1.
         22    1    3    3    0    0  0.26380059575E+02  0.81740401200E+02  0.13973431593E+03  0.16402158327E+03  0.00000000000E+00 0. -1.
</event>
<event>
 7    1  0.8792454E-005  0.3281893E+03  0.7818608E-02  0.1116129E+00
          2   -1    0    0  502    0  0.00000000000E+00  0.00000000000E+00  0.15623711609E+04  0.15623711609E+04  0.00000000000E+00 0. -1.
          1   -1    0    0  501    0 -0.00000000000E+00 -0.00000000000E+00 -0.18585409903E+03  0.18585409903E+03  0.00000000000E+00 0. -1.
         25    2    1    2    0    0  0.42703719494E+02  0.35641276592E+03  0.11491586469E+04  0.12103902581E+04  0.12500125448E+03 0.  0.
          2    1    1    2  501    0 -0.15721570568E+03 -0.95150402633E+02  0.19329200025E+02  0.18478093843E+03  0.00000000000E+00 0. -1.
          1    1    1    2  502    0  0.11451198619E+03 -0.26126236329E+03  0.20802921491E+03  0.35305406344E+03  0.00000000000E+00 0. -1.
         22    1    3    3    0    0  0.86430775317E+02  0.22234881180E+03  0.75276787553E+03  0.78966369263E+03  0.00000000000E+00 0. -1.
         22    1    3    3    0    0 -0.43727055822E+02  0.13406395413E+03  0.39639077140E+03  0.42072656543E+03  0.00000000000E+00 0. -1.
</event>
<event>
 7    1  0.8792454E-005  0.9251457E+02  0.7818608E-02  0.1316227E+00
          2   -1    0    0  502    0  0.00000000000E+00  0.00000000000E+00  0.79306021769E+03  0.79306021769E+03  0.00000000000E+00 0. -1.
          1   -1    0    0  501    0 -0.00000000000E+00 -0.00000000000E+00 -0.21013712266E+03  0.21013712266E+03  0.00000000000E+00 0. -1.
         25    2    1    2    0    0 -0.10476467059E+03 -0.78159031513E+02  0.10854679174E+03  0.21092986734E+03  0.12499813009E+03 0.  0.
          2    1    1    2  501    0  0.91150523292E+02  0.18235268208E+01 -0.14324565802E+03  0.16979711920E+03  0.00000000000E+00 0. -1.
          1    1    1    2  502    0  0.13614147303E+02  0.76335504692E+02  0.61762196131E+03  0.62247035381E+03  0.00000000000E+00 0. -1.
         22    1    3    3    0    0 -0.11678259913E+03 -0.25425448526E+02  0.45558397207E+02  0.12790698358E+03  0.00000000000E+00 0. -1.
         22    1    3    3    0    0  0.12017928537E+02 -0.52733582987E+02  0.62988394537E+02  0.83022883757E+02  0.00000000000E+00 0. -1.
</event>
<event>
 7    1  0.8792454E-005  0.2357322E+03  0.7818608E-02  0.1156705E+00
          2   -1    0    0  502    0  0.00000000000E+00  0.00000000000E+00  0.37397293351E+04  0.37397293351E+04  0.00000000000E+00 0. -1.
          1   -1    0    0  501    0 -0.00000000000E+00 -0.00000000000E+00 -0.15722170686E+04  0.15722170686E+04  0.00000000000E+00 0. -1.
         25    2    1    2    0    0  0.28993992616E+02 -0.34548994211E+03  0.86975449124E+02  0.37867390134E+03  0.12500097240E+03 0.  0.
          2    1    1    2  501    0  0.75594419967E+02  0.13682217262E+03 -0.14181848367E+04  0.14267736521E+04  0.00000000000E+00 0. -1.
          1    1    1    2  502    0 -0.10458841258E+03  0.20866776949E+03  0.34987216541E+04  0.35064988502E+04  0.00000000000E+00 0. -1.
         22    1    3    3    0    0 -0.36481713581E+02 -0.77049853687E+02  0.52754779915E+02  0.10025299089E+03  0.00000000000E+00 0. -1.
         22    1    3    3    0    0  0.65475706197E+02 -0.26844008842E+03  0.34220669209E+02  0.27842091045E+03  0.00000000000E+00 0. -1.
</event>
<event>
 7    1  0.8792454E-005  0.5613502E+03  0.7818608E-02  0.1005859E+00
          2   -1    0    0  502    0  0.00000000000E+00  0.00000000000E+00  0.24905508649E+04  0.24905508649E+04  0.00000000000E+00 0. -1.
          1   -1    0    0  501    0 -0.00000000000E+00 -0.00000000000E+00 -0.50365605270E+03  0.50365605270E+03  0.00000000000E+00 0. -1.
         25    2    1    2    0    0 -0.19103255232E+03  0.16533700422E+03 -0.13425819122E+03  0.31221810049E+03  0.12500047740E+03 0.  0.
          2    1    1    2  501    0 -0.29913860680E+03 -0.47500545367E+03  0.88526747712E+02  0.56828784270E+03  0.00000000000E+00 0. -1.
          1    1    1    2  502    0  0.49017115912E+03  0.30966844945E+03  0.20326262557E+04  0.21137009744E+04  0.00000000000E+00 0. -1.
         22    1    3    3    0    0  0.96930203037E+01  0.35451993062E+02 -0.42358308140E+02  0.56080519997E+02  0.00000000000E+00 0. -1.
         22    1    3    3    0    0 -0.20072557262E+03  0.12988501116E+03 -0.91899883085E+02  0.25613758049E+03  0.00000000000E+00 0. -1.
</event>
<event>
 7    1  0.8792454E-005  0.6499022E+03  0.7818608E-02  0.1102663E+00
          2   -1    0    0  502    0  0.00000000000E+00  0.00000000000E+00  0.10704793914E+04  0.10704793914E+04  0.00000000000E+00 0. -1.
          1   -1    0    0  501    0 -0.00000000000E+00 -0.00000000000E+00 -0.70166142064E+03  0.70166142064E+03  0.00000000000E+00 0. -1.
         25    2    1    2    0    0 -0.33036140147E+02 -0.61459080118E+03  0.38037469401E+03  0.73425003089E+03  0.12499984227E+03 0.  0.
          2    1    1    2  501    0  0.13703473321E+03  0.65098436073E+03 -0.29951888885E+03  0.72956885954E+03  0.00000000000E+00 0. -1.
          1    1    1    2  502    0 -0.10399859307E+03 -0.36393559556E+02  0.28796216564E+03  0.30832192166E+03  0.00000000000E+00 0. -1.
         22    1    3    3    0    0  0.31852101698E+02 -0.19615838953E+03  0.75969570259E+02  0.21275348592E+03  0.00000000000E+00 0. -1.
         22    1    3    3    0    0 -0.64888241845E+02 -0.41843241165E+03  0.30440512375E+03  0.52149654497E+03  0.00000000000E+00 0. -1.
</event>
<event>
 7    1  0.8792454E-005  0.7544732E+02  0.7818608E-02  0.1359061E+00
          2   -1    0    0  502    0  0.00000000000E+00  0.00000000000E+00  0.16683000661E+04  0.16683000661E+04  0.00000000000E+00 0. -1.
          1   -1    0    0  501    0 -0.00000000000E+00 -0.00000000000E+00 -0.79028087437E+03  0.79028087437E+03  0.00000000000E+00 0. -1.
         25    2    1    2    0    0  0.83029029655E+02 -0.59442631050E+02  0.52064605204E+03  0.54509014863E+03  0.12499484977E+03 0.  0.
          2    1    1    2  501    0 -0.18939474332E+02  0.73020691829E+02 -0.77528159355E+03  0.77894304954E+03  0.00000000000E+00 0. -1.
          1    1    1    2  502    0 -0.64089555322E+02 -0.13578060779E+02  0.11326547332E+04  0.11345477423E+04  0.00000000000E+00 0. -1.
         22    1    3    3    0    0  0.10354258240E+03 -0.44028843275E+02  0.26152123756E+03  0.28469802090E+03  0.00000000000E+00 0. -1.
         22    1    3    3    0    0 -0.20513552747E+02 -0.15413787775E+02  0.25912481449E+03  0.26039212773E+03  0.00000000000E+00 0. -1.
</event>
<event>
 7    1  0.8792454E-005  0.1885420E+03  0.7818608E-02  0.1213952E+00
          2   -1    0    0  502    0  0.00000000000E+00  0.00000000000E+00  0.73637929489E+03  0.73637929489E+03  0.00000000000E+00 0. -1.
          1   -1    0    0  501    0 -0.00000000000E+00 -0.00000000000E+00 -0.40948132721E+03  0.40948132721E+03  0.00000000000E+00 0. -1.
         25    2    1    2    0    0  0.30984879260E+02 -0.26399081566E+03  0.34080380936E+01  0.29374723637E+03  0.12499844261E+03 0.  0.
          2    1    1    2  501    0  0.38268141027E+02  0.95919141962E+02 -0.23933290965E+03  0.26066295106E+03  0.00000000000E+00 0. -1.
          1    1    1    2  502    0 -0.69253020288E+02  0.16807167370E+03  0.56282283924E+03  0.59145043468E+03  0.00000000000E+00 0. -1.
         22    1    3    3    0    0  0.47599069649E+02 -0.16041023262E+03 -0.51858076122E+02  0.17517526715E+03  0.00000000000E+00 0. -1.
         22    1    3    3    0    0 -0.16614190389E+02 -0.10358058303E+03  0.55266114216E+02  0.11857196922E+03  0.00000000000E+00 0. -1.
</event>
<event>
 7    1  0.8792454E-005  0.1681453E+03  0.7818608E-02  0.1181565E+00
          2   -1    0    0  502    0  0.00000000000E+00  0.00000000000E+00  0.17018082589E+04  0.17018082589E+04  0.00000000000E+00 0. -1.
          1   -1    0    0  501    0 -0.00000000000E+00 -0.00000000000E+00 -0.67929235066E+03  0.67929235066E+03  0.00000000000E+00 0. -1.
         25    2    1    2    0    0 -0.49039590745E+02  0.11976616466E+03  0.53153950037E+03  0.56116748323E+03  0.12500355244E+03 0.  0.
          2    1    1    2  501    0 -0.15729747303E+03 -0.49288197124E+02 -0.64371339653E+03  0.66448382845E+03  0.00000000000E+00 0. -1.
          1    1    1    2  502    0  0.20633706378E+03 -0.70477967535E+02  0.11346898044E+04  0.11554492979E+04  0.00000000000E+00 0. -1.
         22    1    3    3    0    0 -0.72874435040E+02  0.12271278760E+03  0.34899458125E+03  0.37704950506E+03  0.00000000000E+00 0.  1.
         22    1    3    3    0    0  0.23834844295E+02 -0.29466229364E+01  0.18254491912E+03  0.18411797817E+03  0.00000000000E+00 0.  1.
</event>
<event>
 7    1  0.1534756E-004  0.1424754E+03  0.7818608E-02  0.1211870E+00
          2   -1    0    0  502    0  0.00000000000E+00  0.00000000000E+00  0.15763721081E+04  0.15763721081E+04  0.00000000000E+00 0. -1.
          1   -1    0    0  501    0 -0.00000000000E+00 -0.00000000000E+00 -0.26700466120E+04  0.26700466120E+04  0.00000000000E+00 0. -1.
         25    2    1    2    0    0 -0.12661513902E+03 -0.40733682809E+02 -0.30889800359E+03  0.35879547487E+03  0.12500235924E+03 0.  0.
          2    1    1    2  501    0  0.10647073983E+03 -0.10031040198E+03 -0.23306308991E+04  0.23352170313E+04  0.00000000000E+00 0. -1.
          1    1    1    2  502    0  0.20144399185E+02  0.14104408479E+03  0.15458543988E+04  0.15524062139E+04  0.00000000000E+00 0. -1.
         22    1    3    3    0    0 -0.98908447557E+02 -0.71562017396E+02 -0.14408585237E+03  0.18885109527E+03  0.00000000000E+00 0. -1.
         22    1    3    3    0    0 -0.27706691458E+02  0.30828334587E+02 -0.16481215122E+03  0.16994437959E+03  0.00000000000E+00 0. -1.
</event>
<event>
 7    1  0.8792454E-005  0.1158576E+03  0.7818608E-02  0.1273953E+00
          2   -1    0    0  502    0  0.00000000000E+00  0.00000000000E+00  0.59076676029E+03  0.59076676029E+03  0.00000000000E+00 0. -1.
          1   -1    0    0  501    0 -0.00000000000E+00 -0.00000000000E+00 -0.40841450791E+03  0.40841450791E+03  0.00000000000E+00 0. -1.
         25    2    1    2    0    0 -0.11901954681E+03 -0.88652847404E+02 -0.21749821784E+03  0.29147197291E+03  0.12500182539E+03 0.  0.
          2    1    1    2  501    0  0.10848222796E+03 -0.24480020986E+01 -0.13036822201E+03  0.16961798197E+03  0.00000000000E+00 0. -1.
          1    1    1    2  502    0  0.10537318854E+02  0.91100849503E+02  0.53021869224E+03  0.53809131332E+03  0.00000000000E+00 0. -1.
         22    1    3    3    0    0  0.32210359362E+01  0.25253316519E+02 -0.42324563335E+02  0.49391028833E+02  0.00000000000E+00 0.  1.
         22    1    3    3    0    0 -0.12224058275E+03 -0.11390616392E+03 -0.17517365451E+03  0.24208094407E+03  0.00000000000E+00 0.  1.
</event>
<event>
 7    1  0.8792454E-005  0.5301578E+03  0.7818608E-02  0.1011430E+00
          2   -1    0    0  502    0  0.00000000000E+00  0.00000000000E+00  0.47639529030E+04  0.47639529030E+04  0.00000000000E+00 0. -1.
          1   -1    0    0  501    0 -0.00000000000E+00 -0.00000000000E+00 -0.51788871141E+03  0.51788871141E+03  0.00000000000E+00 0. -1.
         25    2    1    2    0    0 -0.19981580124E+03 -0.66043178789E+03  0.17868451284E+04  0.19195148838E+04  0.12500150179E+03 0.  0.
          2    1    1    2  501    0  0.44636737127E+03  0.19940369943E+03 -0.28692328611E+03  0.56686033341E+03  0.00000000000E+00 0. -1.
          1    1    1    2  502    0 -0.24655157003E+03  0.46102808847E+03  0.27461423493E+04  0.27954663971E+04  0.00000000000E+00 0. -1.
         22    1    3    3    0    0 -0.67892689432E+02 -0.13213046863E+03  0.27435584446E+03  0.31199199895E+03  0.00000000000E+00 0.  1.
         22    1    3    3    0    0 -0.13192311181E+03 -0.52830131927E+03  0.15124892839E+04  0.16075228849E+04  0.00000000000E+00 0.  1.
</event>
<event>
 7    1  0.8792454E-005  0.4900331E+03  0.7818608E-02  0.1058802E+00
          2   -1    0    0  502    0  0.00000000000E+00  0.00000000000E+00  0.27631551691E+04  0.27631551691E+04  0.00000000000E+00 0. -1.
          1   -1    0    0  501    0 -0.00000000000E+00 -0.00000000000E+00 -0.22727194255E+03  0.22727194255E+03  0.00000000000E+00 0. -1.
         25    2    1    2    0    0  0.56997635628E+03 -0.19256751845E+03  0.36496636825E+03  0.71468991931E+03  0.12500373964E+03 0.  0.
          2    1    1    2  501    0 -0.33496731415E+03  0.73032802777E+02  0.67836812474E+03  0.76007907779E+03  0.00000000000E+00 0. -1.
          1    1    1    2  502    0 -0.23500904213E+03  0.11953471567E+03  0.14925487335E+04  0.15156581145E+04  0.00000000000E+00 0. -1.
         22    1    3    3    0    0  0.53542839664E+03 -0.20958378012E+03  0.33171539057E+03  0.66381023580E+03  0.00000000000E+00 0. -1.
         22    1    3    3    0    0  0.34547959640E+02  0.17016261671E+02  0.33250977681E+02  0.50879683502E+02  0.00000000000E+00 0. -1.
</event>
<event>
 7    1  0.8792454E-005  0.6754348E+02  0.7818608E-02  0.1391574E+00
          2   -1    0    0  502    0  0.00000000000E+00  0.00000000000E+00  0.60763419739E+03  0.60763419739E+03  0.00000000000E+00 0. -1.
          1   -1    0    0  501    0 -0.00000000000E+00 -0.00000000000E+00 -0.72166811234E+02  0.72166811234E+02  0.00000000000E+00 0. -1.
         25    2    1    2    0    0 -0.87581471108E+02 -0.22255894314E+02  0.52702718048E+03  0.54913431047E+03  0.12500001219E+03 0.  0.
          2    1    1    2  501    0  0.61518992628E+02 -0.27341341527E+02 -0.16538418030E+02  0.69322829439E+02  0.00000000000E+00 0. -1.
          1    1    1    2  502    0  0.26062478481E+02  0.49597235841E+02  0.24978623705E+02  0.61343868722E+02  0.00000000000E+00 0. -1.
         22    1    3    3    0    0 -0.70935115082E+02 -0.72427514180E+02  0.34816899694E+03  0.36262816464E+03  0.00000000000E+00 0. -1.
         22    1    3    3    0    0 -0.16646356026E+02  0.50171619866E+02  0.17885818355E+03  0.18650614582E+03  0.00000000000E+00 0. -1.
</event>
<event>
 7    1  0.8792454E-005  0.9843504E+03  0.7818608E-02  0.1005874E+00
          2   -1    0    0  502    0  0.00000000000E+00  0.00000000000E+00  0.97025137086E+03  0.97025137086E+03  0.00000000000E+00 0. -1.
          1   -1    0    0  501    0 -0.00000000000E+00 -0.00000000000E+00 -0.18884783992E+04  0.18884783992E+04  0.00000000000E+00 0. -1.
         25    2    1    2    0    0 -0.95501842737E+03  0.61648035593E+03 -0.83837447281E+03  0.14179580855E+04  0.12500059846E+03 0.  0.
          2    1    1    2  501    0  0.72644281361E+03 -0.44299030417E+03 -0.45782438563E+03  0.96621050455E+03  0.00000000000E+00 0. -1.
          1    1    1    2  502    0  0.22857561376E+03 -0.17349005176E+03  0.37797183009E+03  0.47456118005E+03  0.00000000000E+00 0. -1.
         22    1    3    3    0    0 -0.12773419548E+03  0.49977516292E+02 -0.14041051509E+03  0.19628777236E+03  0.00000000000E+00 0.  1.
         22    1    3    3    0    0 -0.82728423189E+03  0.56650283964E+03 -0.69796395772E+03  0.12216703131E+04  0.00000000000E+00 0.  1.
</event>
<event>
 7    1  0.8792454E-005  0.6846822E+03  0.7818608E-02  0.1064591E+00
          2   -1    0    0  502    0  0.00000000000E+00  0.00000000000E+00  0.19737226494E+04  0.19737226494E+04  0.00000000000E+00 0. -1.
          1   -1    0    0  501    0 -0.00000000000E+00 -0.00000000000E+00 -0.50272319458E+03  0.50272319458E+03  0.00000000000E+00 0. -1.
         25    2    1    2    0    0  0.72277452496E+03  0.20584823095E+03  0.79982467925E+03  0.11045911957E+04  0.12500273593E+03 0.  0.
          2    1    1    2  501    0 -0.14974797718E+03  0.88742726068E+02 -0.21473110193E+03  0.27642209433E+03  0.00000000000E+00 0. -1.
          1    1    1    2  502    0 -0.57302654778E+03 -0.29459095702E+03  0.88590587749E+03  0.10954325539E+04  0.00000000000E+00 0. -1.
         22    1    3    3    0    0  0.42719017770E+03  0.93838025843E+02  0.54348118457E+03  0.69761652861E+03  0.00000000000E+00 0. -1.
         22    1    3    3    0    0  0.29558434726E+03  0.11201020511E+03  0.25634349468E+03  0.40697466710E+03  0.00000000000E+00 0. -1.
</event>
<event>
 7    1  0.8792454E-005  0.7578727E+02  0.7818608E-02  0.1386918E+00
          2   -1    0    0  502    0  0.00000000000E+00  0.00000000000E+00  0.51642943524E+02  0.51642943524E+02  0.00000000000E+00 0. -1.
          1   -1    0    0  501    0 -0.00000000000E+00 -0.00000000000E+00 -0.13926560098E+04  0.13926560098E+04  0.00000000000E+00 0. -1.
         25    2    1    2    0    0 -0.41418317643E+02  0.13375709290E+02 -0.74662400829E+02  0.15196456153E+03  0.12499746888E+03 0.  0.
          2    1    1    2  501    0  0.41157482173E+02 -0.65214238814E+02 -0.12210735506E+04  0.12235062122E+04  0.00000000000E+00 0. -1.
          1    1    1    2  502    0  0.26083546967E+00  0.51838529523E+02 -0.45277114820E+02  0.68828179583E+02  0.00000000000E+00 0. -1.
         22    1    3    3    0    0  0.41803314440E+02 -0.14379058503E+02 -0.19360287544E+02  0.48260699905E+02  0.00000000000E+00 0.  1.
         22    1    3    3    0    0 -0.83221632083E+02  0.27754767793E+02 -0.55302113285E+02  0.10370386162E+03  0.00000000000E+00 0.  1.
</event>
<event>
 7    1  0.8792454E-005  0.1532038E+03  0.7818608E-02  0.1216314E+00
          2   -1    0    0  502    0  0.00000000000E+00  0.00000000000E+00  0.31272229388E+03  0.31272229388E+03  0.00000000000E+00 0. -1.
          1   -1    0    0  501    0 -0.00000000000E+00 -0.00000000000E+00 -0.20903128580E+03  0.20903128580E+03  0.00000000000E+00 0. -1.
         25    2    1    2    0    0  0.10819462461E+03 -0.38778772441E+02  0.28937609420E+02  0.17225610034E+03  0.12499963552E+03 0.  0.
          2    1    1    2  501    0 -0.12343180548E+03  0.16179134155E+03 -0.23651780984E+01  0.20351275850E+03  0.00000000000E+00 0. -1.
          1    1    1    2  502    0  0.15237180872E+02 -0.12301256910E+03  0.77118576761E+02  0.14598472085E+03  0.00000000000E+00 0. -1.
         22    1    3    3    0    0 -0.56977855441E+01 -0.13372459765E+02 -0.35921342037E+02  0.38750874236E+02  0.00000000000E+00 0.  1.
         22    1    3    3    0    0  0.11389241015E+03 -0.25406312676E+02  0.64858951458E+02  0.13350522611E+03  0.00000000000E+00 0.  1.
</event>
<event>
 7    1  0.8792454E-005  0.1264955E+03  0.7818608E-02  0.1361482E+00
          2   -1    0    0  502    0  0.00000000000E+00  0.00000000000E+00  0.52075311032E+03  0.52075311032E+03  0.00000000000E+00 0. -1.
          1   -1    0    0  501    0 -0.00000000000E+00 -0.00000000000E+00 -0.12659971201E+04  0.12659971201E+04  0.00000000000E+00 0. -1.
         25    2    1    2    0    0 -0.14944634595E+03  0.79609096989E+01  0.29032214732E+03  0.34972840172E+03  0.12500167736E+03 0.  0.
          2    1    1    2  501    0  0.12157573186E+03 -0.34213143605E+02 -0.12312078777E+04  0.12376687908E+04  0.00000000000E+00 0. -1.
          1    1    1    2  502    0  0.27870614089E+02  0.26252233906E+02  0.19564172053E+03  0.19935303791E+03  0.00000000000E+00 0. -1.
         22    1    3    3    0    0  0.52751710014E-01  0.34105755337E+02  0.19518006109E+02  0.39295774484E+02  0.00000000000E+00 0. -1.
         22    1    3    3    0    0 -0.14949909766E+03 -0.26144845638E+02  0.27080414121E+03  0.31043262723E+03  0.00000000000E+00 0. -1.
</event>
<event>
 7    1  0.8792454E-005  0.1074802E+04  0.7818608E-02  0.1015317E+00
          2   -1    0    0  502    0  0.00000000000E+00  0.00000000000E+00  0.19791254457E+04  0.19791254457E+04  0.00000000000E+00 0. -1.
          1   -1    0    0  501    0 -0.00000000000E+00 -0.00000000000E+00 -0.11003131764E+04  0.11003131764E+04  0.00000000000E+00 0. -1.
         25    2    1    2    0    0  0.38734352335E+03  0.92377518051E+03  0.96904265619E+03  0.13993080812E+04  0.12499538952E+03 0.  0.
          2    1    1    2  501    0 -0.22115762948E+03 -0.10786892205E+04 -0.50175501883E+03  0.12100575319E+04  0.00000000000E+00 0. -1.
          1    1    1    2  502    0 -0.16618589388E+03  0.15491404004E+03  0.41152463187E+03  0.47007300897E+03  0.00000000000E+00 0. -1.
         22    1    3    3    0    0  0.14328835002E+03  0.50321825939E+03  0.50373300948E+03  0.72629684887E+03  0.00000000000E+00 0.  1.
         22    1    3    3    0    0  0.24405517333E+03  0.42055692112E+03  0.46530964671E+03  0.67301123234E+03  0.00000000000E+00 0.  1.
</event>
<event>
 7    1  0.8792454E-005  0.2074000E+03  0.7818608E-02  0.1315711E+00
          2   -1    0    0  502    0  0.00000000000E+00  0.00000000000E+00  0.20144403568E+04  0.20144403568E+04  0.00000000000E+00 0. -1.
          1   -1    0    0  501    0 -0.00000000000E+00 -0.00000000000E+00 -0.10058517320E+04  0.10058517320E+04  0.00000000000E+00 0. -1.
         25    2    1    2    0    0 -0.19467341785E+03  0.16711602292E+02  0.62165422234E+03  0.66351946321E+03  0.12500835425E+03 0.  0.
          2    1    1    2  501    0 -0.17666785516E+02 -0.29922803083E+02 -0.97635967582E+03  0.97697784316E+03  0.00000000000E+00 0. -1.
          1    1    1    2  502    0  0.21234020337E+03  0.13211200791E+02  0.13632940783E+04  0.13797947825E+04  0.00000000000E+00 0. -1.
         22    1    3    3    0    0 -0.17739834967E+03  0.58766874398E+01  0.36308882491E+03  0.40415121513E+03  0.00000000000E+00 0.  1.
         22    1    3    3    0    0 -0.17275068185E+02  0.10834914852E+02  0.25856539744E+03  0.25936824808E+03  0.00000000000E+00 0.  1.
</event>
<event>
 7    1  0.8792454E-005  0.6135829E+02  0.7818608E-02  0.1463351E+00
          2   -1    0    0  502    0  0.00000000000E+00  0.00000000000E+00  0.20038100440E+04  0.20038100440E+04  0.00000000000E+00 0. -1.
          1   -1    0    0  501    0 -0.00000000000E+00 -0.00000000000E+00 -0.32167586885E+02  0.32167586885E+02  0.00000000000E+00 0. -1.
         25    2    1    2    0    0  0.34755018074E+02 -0.87847649966E+02  0.47819082000E+03  0.50320666597E+03  0.12500146981E+03 0.  0.
          2    1    1    2  501    0 -0.19219813083E+02  0.30097094333E+02 -0.23374254597E+01  0.35786867145E+02  0.00000000000E+00 0. -1.
          1    1    1    2  502    0 -0.15535204990E+02  0.57750555632E+02  0.14957890626E+04  0.14969840978E+04  0.00000000000E+00 0. -1.
         22    1    3    3    0    0  0.35508624917E+02  0.25031911372E+02  0.11812131685E+03  0.12585747703E+03  0.00000000000E+00 0. -1.
         22    1    3    3    0    0 -0.75360684319E+00 -0.11287956134E+03  0.36006950315E+03  0.37734918894E+03  0.00000000000E+00 0. -1.
</event>
<event>
 7    1  0.8792454E-005  0.3404103E+03  0.7818608E-02  0.1128078E+00
          2   -1    0    0  502    0  0.00000000000E+00  0.00000000000E+00  0.11561986660E+04  0.11561986660E+04  0.00000000000E+00 0. -1.
          1   -1    0    0  501    0 -0.00000000000E+00 -0.00000000000E+00 -0.75003521706E+03  0.75003521706E+03  0.00000000000E+00 0. -1.
         25    2    1    2    0    0  0.19407601644E+03  0.19534718684E+03  0.63887535934E+03  0.70683095531E+03  0.12498900376E+03 0.  0.
          2    1    1    2  501    0 -0.32550924943E+03 -0.11767695244E+03 -0.66022205796E+03  0.74545107312E+03  0.00000000000E+00 0. -1.
          1    1    1    2  502    0  0.13143323299E+03 -0.77670234398E+02  0.42751014758E+03  0.45395185464E+03  0.00000000000E+00 0. -1.
         22    1    3    3    0    0  0.46614310016E+02  0.49255175513E+02  0.31446841443E+03  0.32169760628E+03  0.00000000000E+00 0.  1.
         22    1    3    3    0    0  0.14746170643E+03  0.14609201133E+03  0.32440694491E+03  0.38513334904E+03  0.00000000000E+00 0.  1.
</event>
<event>
 7    1  0.8792454E-005  0.9862907E+02  0.7818608E-02  0.1314237E+00
          2   -1    0    0  502    0  0.00000000000E+00  0.00000000000E+00  0.57038135575E+02  0.57038135575E+02  0.00000000000E+00 0. -1.
          1   -1    0    0  501    0 -0.00000000000E+00 -0.00000000000E+00 -0.10379978685E+04  0.10379978685E+04  0.00000000000E+00 0. -1.
         25    2    1    2    0    0  0.16461484833E+03 -0.18907983369E+02 -0.58912458357E+03  0.62461840263E+03  0.12499925526E+03 0.  0.
          2    1    1    2  501    0 -0.72651586218E+02  0.14308908043E+02 -0.36790217980E+03  0.37527991117E+03  0.00000000000E+00 0. -1.
          1    1    1    2  502    0 -0.91963262113E+02  0.45990753260E+01 -0.23932969516E+02  0.95137690229E+02  0.00000000000E+00 0. -1.
         22    1    3    3    0    0 -0.20247242342E+02 -0.73676377814E+01 -0.79902212952E+02  0.82756247761E+02  0.00000000000E+00 0.  1.
         22    1    3    3    0    0  0.18486209067E+03 -0.11540345588E+02 -0.50922237062E+03  0.54186215487E+03  0.00000000000E+00 0.  1.
</event>
<event>
 7    1  0.8792454E-005  0.6874643E+02  0.7818608E-02  0.1523064E+00
          2   -1    0    0  502    0  0.00000000000E+00  0.00000000000E+00  0.90975163669E+03  0.90975163669E+03  0.00000000000E+00 0. -1.
          1   -1    0    0  501    0 -0.00000000000E+00 -0.00000000000E+00 -0.63802792694E+02  0.63802792694E+02  0.00000000000E+00 0. -1.
         25    2    1    2    0    0  0.37837498294E+01  0.76925253443E+02  0.46966283354E+03  0.49207698872E+03  0.12499909697E+03 0.  0.
          2    1    1    2  501    0 -0.21218994469E+02 -0.65110608038E+02 -0.29915704739E+02  0.74730090294E+02  0.00000000000E+00 0. -1.
          1    1    1    2  502    0  0.17435244639E+02 -0.11814645406E+02  0.40620171520E+03  0.40674735037E+03  0.00000000000E+00 0. -1.
         22    1    3    3    0    0 -0.68127638626E+01 -0.32612883185E+02  0.16023059372E+03  0.16365774368E+03  0.00000000000E+00 0. -1.
         22    1    3    3    0    0  0.10596513692E+02  0.10953813663E+03  0.30943223982E+03  0.32841924505E+03  0.00000000000E+00 0. -1.
</event>
<event>
 7    1  0.8792454E-005  0.5035838E+03  0.7818608E-02  0.1112675E+00
          2   -1    0    0  502    0  0.00000000000E+00  0.00000000000E+00  0.24674003641E+04  0.24674003641E+04  0.00000000000E+00 0. -1.
          1   -1    0    0  501    0 -0.00000000000E+00 -0.00000000000E+00 -0.18654352071E+03  0.18654352071E+03  0.00000000000E+00 0. -1.
         25    2    1    2    0    0 -0.18144807851E+03 -0.55530900443E+03  0.16158559229E+04  0.17227603012E+04  0.12498478442E+03 0.  0.
          2    1    1    2  501    0  0.10347690071E+03  0.45747453420E+03  0.65508891481E+03  0.80568722513E+03  0.00000000000E+00 0. -1.
          1    1    1    2  502    0  0.77971177798E+02  0.97834470230E+02  0.99120056981E+01  0.12549635847E+03  0.00000000000E+00 0. -1.
         22    1    3    3    0    0 -0.92349578877E+02 -0.12544769492E+03  0.35525630775E+03  0.38790799563E+03  0.00000000000E+00 0.  1.
         22    1    3    3    0    0 -0.89098499629E+02 -0.42986130951E+03  0.12605996151E+04  0.13348523056E+04  0.00000000000E+00 0.  1.
</event>
<event>
 7    1  0.8792454E-005  0.1101275E+03  0.7818608E-02  0.1406513E+00
          2   -1    0    0  502    0  0.00000000000E+00  0.00000000000E+00  0.35623164356E+02  0.35623164356E+02  0.00000000000E+00 0. -1.
          1   -1    0    0  501    0 -0.00000000000E+00 -0.00000000000E+00 -0.10702520140E+04  0.10702520140E+04  0.00000000000E+00 0. -1.
         25    2    1    2    0    0  0.74909556071E+02 -0.98837223925E+02 -0.24181895909E+03  0.29913718986E+03  0.12500564370E+03 0.  0.
          2    1    1    2  501    0 -0.83358020809E+02  0.69505097375E+02 -0.71437822072E+03  0.72257578180E+03  0.00000000000E+00 0. -1.
          1    1    1    2  502    0  0.84484647381E+01  0.29332126550E+02 -0.78431669790E+02  0.84162206663E+02  0.00000000000E+00 0. -1.
         22    1    3    3    0    0 -0.51770301644E-01 -0.10103464162E+03 -0.13495985527E+03  0.16858874228E+03  0.00000000000E+00 0. -1.
         22    1    3    3    0    0  0.74961326373E+02  0.21974176981E+01 -0.10685910382E+03  0.13054844758E+03  0.00000000000E+00 0. -1.
</event>
<event>
 7    1  0.8792454E-005  0.2302566E+03  0.7818608E-02  0.1235938E+00
          2   -1    0    0  502    0  0.00000000000E+00  0.00000000000E+00  0.13897895657E+03  0.13897895657E+03  0.00000000000E+00 0. -1.
          1   -1    0    0  501    0 -0.00000000000E+00 -0.00000000000E+00 -0.14885764842E+04  0.14885764842E+04  0.00000000000E+00 0. -1.
         25    2    1    2    0    0 -0.16031743017E+03 -0.17545232603E+03 -0.67675012513E+03  0.72808049476E+03  0.12500111145E+03 0.  0.
          2    1    1    2  501    0  0.19615406536E+03  0.11853584826E+03 -0.75746736880E+03  0.79138105832E+03  0.00000000000E+00 0. -1.
          1    1    1    2  502    0 -0.35836635199E+02  0.56916477765E+02  0.84619966283E+02  0.10809388770E+03  0.00000000000E+00 0. -1.
         22    1    3    3    0    0 -0.96041972428E+02 -0.24870133905E+02 -0.18699639434E+03  0.21168428266E+03  0.00000000000E+00 0. -1.
         22    1    3    3    0    0 -0.64275457738E+02 -0.15058219212E+03 -0.48975373079E+03  0.51639621210E+03  0.00000000000E+00 0. -1.
</event>
<event>
 7    1  0.8792454E-005  0.1429223E+03  0.7818608E-02  0.1275282E+00
          2   -1    0    0  502    0  0.00000000000E+00  0.00000000000E+00  0.77360132024E+03  0.77360132024E+03  0.00000000000E+00 0. -1.
          1   -1    0    0  501    0 -0.00000000000E+00 -0.00000000000E+00 -0.10000530392E+04  0.10000530392E+04  0.00000000000E+00 0. -1.
         25    2    1    2    0    0 -0.15680864465E+03  0.46208558159E+02 -0.43204305985E+01  0.20583519533E+03  0.12500111853E+03 0.  0.
          2    1    1    2  501    0  0.16473126732E+02 -0.71527269813E+02 -0.88588471702E+03  0.88892026981E+03  0.00000000000E+00 0. -1.
          1    1    1    2  502    0  0.14033551791E+03  0.25318711654E+02  0.66375342861E+03  0.67889889434E+03  0.00000000000E+00 0. -1.
         22    1    3    3    0    0 -0.12049118004E+03  0.32266959320E+02 -0.59596411270E+02  0.13824258884E+03  0.00000000000E+00 0.  1.
         22    1    3    3    0    0 -0.36317464603E+02  0.13941598839E+02  0.55275980671E+02  0.67592606493E+02  0.00000000000E+00 0.  1.
</event>
<event>
 7    1  0.8792454E-005  0.1956866E+03  0.7818608E-02  0.1215246E+00
          2   -1    0    0  502    0  0.00000000000E+00  0.00000000000E+00  0.75602487099E+03  0.75602487099E+03  0.00000000000E+00 0. -1.
          1   -1    0    0  501    0 -0.00000000000E+00 -0.00000000000E+00 -0.10197205982E+03  0.10197205982E+03  0.00000000000E+00 0. -1.
         25    2    1    2    0    0 -0.87962405401E+02 -0.20952230369E+03  0.24652340619E+03  0.35781986118E+03  0.12499713097E+03 0.  0.
          2    1    1    2  501    0  0.13237340197E+03  0.12199992062E+03  0.19111839863E+03  0.26255083408E+03  0.00000000000E+00 0. -1.
          1    1    1    2  502    0 -0.44410996569E+02  0.87522383062E+02  0.21641100635E+03  0.23762623555E+03  0.00000000000E+00 0. -1.
         22    1    3    3    0    0 -0.48028727903E+02 -0.65069870689E+02  0.15354993643E+02  0.82320244201E+02  0.00000000000E+00 0.  1.
         22    1    3    3    0    0 -0.39933677498E+02 -0.14445243300E+03  0.23116841254E+03  0.27549961698E+03  0.00000000000E+00 0.  1.
</event>
<event>
 7    1  0.8792454E-005  0.2094390E+03  0.7818608E-02  0.1211171E+00
          2   -1    0    0  502    0  0.00000000000E+00  0.00000000000E+00  0.61208305733E+03  0.61208305733E+03  0.00000000000E+00 0. -1.
          1   -1    0    0  501    0 -0.00000000000E+00 -0.00000000000E+00 -0.24420151318E+03  0.24420151318E+03  0.00000000000E+00 0. -1.
         25    2    1    2    0    0 -0.26937550118E+03  0.77577176297E+02 -0.16728306948E+02  0.30738146909E+03  0.12498860895E+03 0.  0.
          2    1    1    2  501    0  0.69702871624E+02 -0.65656597532E+02 -0.19751236669E+02  0.97772135408E+02  0.00000000000E+00 0. -1.
          1    1    1    2  502    0  0.19967262956E+03 -0.11920578765E+02  0.40436108777E+03  0.45113096601E+03  0.00000000000E+00 0. -1.
         22    1    3    3    0    0 -0.17991531195E+03  0.15602487005E+02  0.39535837363E+02  0.18486762699E+03  0.00000000000E+00 0.  1.
         22    1    3    3    0    0 -0.89460189236E+02  0.61974689292E+02 -0.56264144310E+02  0.12251384210E+03  0.00000000000E+00 0.  1.
</event>
<event>
 7    1  0.8792454E-005  0.2429344E+03  0.7818608E-02  0.1234249E+00
          2   -1    0    0  502    0  0.00000000000E+00  0.00000000000E+00  0.94802200929E+03  0.94802200929E+03  0.00000000000E+00 0. -1.
          1   -1    0    0  501    0 -0.00000000000E+00 -0.00000000000E+00 -0.55878480112E+03  0.55878480112E+03  0.00000000000E+00 0. -1.
         25    2    1    2    0    0  0.14913127814E+03  0.24991975801E+03  0.33285532863E+03  0.45947599031E+03  0.12500196925E+03 0.  0.
          2    1    1    2  501    0 -0.15213905989E+03 -0.18512905922E+03 -0.46437276108E+03  0.52255250774E+03  0.00000000000E+00 0. -1.
          1    1    1    2  502    0  0.30077817501E+01 -0.64790698784E+02  0.52075464062E+03  0.52477831237E+03  0.00000000000E+00 0. -1.
         22    1    3    3    0    0  0.13926827238E+03  0.11361545029E+03  0.17837050767E+03  0.25321958898E+03  0.00000000000E+00 0. -1.
         22    1    3    3    0    0  0.98630057613E+01  0.13630430772E+03  0.15448482096E+03  0.20625640134E+03  0.00000000000E+00 0. -1.
</event>
<event>
 7    1  0.8792454E-005  0.9029735E+03  0.7818608E-02  0.1013630E+00
          2   -1    0    0  502    0  0.00000000000E+00  0.00000000000E+00  0.27702292680E+04  0.27702292680E+04  0.00000000000E+00 0. -1.
          1   -1    0    0  501    0 -0.00000000000E+00 -0.00000000000E+00 -0.19926670387E+04  0.19926670387E+04  0.00000000000E+00 0. -1.
         25    2    1    2    0    0  0.91168360043E+03  0.50187794583E+03 -0.21071518411E+02  0.10483871539E+04  0.12499262278E+03 0.  0.
          2    1    1    2  501    0 -0.26018153504E+03  0.96484081173E+02 -0.13566598744E+04  0.13847489390E+04  0.00000000000E+00 0. -1.
          1    1    1    2  502    0 -0.65150206539E+03 -0.59836202701E+03  0.21552936221E+04  0.23297602138E+04  0.00000000000E+00 0. -1.
         22    1    3    3    0    0  0.84272388888E+03  0.49846297705E+03 -0.21478891673E+02  0.97934173564E+03  0.00000000000E+00 0.  1.
         22    1    3    3    0    0  0.68959711549E+02  0.34149687874E+01  0.40737326229E+00  0.69045418253E+02  0.00000000000E+00 0.  1.
</event>
<event>
 7    1  0.8792454E-005  0.3053915E+03  0.7818608E-02  0.1195613E+00
          2   -1    0    0  502    0  0.00000000000E+00  0.00000000000E+00  0.13059342761E+03  0.13059342761E+03  0.00000000000E+00 0. -1.
          1   -1    0    0  501    0 -0.00000000000E+00 -0.00000000000E+00 -0.19306981949E+04  0.19306981949E+04  0.00000000000E+00 0. -1.
         25    2    1    2    0    0  0.30421900796E+03  0.15016928075E+02 -0.13109819912E+04  0.13516910109E+04  0.12498037834E+03 0.  0.
          2    1    1    2  501    0 -0.30733237076E+03  0.62603090419E+02 -0.53443271572E+03  0.61966979971E+03  0.00000000000E+00 0. -1.
          1    1    1    2  502    0  0.31133627969E+01 -0.77620018493E+02  0.45309939579E+02  0.89930811869E+02  0.00000000000E+00 0. -1.
         22    1    3    3    0    0  0.22325615077E+03  0.50597034334E+02 -0.10878048389E+04  0.11116306654E+04  0.00000000000E+00 0.  1.
         22    1    3    3    0    0  0.80962857190E+02 -0.35580106260E+02 -0.22317715229E+03  0.24006034556E+03  0.00000000000E+00 0.  1.
</event>
<event>
 7    1  0.8792454E-005  0.3828140E+03  0.7818608E-02  0.1132044E+00
          2   -1    0    0  502    0  0.00000000000E+00  0.00000000000E+00  0.15608195914E+04  0.15608195914E+04  0.00000000000E+00 0. -1.
          1   -1    0    0  501    0 -0.00000000000E+00 -0.00000000000E+00 -0.16798850348E+03  0.16798850348E+03  0.00000000000E+00 0. -1.
         25    2    1    2    0    0 -0.17306190743E+03  0.30661517313E+03  0.57676826447E+03  0.68720557318E+03  0.12500632271E+03 0.  0.
          2    1    1    2  501    0 -0.12693276550E+03  0.24648220000E+02  0.43652792076E+03  0.45527583651E+03  0.00000000000E+00 0. -1.
          1    1    1    2  502    0  0.29999467293E+03 -0.33126339313E+03  0.37953490274E+03  0.58632668523E+03  0.00000000000E+00 0. -1.
         22    1    3    3    0    0 -0.30030895932E+02  0.26564336765E+02  0.16095543549E+03  0.16587396092E+03  0.00000000000E+00 0. -1.
         22    1    3    3    0    0 -0.14303101150E+03  0.28005083637E+03  0.41581282898E+03  0.52133161226E+03  0.00000000000E+00 0. -1.
</event>
<event>
 7    1  0.8792454E-005  0.9282496E+02  0.7818608E-02  0.1335536E+00
          2   -1    0    0  502    0  0.00000000000E+00  0.00000000000E+00  0.11152927096E+03  0.11152927096E+03  0.00000000000E+00 0. -1.
          1   -1    0    0  501    0 -0.00000000000E+00 -0.00000000000E+00 -0.51338170897E+03  0.51338170897E+03  0.00000000000E+00 0. -1.
         25    2    1    2    0    0  0.12336259598E+03 -0.60455652642E+02 -0.34681603104E+03  0.39341588553E+03  0.12498593353E+03 0.  0.
          2    1    1    2  501    0 -0.33034855589E+02  0.56138826813E+02 -0.10842051780E+03  0.12648271913E+03  0.00000000000E+00 0. -1.
          1    1    1    2  502    0 -0.90327740391E+02  0.43168258288E+01  0.53384110831E+02  0.10501237526E+03  0.00000000000E+00 0. -1.
         22    1    3    3    0    0  0.10251693573E+03 -0.58243212480E+02 -0.35249981632E+03  0.37169626635E+03  0.00000000000E+00 0.  1.
         22    1    3    3    0    0  0.20845660246E+02 -0.22124401626E+01  0.56837852761E+01  0.21719619187E+02  0.00000000000E+00 0.  1.
</event>
<event>
 7    1  0.8792454E-005  0.1138624E+03  0.7818608E-02  0.1338802E+00
          2   -1    0    0  502    0  0.00000000000E+00  0.00000000000E+00  0.12042209251E+04  0.12042209251E+04  0.00000000000E+00 0. -1.
          1   -1    0    0  501    0 -0.00000000000E+00 -0.00000000000E+00 -0.31512525210E+02  0.31512525210E+02  0.00000000000E+00 0. -1.
         25    2    1    2    0    0  0.44122985551E+02  0.93844096969E+02  0.78506410124E+03  0.80168951362E+03  0.12500752295E+03 0.  0.
          2    1    1    2  501    0 -0.32474359210E+02  0.40118290028E+02  0.55907473003E+02  0.76090122476E+02  0.00000000000E+00 0. -1.
          1    1    1    2  502    0 -0.11648626342E+02 -0.13396238700E+03  0.33173682569E+03  0.35795381426E+03  0.00000000000E+00 0. -1.
         22    1    3    3    0    0  0.80734123748E+02  0.32123363371E+02  0.51371254335E+03  0.52100910396E+03  0.00000000000E+00 0.  1.
         22    1    3    3    0    0 -0.36611138196E+02  0.61720733598E+02  0.27135155789E+03  0.28068040966E+03  0.00000000000E+00 0.  1.
</event>
<event>
 7    1  0.8792455E-005  0.1202335E+03  0.7818608E-02  0.1328949E+00
          2   -1    0    0  502    0  0.00000000000E+00  0.00000000000E+00  0.76944037384E+03  0.76944037384E+03  0.00000000000E+00 0. -1.
          1   -1    0    0  501    0 -0.00000000000E+00 -0.00000000000E+00 -0.15157606643E+04  0.15157606643E+04  0.00000000000E+00 0. -1.
         25    2    1    2    0    0 -0.14725861492E+03 -0.54621816920E+02 -0.81798468193E+03  0.84225730643E+03  0.12501914980E+03 0.  0.
          2    1    1    2  501    0  0.10567095727E+03  0.21320241950E+02 -0.68045425940E+03  0.68894042054E+03  0.00000000000E+00 0. -1.
          1    1    1    2  502    0  0.41587657650E+02  0.33301574970E+02  0.75211865090E+03  0.75400331114E+03  0.00000000000E+00 0. -1.
         22    1    3    3    0    0 -0.11455298865E+03 -0.87240261470E+02 -0.48003426294E+03  0.50116478729E+03  0.00000000000E+00 0.  1.
         22    1    3    3    0    0 -0.32705626264E+02  0.32618444550E+02 -0.33795041899E+03  0.34109251914E+03  0.00000000000E+00 0.  1.
</event>
<event>
 7    1  0.8792454E-005  0.1122110E+04  0.7818608E-02  0.1002136E+00
          2   -1    0    0  502    0  0.00000000000E+00  0.00000000000E+00  0.26277100493E+04  0.26277100493E+04  0.00000000000E+00 0. -1.
          1   -1    0    0  501    0 -0.00000000000E+00 -0.00000000000E+00 -0.24123350875E+04  0.24123350875E+04  0.00000000000E+00 0. -1.
         25    2    1    2    0    0  0.29096359803E+03  0.11945808477E+04 -0.14558435521E+04  0.19096570286E+04  0.12500520695E+03 0.  0.
          2    1    1    2  501    0 -0.25474149340E+03 -0.79557461225E+02 -0.56859933877E+03  0.62811450083E+03  0.00000000000E+00 0. -1.
          1    1    1    2  502    0 -0.36222104637E+02 -0.11150233865E+04  0.22398178526E+04  0.25022736074E+04  0.00000000000E+00 0. -1.
         22    1    3    3    0    0  0.22407744424E+03  0.68958656361E+03 -0.89890471673E+03  0.11548896136E+04  0.00000000000E+00 0.  1.
         22    1    3    3    0    0  0.66886153795E+02  0.50499428410E+03 -0.55693883534E+03  0.75476741507E+03  0.00000000000E+00 0.  1.
</event>
<event>
 7    1  0.8792454E-005  0.4033871E+03  0.7818608E-02  0.1237871E+00
          2   -1    0    0  502    0  0.00000000000E+00  0.00000000000E+00  0.43904408110E+04  0.43904408110E+04  0.00000000000E+00 0. -1.
          1   -1    0    0  501    0 -0.00000000000E+00 -0.00000000000E+00 -0.14154724752E+04  0.14154724752E+04  0.00000000000E+00 0. -1.
         25    2    1    2    0    0 -0.45409826172E+02  0.36931642448E+03 -0.53331538887E+03  0.66219867364E+03  0.12500042264E+03 0.  0.
          2    1    1    2  501    0 -0.24647712823E+02  0.28449575563E+02 -0.80784918915E+03  0.80872566456E+03  0.00000000000E+00 0. -1.
          1    1    1    2  502    0  0.70057538995E+02 -0.39776600004E+03  0.43161329138E+04  0.43349889480E+04  0.00000000000E+00 0. -1.
         22    1    3    3    0    0  0.34057017087E+02  0.79153213932E+02 -0.76566425395E+02  0.11527154543E+03  0.00000000000E+00 0.  1.
         22    1    3    3    0    0 -0.79466843259E+02  0.29016321055E+03 -0.45674896348E+03  0.54692712821E+03  0.00000000000E+00 0.  1.
</event>
<event>
 7    1  0.8792454E-005  0.1446210E+03  0.7818608E-02  0.1221974E+00
          2   -1    0    0  502    0  0.00000000000E+00  0.00000000000E+00  0.10978556632E+03  0.10978556632E+03  0.00000000000E+00 0. -1.
          1   -1    0    0  501    0 -0.00000000000E+00 -0.00000000000E+00 -0.55257573031E+03  0.55257573031E+03  0.00000000000E+00 0. -1.
         25    2    1    2    0    0  0.11754581183E+02  0.10721495892E+03 -0.27144922862E+03  0.31771498993E+03  0.12499965404E+03 0.  0.
          2    1    1    2  501    0  0.12365876974E+03  0.39939529753E+01 -0.75037816144E+02  0.14470009277E+03  0.00000000000E+00 0. -1.
          1    1    1    2  502    0 -0.13541335093E+03 -0.11120891190E+03 -0.96303119225E+02  0.19994621394E+03  0.00000000000E+00 0. -1.
         22    1    3    3    0    0 -0.34695972650E+02  0.13725442362E+02 -0.16287921740E+03  0.16709828769E+03  0.00000000000E+00 0.  1.
         22    1    3    3    0    0  0.46450553833E+02  0.93489516560E+02 -0.10857001122E+03  0.15061670224E+03  0.00000000000E+00 0.  1.
</event>
<event>
 7    1  0.8792454E-005  0.1033424E+03  0.7818608E-02  0.1303339E+00
          2   -1    0    0  502    0  0.00000000000E+00  0.00000000000E+00  0.12270762776E+04  0.12270762776E+04  0.00000000000E+00 0. -1.
          1   -1    0    0  501    0 -0.00000000000E+00 -0.00000000000E+00 -0.77217415088E+02  0.77217415088E+02  0.00000000000E+00 0. -1.
         25    2    1    2    0    0  0.12012777226E+03 -0.12078224301E+03  0.90808353273E+02  0.22997975717E+03  0.12500199914E+03 0.  0.
          2    1    1    2  501    0 -0.69193482593E+02  0.36070111763E+02  0.57532901797E+03  0.58059647770E+03  0.00000000000E+00 0. -1.
          1    1    1    2  502    0 -0.50934289670E+02  0.84712131243E+02  0.48372149126E+03  0.49371745782E+03  0.00000000000E+00 0. -1.
         22    1    3    3    0    0  0.11491495698E+03 -0.27920652266E+02  0.49021286228E+02  0.12801600160E+03  0.00000000000E+00 0. -1.
         22    1    3    3    0    0  0.52128152795E+01 -0.92861590740E+02  0.41787067045E+02  0.10196375557E+03  0.00000000000E+00 0. -1.
</event>
<event>
 7    1  0.8792454E-005  0.1604636E+03  0.7818608E-02  0.1237950E+00
          2   -1    0    0  502    0  0.00000000000E+00  0.00000000000E+00  0.30422826665E+03  0.30422826665E+03  0.00000000000E+00 0. -1.
          1   -1    0    0  501    0 -0.00000000000E+00 -0.00000000000E+00 -0.44102151148E+03  0.44102151148E+03  0.00000000000E+00 0. -1.
         25    2    1    2    0    0 -0.14236497049E+03 -0.93611049706E+02  0.16406310990E+03  0.26753776154E+03  0.12501574448E+03 0.  0.
          2    1    1    2  501    0 -0.19155845892E+02  0.92590312687E+02 -0.30171753564E+03  0.31618567923E+03  0.00000000000E+00 0. -1.
          1    1    1    2  502    0  0.16152081638E+03  0.10207370188E+01  0.86118091112E+00  0.16152633736E+03  0.00000000000E+00 0. -1.
         22    1    3    3    0    0 -0.15758996575E+03 -0.55419055674E+02  0.14870100028E+03  0.22364672258E+03  0.00000000000E+00 0.  1.
         22    1    3    3    0    0  0.15224995258E+02 -0.38191994032E+02  0.15362109621E+02  0.43891038957E+02  0.00000000000E+00 0.  1.
</event>
<event>
 7    1  0.8792454E-005  0.3141405E+03  0.7818608E-02  0.1117238E+00
          2   -1    0    0  502    0  0.00000000000E+00  0.00000000000E+00  0.42813828329E+03  0.42813828329E+03  0.00000000000E+00 0. -1.
          1   -1    0    0  501    0 -0.00000000000E+00 -0.00000000000E+00 -0.17747074113E+04  0.17747074113E+04  0.00000000000E+00 0. -1.
         25    2    1    2    0    0 -0.20156221445E+02  0.33109720309E+03 -0.19347721408E+03  0.40384480211E+03  0.12500224264E+03 0.  0.
          2    1    1    2  501    0 -0.16089963151E+03 -0.27574776810E+03 -0.14290847751E+04  0.14643117214E+04  0.00000000000E+00 0. -1.
          1    1    1    2  502    0  0.18105585296E+03 -0.55349434985E+02  0.27599286115E+03  0.33468917110E+03  0.00000000000E+00 0. -1.
         22    1    3    3    0    0 -0.23446265059E+02  0.15789838686E+02 -0.49945802777E+02  0.57390152169E+02  0.00000000000E+00 0.  1.
         22    1    3    3    0    0  0.32900436138E+01  0.31530736440E+03 -0.14353141131E+03  0.34645464994E+03  0.00000000000E+00 0.  1.
</event>
<event>
 7    1  0.8792454E-005  0.5908730E+03  0.7818608E-02  0.1004283E+00
          2   -1    0    0  502    0  0.00000000000E+00  0.00000000000E+00  0.12525902145E+04  0.12525902145E+04  0.00000000000E+00 0. -1.
          1   -1    0    0  501    0 -0.00000000000E+00 -0.00000000000E+00 -0.22142798660E+04  0.22142798660E+04  0.00000000000E+00 0. -1.
         25    2    1    2    0    0  0.42607212010E+03 -0.38685898564E+03  0.91746290926E+03  0.10902117318E+04  0.12500441624E+03 0.  0.
          2    1    1    2  501    0 -0.17600999227E+03 -0.45736987163E+03 -0.10866350562E+04  0.11920329115E+04  0.00000000000E+00 0. -1.
          1    1    1    2  502    0 -0.25006212783E+03  0.84422885727E+03 -0.79251750464E+03  0.11846254372E+04  0.00000000000E+00 0. -1.
         22    1    3    3    0    0  0.30185848428E+02 -0.77295660616E+02  0.92823618229E+02  0.12450714315E+03  0.00000000000E+00 0.  1.
         22    1    3    3    0    0  0.39588627167E+03 -0.30956332502E+03  0.82463929103E+03  0.96570458868E+03  0.00000000000E+00 0.  1.
</event>
<event>
 7    1  0.8792454E-005  0.2433546E+03  0.7818608E-02  0.1137029E+00
          2   -1    0    0  502    0  0.00000000000E+00  0.00000000000E+00  0.92365252393E+03  0.92365252393E+03  0.00000000000E+00 0. -1.
          1   -1    0    0  501    0 -0.00000000000E+00 -0.00000000000E+00 -0.51708329980E+03  0.51708329980E+03  0.00000000000E+00 0. -1.
         25    2    1    2    0    0 -0.16170877131E+03  0.33448497786E+03  0.20132159502E+03  0.44066435671E+03  0.12499905407E+03 0.  0.
          2    1    1    2  501    0 -0.41324620146E+00 -0.23270790644E+03 -0.34575074149E+03  0.41676937955E+03  0.00000000000E+00 0. -1.
          1    1    1    2  502    0  0.16212201751E+03 -0.10177707142E+03  0.55099837061E+03  0.58330208747E+03  0.00000000000E+00 0. -1.
         22    1    3    3    0    0 -0.17048943798E+03  0.33469078899E+03  0.20824821504E+03  0.42947862784E+03  0.00000000000E+00 0.  1.
         22    1    3    3    0    0  0.87806666704E+01 -0.20581113580E+00 -0.69266200233E+01  0.11185728870E+02  0.00000000000E+00 0.  1.
</event>
<event>
 7    1  0.8792454E-005  0.5729656E+03  0.7818608E-02  0.1092680E+00
          2   -1    0    0  502    0  0.00000000000E+00  0.00000000000E+00  0.24390796425E+04  0.24390796425E+04  0.00000000000E+00 0. -1.
          1   -1    0    0  501    0 -0.00000000000E+00 -0.00000000000E+00 -0.10878299352E+04  0.10878299352E+04  0.00000000000E+00 0. -1.
         25    2    1    2    0    0  0.54069399869E+03  0.38813657213E+03  0.69545552310E+03  0.97071324085E+03  0.12500324998E+03 0.  0.
          2    1    1    2  501    0 -0.14084051187E+03 -0.20598655808E+02 -0.89852160580E+03  0.90972601947E+03  0.00000000000E+00 0. -1.
          1    1    1    2  502    0 -0.39985348681E+03 -0.36753791632E+03  0.15543157900E+04  0.16464703174E+04  0.00000000000E+00 0. -1.
         22    1    3    3    0    0  0.38363504083E+03  0.33953953857E+03  0.54226679911E+03  0.74600015028E+03  0.00000000000E+00 0. -1.
         22    1    3    3    0    0  0.15705895786E+03  0.48597033565E+02  0.15318872398E+03  0.22471309056E+03  0.00000000000E+00 0. -1.
</event>
<event>
 7    1  0.8792454E-005  0.1287081E+03  0.7818608E-02  0.1348764E+00
          2   -1    0    0  502    0  0.00000000000E+00  0.00000000000E+00  0.33913461950E+03  0.33913461950E+03  0.00000000000E+00 0. -1.
          1   -1    0    0  501    0 -0.00000000000E+00 -0.00000000000E+00 -0.87626331366E+03  0.87626331366E+03  0.00000000000E+00 0. -1.
         25    2    1    2    0    0 -0.19998571206E+02  0.14335885004E+03 -0.55314387860E+03  0.58527183751E+03  0.12499308226E+03 0.  0.
          2    1    1    2  501    0  0.38630987822E+02 -0.16242925430E+02 -0.29273150944E+03  0.29571594896E+03  0.00000000000E+00 0. -1.
          1    1    1    2  502    0 -0.18632416616E+02 -0.12711592461E+03  0.30874669388E+03  0.33441014670E+03  0.00000000000E+00 0. -1.
         22    1    3    3    0    0  0.31219855975E+02 -0.71902185023E+01 -0.83470615912E+02  0.89407619194E+02  0.00000000000E+00 0.  1.
         22    1    3    3    0    0 -0.51218427181E+02  0.15054906854E+03 -0.46967326269E+03  0.49586421831E+03  0.00000000000E+00 0.  1.
</event>
<event>
 7    1  0.8792454E-005  0.1205939E+03  0.7818608E-02  0.1343252E+00
          2   -1    0    0  502    0  0.00000000000E+00  0.00000000000E+00  0.14695442361E+04  0.14695442361E+04  0.00000000000E+00 0. -1.
          1   -1    0    0  501    0 -0.00000000000E+00 -0.00000000000E+00 -0.27920608077E+03  0.27920608077E+03  0.00000000000E+00 0. -1.
         25    2    1    2    0    0  0.62988921695E+02  0.55952236170E+02 -0.83824036257E+02  0.17248083292E+03  0.12499964673E+03 0.  0.
          2    1    1    2  501    0  0.15485603808E+01  0.46867810420E+02 -0.14475890272E+03  0.15216481068E+03  0.00000000000E+00 0. -1.
          1    1    1    2  502    0 -0.64537482076E+02 -0.10282004659E+03  0.14189210943E+04  0.14241046733E+04  0.00000000000E+00 0. -1.
         22    1    3    3    0    0  0.93221539540E+02  0.50972482575E+02 -0.29757193773E+02  0.11033557901E+03  0.00000000000E+00 0. -1.
         22    1    3    3    0    0 -0.30232617845E+02  0.49797535946E+01 -0.54066842484E+02  0.62145253912E+02  0.00000000000E+00 0. -1.
</event>
<event>
 7    1  0.8792454E-005  0.8992211E+02  0.7818608E-02  0.1450514E+00
          2   -1    0    0  502    0  0.00000000000E+00  0.00000000000E+00  0.31784597454E+04  0.31784597454E+04  0.00000000000E+00 0. -1.
          1   -1    0    0  501    0 -0.00000000000E+00 -0.00000000000E+00 -0.88189929488E+01  0.88189929488E+01  0.00000000000E+00 0. -1.
         25    2    1    2    0    0 -0.98759137570E+02  0.10165169254E+02  0.17002316619E+04  0.17077091716E+04  0.12500485053E+03 0.  0.
          2    1    1    2  501    0  0.23632946528E+02  0.12551659064E+02  0.11617188116E+04  0.11620269608E+04  0.00000000000E+00 0. -1.
          1    1    1    2  502    0  0.75126191041E+02 -0.22716828318E+02  0.30769027893E+03  0.31754260599E+03  0.00000000000E+00 0. -1.
         22    1    3    3    0    0 -0.81231023559E+02 -0.45992252439E+02  0.77353755419E+03  0.77914960965E+03  0.00000000000E+00 0. -1.
         22    1    3    3    0    0 -0.17528114010E+02  0.56157421693E+02  0.92669410772E+03  0.92855956194E+03  0.00000000000E+00 0. -1.
</event>
<event>
 7    1  0.8792454E-005  0.1977361E+03  0.7818608E-02  0.1328696E+00
          2   -1    0    0  502    0  0.00000000000E+00  0.00000000000E+00  0.25229472201E+04  0.25229472201E+04  0.00000000000E+00 0. -1.
          1   -1    0    0  501    0 -0.00000000000E+00 -0.00000000000E+00 -0.20847279572E+03  0.20847279572E+03  0.00000000000E+00 0. -1.
         25    2    1    2    0    0 -0.15206422729E+03 -0.13377337991E+03  0.12567165229E+04  0.12790545366E+04  0.12500096900E+03 0.  0.
          2    1    1    2  501    0  0.27649535248E+02 -0.17019542762E+02 -0.18829329913E+03  0.19107204958E+03  0.00000000000E+00 0. -1.
          1    1    1    2  502    0  0.12441469204E+03  0.15079292267E+03  0.12460512006E+04  0.12612934297E+04  0.00000000000E+00 0. -1.
         22    1    3    3    0    0 -0.11992878433E+02 -0.91235464189E+01  0.47226148064E+03  0.47250182468E+03  0.00000000000E+00 0. -1.
         22    1    3    3    0    0 -0.14007134886E+03 -0.12464983349E+03  0.78445504227E+03  0.80655271191E+03  0.00000000000E+00 0. -1.
</event>
<event>
 7    1  0.8792454E-005  0.6443203E+03  0.7818608E-02  0.1196253E+00
          2   -1    0    0  502    0  0.00000000000E+00  0.00000000000E+00  0.20230876822E+04  0.20230876822E+04  0.00000000000E+00 0. -1.
          1   -1    0    0  501    0 -0.00000000000E+00 -0.00000000000E+00 -0.13476040586E+04  0.13476040586E+04  0.00000000000E+00 0. -1.
         25    2    1    2    0    0  0.63527936150E+03  0.56482657716E+02 -0.62886742687E+03  0.90436110109E+03  0.12499841123E+03 0.  0.
          2    1    1    2  501    0 -0.65306422967E+03 -0.24536967233E+02 -0.39695219843E+03  0.76463455237E+03  0.00000000000E+00 0. -1.
          1    1    1    2  502    0  0.17784868170E+02 -0.31945690483E+02  0.17013032489E+04  0.17016960873E+04  0.00000000000E+00 0. -1.
         22    1    3    3    0    0  0.34374125997E+03  0.86242389023E+02 -0.38321548942E+03  0.52196735032E+03  0.00000000000E+00 0.  1.
         22    1    3    3    0    0  0.29153810154E+03 -0.29759731307E+02 -0.24565193746E+03  0.38239375077E+03  0.00000000000E+00 0.  1.
</event>
<event>
 7    1  0.8792454E-005  0.2764380E+03  0.7818608E-02  0.1255376E+00
          2   -1    0    0  502    0  0.00000000000E+00  0.00000000000E+00  0.14545621814E+04  0.14545621814E+04  0.00000000000E+00 0. -1.
          1   -1    0    0  501    0 -0.00000000000E+00 -0.00000000000E+00 -0.23056774945E+03  0.23056774945E+03  0.00000000000E+00 0. -1.
         25    2    1    2    0    0  0.14470513135E+03  0.25629947252E+03  0.26078468972E+03  0.41262948707E+03  0.12500177823E+03 0.  0.
          2    1    1    2  501    0 -0.46039196480E+02 -0.17092834634E+01 -0.13406742644E+03  0.14176249185E+03  0.00000000000E+00 0. -1.
          1    1    1    2  502    0 -0.98665934869E+02 -0.25459018905E+03  0.10972771687E+04  0.11307379520E+04  0.00000000000E+00 0. -1.
         22    1    3    3    0    0 -0.12183585359E+01  0.81614517469E+02  0.26097069950E+02  0.85694054164E+02  0.00000000000E+00 0.  1.
         22    1    3    3    0    0  0.14592348988E+03  0.17468495505E+03  0.23468761977E+03  0.32693543291E+03  0.00000000000E+00 0.  1.
</event>
<event>
 7    1  0.8792454E-005  0.9291070E+02  0.7818608E-02  0.1476599E+00
          2   -1    0    0  502    0  0.00000000000E+00  0.00000000000E+00  0.24508290354E+03  0.24508290354E+03  0.00000000000E+00 0. -1.
          1   -1    0    0  501    0 -0.00000000000E+00 -0.00000000000E+00 -0.47819232749E+03  0.47819232749E+03  0.00000000000E+00 0. -1.
         25    2    1    2    0    0  0.73748659312E+02  0.81846386869E+02  0.60547500994E+02  0.17728505030E+03  0.12500517344E+03 0.  0.
          2    1    1    2  501    0 -0.53357121233E+02 -0.75197549878E+02 -0.41379970671E+03  0.42394793450E+03  0.00000000000E+00 0. -1.
          1    1    1    2  502    0 -0.20391538079E+02 -0.66488369909E+01  0.12014278176E+03  0.12204224624E+03  0.00000000000E+00 0. -1.
         22    1    3    3    0    0 -0.24323863229E+02 -0.14816858797E+02  0.15351156082E+02  0.32355024649E+02  0.00000000000E+00 0.  1.
         22    1    3    3    0    0  0.98072522541E+02  0.96663245666E+02  0.45196344911E+02  0.14493002565E+03  0.00000000000E+00 0.  1.
</event>
<event>
 7    1  0.8792454E-005  0.3514310E+03  0.7818608E-02  0.1065441E+00
          2   -1    0    0  502    0  0.00000000000E+00  0.00000000000E+00  0.10974547637E+04  0.10974547637E+04  0.00000000000E+00 0. -1.
          1   -1    0    0  501    0 -0.00000000000E+00 -0.00000000000E+00 -0.55426391108E+03  0.55426391108E+03  0.00000000000E+00 0. -1.
         25    2    1    2    0    0 -0.18123770771E+01 -0.21414567808E+03  0.14016967459E+02  0.24836176918E+03  0.12500174744E+03 0.  0.
          2    1    1    2  501    0  0.50796720408E+02  0.54570751637E+03 -0.21379419694E+03  0.58828985957E+03  0.00000000000E+00 0. -1.
          1    1    1    2  502    0 -0.48984343331E+02 -0.33156183829E+03  0.74296808215E+03  0.81506704607E+03  0.00000000000E+00 0. -1.
         22    1    3    3    0    0 -0.52266202780E+02 -0.38503588340E+02  0.90859565523E+01  0.65550262201E+02  0.00000000000E+00 0.  1.
         22    1    3    3    0    0  0.50453825703E+02 -0.17564208974E+03  0.49310109068E+01  0.18281150698E+03  0.00000000000E+00 0.  1.
</event>
<event>
 7    1  0.8792454E-005  0.3727434E+03  0.7818608E-02  0.1119682E+00
          2   -1    0    0  502    0  0.00000000000E+00  0.00000000000E+00  0.76876980827E+03  0.76876980827E+03  0.00000000000E+00 0. -1.
          1   -1    0    0  501    0 -0.00000000000E+00 -0.00000000000E+00 -0.74062392037E+03  0.74062392037E+03  0.00000000000E+00 0. -1.
         25    2    1    2    0    0  0.14485058867E+03  0.35946417858E+03  0.56992874177E+03  0.70045751188E+03  0.12500306606E+03 0.  0.
          2    1    1    2  501    0 -0.15357846136E+03 -0.18959776407E+02 -0.41934007801E+03  0.44698089214E+03  0.00000000000E+00 0. -1.
          1    1    1    2  502    0  0.87278726913E+01 -0.34050440218E+03 -0.12244277585E+03  0.36195532462E+03  0.00000000000E+00 0. -1.
         22    1    3    3    0    0  0.47280642682E+02  0.24138836599E+03  0.28108881453E+03  0.37351669851E+03  0.00000000000E+00 0. -1.
         22    1    3    3    0    0  0.97569945991E+02  0.11807581259E+03  0.28883992723E+03  0.32694081337E+03  0.00000000000E+00 0. -1.
</event>
<event>
 7    1  0.8792454E-005  0.1258965E+04  0.7818608E-02  0.1002183E+00
          2   -1    0    0  502    0  0.00000000000E+00  0.00000000000E+00  0.25514611201E+04  0.25514611201E+04  0.00000000000E+00 0. -1.
          1   -1    0    0  501    0 -0.00000000000E+00 -0.00000000000E+00 -0.79523271326E+03  0.79523271326E+03  0.00000000000E+00 0. -1.
         25    2    1    2    0    0  0.12492133478E+04 -0.85897868041E+02  0.11617199504E+04  0.17126383272E+04  0.12499745807E+03 0.  0.
          2    1    1    2  501    0  0.24940111380E+02  0.23637998823E+03  0.68108967850E+02  0.24725763789E+03  0.00000000000E+00 0. -1.
          1    1    1    2  502    0 -0.12741534592E+04 -0.15048212019E+03  0.52639948859E+03  0.13867978683E+04  0.00000000000E+00 0. -1.
         22    1    3    3    0    0  0.49537575503E+03  0.26012993904E+02  0.47405134149E+03  0.68614757078E+03  0.00000000000E+00 0. -1.
         22    1    3    3    0    0  0.75383759274E+03 -0.11191086195E+03  0.68766860892E+03  0.10264907564E+04  0.00000000000E+00 0. -1.
</event>
<event>
 7    1  0.8792454E-005  0.7578914E+03  0.7818608E-02  0.1193629E+00
          2   -1    0    0  502    0  0.00000000000E+00  0.00000000000E+00  0.12639716432E+04  0.12639716432E+04  0.00000000000E+00 0. -1.
          1   -1    0    0  501    0 -0.00000000000E+00 -0.00000000000E+00 -0.92799654388E+03  0.92799654388E+03  0.00000000000E+00 0. -1.
         25    2    1    2    0    0 -0.31473360201E+03 -0.69530880537E+03 -0.59170787468E+03  0.97378401110E+03  0.12500206496E+03 0.  0.
          2    1    1    2  501    0  0.30734872166E+03  0.66418282760E+03  0.79025363911E+03  0.10770807209E+04  0.00000000000E+00 0. -1.
          1    1    1    2  502    0  0.73848803541E+01  0.31125977772E+02  0.13742933485E+03  0.14110345505E+03  0.00000000000E+00 0. -1.
         22    1    3    3    0    0 -0.76293164286E+02 -0.26450050431E+03 -0.15669629058E+03  0.31675683288E+03  0.00000000000E+00 0.  1.
         22    1    3    3    0    0 -0.23844043773E+03 -0.43080830106E+03 -0.43501158411E+03  0.65702717822E+03  0.00000000000E+00 0.  1.
</event>
<event>
 7    1  0.8792454E-005  0.9395225E+03  0.7818608E-02  0.1048284E+00
          2   -1    0    0  502    0  0.00000000000E+00  0.00000000000E+00  0.14524921829E+04  0.14524921829E+04  0.00000000000E+00 0. -1.
          1   -1    0    0  501    0 -0.00000000000E+00 -0.00000000000E+00 -0.22074512299E+04  0.22074512299E+04  0.00000000000E+00 0. -1.
         25    2    1    2    0    0  0.78235164308E+03  0.52211344727E+03  0.93088315402E+03  0.13292268117E+04  0.12499570044E+03 0.  0.
          2    1    1    2  501    0 -0.94945367546E+02  0.12831200819E+03 -0.12983201021E+04  0.13080954407E+04  0.00000000000E+00 0. -1.
          1    1    1    2  502    0 -0.68740627553E+03 -0.65042545546E+03 -0.38752209893E+03  0.10226211605E+04  0.00000000000E+00 0. -1.
         22    1    3    3    0    0  0.53537825795E+03  0.39788405416E+03  0.59175969600E+03  0.89169565293E+03  0.00000000000E+00 0. -1.
         22    1    3    3    0    0  0.24697338513E+03  0.12422939311E+03  0.33912345802E+03  0.43753115872E+03  0.00000000000E+00 0. -1.
</event>
<event>
 7    1  0.1155928E-004  0.8766814E+02  0.7818608E-02  0.1316123E+00
          2   -1    0    0  502    0  0.00000000000E+00  0.00000000000E+00  0.29440038791E+04  0.29440038791E+04  0.00000000000E+00 0. -1.
          1   -1    0    0  501    0 -0.00000000000E+00 -0.00000000000E+00 -0.52662201582E+03  0.52662201582E+03  0.00000000000E+00 0. -1.
         25    2    1    2    0    0 -0.12848127080E+03  0.64954160991E+01 -0.34744381848E+02  0.18270684107E+03  0.12499996130E+03 0.  0.
          2    1    1    2  501    0  0.57714848988E+02 -0.58112208685E+02 -0.41320775137E+03  0.42124657671E+03  0.00000000000E+00 0. -1.
          1    1    1    2  502    0  0.70766421814E+02  0.51616792585E+02  0.28653339964E+04  0.28666724771E+04  0.00000000000E+00 0. -1.
         22    1    3    3    0    0 -0.11629465275E+03 -0.31467077563E+02 -0.60928466538E+02  0.13500704153E+03  0.00000000000E+00 0.  1.
         22    1    3    3    0    0 -0.12186618050E+02  0.37962493663E+02  0.26184084690E+02  0.47699799535E+02  0.00000000000E+00 0.  1.
</event>
<event>
 7    1  0.8792454E-005  0.1819576E+03  0.7818608E-02  0.1346402E+00
          2   -1    0    0  502    0  0.00000000000E+00  0.00000000000E+00  0.18171858260E+04  0.18171858260E+04  0.00000000000E+00 0. -1.
          1   -1    0    0  501    0 -0.00000000000E+00 -0.00000000000E+00 -0.54491952692E+02  0.54491952692E+02  0.00000000000E+00 0. -1.
         25    2    1    2    0    0  0.12233197075E+03  0.15117334905E+03  0.14633158005E+04  0.14814644642E+04  0.12500133703E+03 0.  0.
          2    1    1    2  501    0 -0.13252833045E+03 -0.12269509844E+03  0.14141975456E+03  0.22938481321E+03  0.00000000000E+00 0. -1.
          1    1    1    2  502    0  0.10196359707E+02 -0.28478250617E+02  0.15795831832E+03  0.16082850132E+03  0.00000000000E+00 0. -1.
         22    1    3    3    0    0 -0.69093148383E+01 -0.15451575204E+02  0.19550386977E+03  0.19623519792E+03  0.00000000000E+00 0.  1.
         22    1    3    3    0    0  0.12924128559E+03  0.16662492426E+03  0.12678119307E+04  0.12852292663E+04  0.00000000000E+00 0.  1.
</event>
<event>
 7    1  0.8792454E-005  0.2302221E+03  0.7818608E-02  0.1239359E+00
          2   -1    0    0  502    0  0.00000000000E+00  0.00000000000E+00  0.14336175891E+03  0.14336175891E+03  0.00000000000E+00 0. -1.
          1   -1    0    0  501    0 -0.00000000000E+00 -0.00000000000E+00 -0.12277655573E+04  0.12277655573E+04  0.00000000000E+00 0. -1.
         25    2    1    2    0    0 -0.17376838978E+03 -0.12459457975E+03 -0.73217534441E+03  0.77293315859E+03  0.12500268031E+03 0.  0.
          2    1    1    2  501    0  0.28337671544E+02 -0.58457124479E+02 -0.35848125393E+03  0.36432000831E+03  0.00000000000E+00 0. -1.
          1    1    1    2  502    0  0.14543071823E+03  0.18305170423E+03  0.62527999217E+01  0.23387414935E+03  0.00000000000E+00 0. -1.
         22    1    3    3    0    0 -0.14707577418E+03 -0.76634918678E+02 -0.66897691804E+03  0.68922732895E+03  0.00000000000E+00 0. -1.
         22    1    3    3    0    0 -0.26692615600E+02 -0.47959661076E+02 -0.63198426379E+02  0.83705829635E+02  0.00000000000E+00 0. -1.
</event>
<event>
 7    1  0.8792454E-005  0.5124018E+02  0.7818608E-02  0.1525048E+00
          2   -1    0    0  502    0  0.00000000000E+00  0.00000000000E+00  0.22114185718E+03  0.22114185718E+03  0.00000000000E+00 0. -1.
          1   -1    0    0  501    0 -0.00000000000E+00 -0.00000000000E+00 -0.81654007055E+03  0.81654007055E+03  0.00000000000E+00 0. -1.
         25    2    1    2    0    0 -0.40059179742E+01 -0.45961890647E+02 -0.24991858461E+03  0.28321863475E+03  0.12499981345E+03 0.  0.
          2    1    1    2  501    0  0.31532413581E+02  0.41496495447E+02 -0.54777809263E+03  0.55025184326E+03  0.00000000000E+00 0. -1.
          1    1    1    2  502    0 -0.27526495607E+02  0.44653952005E+01  0.20229846387E+03  0.20421144972E+03  0.00000000000E+00 0. -1.
         22    1    3    3    0    0 -0.22577089943E+02 -0.81845984110E+02 -0.20957952411E+03  0.22612400808E+03  0.00000000000E+00 0.  1.
         22    1    3    3    0    0  0.18571171969E+02  0.35884093463E+02 -0.40339060505E+02  0.57094626668E+02  0.00000000000E+00 0.  1.
</event>
<event>
 7    1  0.8792454E-005  0.7760305E+03  0.7818608E-02  0.1065610E+00
          2   -1    0    0  502    0  0.00000000000E+00  0.00000000000E+00  0.84698088298E+03  0.84698088298E+03  0.00000000000E+00 0. -1.
          1   -1    0    0  501    0 -0.00000000000E+00 -0.00000000000E+00 -0.95562846934E+03  0.95562846934E+03  0.00000000000E+00 0. -1.
         25    2    1    2    0    0  0.83851242367E+03  0.24355920891E+02 -0.42850384908E+02  0.84921021643E+03  0.12500216263E+03 0.  0.
          2    1    1    2  501    0 -0.11545745302E+03  0.97976333853E+02 -0.15256229020E+03  0.21495357136E+03  0.00000000000E+00 0. -1.
          1    1    1    2  502    0 -0.72305497066E+03 -0.12233225474E+03  0.86765088750E+02  0.73844556453E+03  0.00000000000E+00 0. -1.
         22    1    3    3    0    0  0.44980981428E+03  0.70584965334E+02 -0.47110572148E+02  0.45774502986E+03  0.00000000000E+00 0. -1.
         22    1    3    3    0    0  0.38870260939E+03 -0.46229044443E+02  0.42601872393E+01  0.39146518657E+03  0.00000000000E+00 0. -1.
</event>
<event>
 7    1  0.8792454E-005  0.1047369E+03  0.7818608E-02  0.1275452E+00
          2   -1    0    0  502    0  0.00000000000E+00  0.00000000000E+00  0.27598399018E+04  0.27598399018E+04  0.00000000000E+00 0. -1.
          1   -1    0    0  501    0 -0.00000000000E+00 -0.00000000000E+00 -0.29266548653E+03  0.29266548653E+03  0.00000000000E+00 0. -1.
         25    2    1    2    0    0 -0.92171046635E+02  0.53443181140E+02 -0.54087248232E+02  0.17291702993E+03  0.12499277328E+03 0.  0.
          2    1    1    2  501    0  0.38123768124E+01 -0.10967982702E+03 -0.16123880353E+03  0.19504397052E+03  0.00000000000E+00 0. -1.
          1    1    1    2  502    0  0.88358669822E+02  0.56236645878E+02  0.26825004670E+04  0.26845443878E+04  0.00000000000E+00 0. -1.
         22    1    3    3    0    0  0.11160848224E+02 -0.25204863716E+02  0.83866736865E+01  0.28812948192E+02  0.00000000000E+00 0.  1.
         22    1    3    3    0    0 -0.10333189486E+03  0.78648044856E+02 -0.62473921919E+02  0.14410408174E+03  0.00000000000E+00 0.  1.
</event>
<event>
 7    1  0.8792454E-005  0.3460566E+03  0.7818608E-02  0.1148582E+00
          2   -1    0    0  502    0  0.00000000000E+00  0.00000000000E+00  0.44979248002E+03  0.44979248002E+03  0.00000000000E+00 0. -1.
          1   -1    0    0  501    0 -0.00000000000E+00 -0.00000000000E+00 -0.90961089800E+03  0.90961089800E+03  0.00000000000E+00 0. -1.
         25    2    1    2    0    0  0.23630967053E+03  0.22668072174E+03 -0.43813703664E+03  0.56108820480E+03  0.12501800150E+03 0.  0.
          2    1    1    2  501    0 -0.34113947595E+03 -0.17430504711E+03 -0.30631841213E+03  0.49049909389E+03  0.00000000000E+00 0. -1.
          1    1    1    2  502    0  0.10482980542E+03 -0.52375674631E+02  0.28463703079E+03  0.30781607933E+03  0.00000000000E+00 0. -1.
         22    1    3    3    0    0  0.17023865827E+03  0.19460409912E+03 -0.40503821481E+03  0.48052878334E+03  0.00000000000E+00 0.  1.
         22    1    3    3    0    0  0.66071012256E+02  0.32076622624E+02 -0.33098821828E+02  0.80559421459E+02  0.00000000000E+00 0.  1.
</event>
<event>
 7    1  0.8792454E-005  0.2578206E+03  0.7818608E-02  0.1136107E+00
          2   -1    0    0  502    0  0.00000000000E+00  0.00000000000E+00  0.21173169464E+03  0.21173169464E+03  0.00000000000E+00 0. -1.
          1   -1    0    0  501    0 -0.00000000000E+00 -0.00000000000E+00 -0.17458500867E+04  0.17458500867E+04  0.00000000000E+00 0. -1.
         25    2    1    2    0    0  0.39513025745E+03  0.48682547590E+02 -0.41863721756E+03  0.59108424682E+03  0.12500222443E+03 0.  0.
          2    1    1    2  501    0 -0.18028734913E+03  0.29683439103E+02 -0.11229195043E+04  0.11376875001E+04  0.00000000000E+00 0. -1.
          1    1    1    2  502    0 -0.21484290833E+03 -0.78365986692E+02  0.74383297150E+01  0.22881003448E+03  0.00000000000E+00 0. -1.
         22    1    3    3    0    0  0.61281489060E+02 -0.26331276887E+02 -0.11826102238E+03  0.13577343797E+03  0.00000000000E+00 0.  1.
         22    1    3    3    0    0  0.33384876839E+03  0.75013824477E+02 -0.30037619518E+03  0.45531080884E+03  0.00000000000E+00 0.  1.
</event>
<event>
 7    1  0.8792454E-005  0.1381903E+03  0.7818608E-02  0.1380614E+00
          2   -1    0    0  502    0  0.00000000000E+00  0.00000000000E+00  0.14250011078E+04  0.14250011078E+04  0.00000000000E+00 0. -1.
          1   -1    0    0  501    0 -0.00000000000E+00 -0.00000000000E+00 -0.58212656794E+02  0.58212656794E+02  0.00000000000E+00 0. -1.
         25    2    1    2    0    0 -0.10838295547E+03  0.81307944091E+02  0.11480015475E+03  0.21716553717E+03  0.12499579271E+03 0.  0.
          2    1    1    2  501    0  0.13713321514E+03 -0.73018654215E+02  0.95478847760E+03  0.96734599783E+03  0.00000000000E+00 0. -1.
          1    1    1    2  502    0 -0.28750259668E+02 -0.82892898759E+01  0.29719981864E+03  0.29870222958E+03  0.00000000000E+00 0. -1.
         22    1    3    3    0    0 -0.95904427760E+02  0.10390868313E+03  0.12564868346E+03  0.18916200821E+03  0.00000000000E+00 0.  1.
         22    1    3    3    0    0 -0.12478527711E+02 -0.22600739037E+02 -0.10848528714E+02  0.28003528959E+02  0.00000000000E+00 0.  1.
</event>
<event>
 7    1  0.8792454E-005  0.1071824E+03  0.7818608E-02  0.1404089E+00
          2   -1    0    0  502    0  0.00000000000E+00  0.00000000000E+00  0.12669281524E+04  0.12669281524E+04  0.00000000000E+00 0. -1.
          1   -1    0    0  501    0 -0.00000000000E+00 -0.00000000000E+00 -0.12192807028E+04  0.12192807028E+04  0.00000000000E+00 0. -1.
         25    2    1    2    0    0  0.88856192554E+02 -0.75972093157E+01 -0.68315176532E+02  0.16805929622E+03  0.12499529253E+03 0.  0.
          2    1    1    2  501    0 -0.10185439847E+03  0.36801492162E+02 -0.10982196372E+04  0.11035465735E+04  0.00000000000E+00 0. -1.
          1    1    1    2  502    0  0.12998205914E+02 -0.29204282846E+02  0.12141822634E+04  0.12146029854E+04  0.00000000000E+00 0. -1.
         22    1    3    3    0    0  0.11860032407E+03  0.45370192123E+01 -0.66116137886E+02  0.13586009386E+03  0.00000000000E+00 0.  1.
         22    1    3    3    0    0 -0.29744131519E+02 -0.12134228528E+02 -0.21990386465E+01  0.32199202362E+02  0.00000000000E+00 0.  1.
</event>
<event>
 7    1  0.8792454E-005  0.1692908E+03  0.7818608E-02  0.1376432E+00
          2   -1    0    0  502    0  0.00000000000E+00  0.00000000000E+00  0.13897520120E+04  0.13897520120E+04  0.00000000000E+00 0. -1.
          1   -1    0    0  501    0 -0.00000000000E+00 -0.00000000000E+00 -0.25197566351E+03  0.25197566351E+03  0.00000000000E+00 0. -1.
         25    2    1    2    0    0  0.31971402723E+02  0.18628631583E+03 -0.30625837298E+02  0.22866149245E+03  0.12499349648E+03 0.  0.
          2    1    1    2  501    0 -0.17274311367E+02 -0.18448748953E+02 -0.11546136794E+03  0.11819511690E+03  0.00000000000E+00 0. -1.
          1    1    1    2  502    0 -0.14697091356E+02 -0.16783756688E+03  0.12838635537E+04  0.12948710662E+04  0.00000000000E+00 0. -1.
         22    1    3    3    0    0  0.71242213237E+02  0.16866181794E+03 -0.18995799999E+02  0.18407363253E+03  0.00000000000E+00 0.  1.
         22    1    3    3    0    0 -0.39270810514E+02  0.17624497894E+02 -0.11630037299E+02  0.44587859917E+02  0.00000000000E+00 0.  1.
</event>
<event>
 7    1  0.8792454E-005  0.2009029E+03  0.7818608E-02  0.1309934E+00
          2   -1    0    0  502    0  0.00000000000E+00  0.00000000000E+00  0.45086525933E+03  0.45086525933E+03  0.00000000000E+00 0. -1.
          1   -1    0    0  501    0 -0.00000000000E+00 -0.00000000000E+00 -0.26908666433E+04  0.26908666433E+04  0.00000000000E+00 0. -1.
         25    2    1    2    0    0 -0.21542237009E+02  0.17285628214E+03 -0.31947409392E+03  0.38474929301E+03  0.12499983814E+03 0.  0.
          2    1    1    2  501    0 -0.29640876851E+02  0.23449166075E+02 -0.23139903937E+04  0.23142990272E+04  0.00000000000E+00 0. -1.
          1    1    1    2  502    0  0.51183113860E+02 -0.19630544821E+03  0.39346310371E+03  0.44268358240E+03  0.00000000000E+00 0. -1.
         22    1    3    3    0    0 -0.70626553965E+02  0.92092916661E+02 -0.21154788799E+03  0.24129178257E+03  0.00000000000E+00 0. -1.
         22    1    3    3    0    0  0.49084316957E+02  0.80763365474E+02 -0.10792620594E+03  0.14345751044E+03  0.00000000000E+00 0. -1.
</event>
<event>
 7    1  0.8792454E-005  0.1423076E+03  0.7818608E-02  0.1227784E+00
          2   -1    0    0  502    0  0.00000000000E+00  0.00000000000E+00  0.94709273854E+03  0.94709273854E+03  0.00000000000E+00 0. -1.
          1   -1    0    0  501    0 -0.00000000000E+00 -0.00000000000E+00 -0.34200268628E+03  0.34200268628E+03  0.00000000000E+00 0. -1.
         25    2    1    2    0    0 -0.17505271232E+02  0.11282335781E+03  0.34661753614E+03  0.38575146922E+03  0.12499974022E+03 0.  0.
          2    1    1    2  501    0 -0.11835106403E+03 -0.73708228498E+00 -0.29748048482E+03  0.32015957974E+03  0.00000000000E+00 0. -1.
          1    1    1    2  502    0  0.13585633527E+03 -0.11208627552E+03  0.55595300094E+03  0.58318437586E+03  0.00000000000E+00 0. -1.
         22    1    3    3    0    0 -0.15289624160E+02  0.13712901113E+03  0.32527414224E+03  0.35332903350E+03  0.00000000000E+00 0. -1.
         22    1    3    3    0    0 -0.22156470716E+01 -0.24305653318E+02  0.21343393901E+02  0.32422435725E+02  0.00000000000E+00 0. -1.
</event>
<event>
 7    1  0.8792454E-005  0.1404741E+03  0.7818608E-02  0.1356136E+00
          2   -1    0    0  502    0  0.00000000000E+00  0.00000000000E+00  0.25092457430E+04  0.25092457430E+04  0.00000000000E+00 0. -1.
          1   -1    0    0  501    0 -0.00000000000E+00 -0.00000000000E+00 -0.10091504255E+03  0.10091504255E+03  0.00000000000E+00 0. -1.
         25    2    1    2    0    0 -0.16919513951E+03  0.61230827889E+01  0.33435615482E+03  0.39507220866E+03  0.12499409749E+03 0.  0.
          2    1    1    2  501    0  0.13447452664E+03 -0.15876874376E+02 -0.52894712507E+01  0.13551181484E+03  0.00000000000E+00 0. -1.
          1    1    1    2  502    0  0.34720612872E+02  0.97537915871E+01  0.20792640169E+04  0.20795767621E+04  0.00000000000E+00 0. -1.
         22    1    3    3    0    0 -0.18138563855E+03  0.28850626840E+02  0.27934240353E+03  0.33431315701E+03  0.00000000000E+00 0.  1.
         22    1    3    3    0    0  0.12190499037E+02 -0.22727544051E+02  0.55013751296E+02  0.60759051647E+02  0.00000000000E+00 0.  1.
</event>
<event>
 7    1  0.8792454E-005  0.8290360E+02  0.7818608E-02  0.1330890E+00
          2   -1    0    0  502    0  0.00000000000E+00  0.00000000000E+00  0.28870455023E+03  0.28870455023E+03  0.00000000000E+00 0. -1.
          1   -1    0    0  501    0 -0.00000000000E+00 -0.00000000000E+00 -0.11147452478E+04  0.11147452478E+04  0.00000000000E+00 0. -1.
         25    2    1    2    0    0 -0.17094247913E+02  0.14839815531E+03 -0.30055361696E+03  0.35815116866E+03  0.12500222852E+03 0.  0.
          2    1    1    2  501    0 -0.16883958636E+02 -0.74059427879E+02 -0.77706871855E+03  0.78077247663E+03  0.00000000000E+00 0. -1.
          1    1    1    2  502    0  0.33978206549E+02 -0.74338727433E+02  0.25158163796E+03  0.26452615272E+03  0.00000000000E+00 0. -1.
         22    1    3    3    0    0 -0.32924074237E+02 -0.88654723605E+01 -0.33321869574E+02  0.47675342227E+02  0.00000000000E+00 0. -1.
         22    1    3    3    0    0  0.15829826324E+02  0.15726362767E+03 -0.26723174738E+03  0.31047582643E+03  0.00000000000E+00 0. -1.
</event>
<event>
 7    1  0.8792454E-005  0.5087890E+03  0.7818608E-02  0.1129026E+00
          2   -1    0    0  502    0  0.00000000000E+00  0.00000000000E+00  0.25061619249E+04  0.25061619249E+04  0.00000000000E+00 0. -1.
          1   -1    0    0  501    0 -0.00000000000E+00 -0.00000000000E+00 -0.14269956210E+04  0.14269956210E+04  0.00000000000E+00 0. -1.
         25    2    1    2    0    0 -0.11077716103E+03 -0.51482577946E+03 -0.53912098045E+03  0.76393257537E+03  0.12499754217E+03 0.  0.
          2    1    1    2  501    0  0.19557523471E+03  0.46003604865E+03 -0.69369397840E+03  0.85504045177E+03  0.00000000000E+00 0. -1.
          1    1    1    2  502    0 -0.84798073675E+02  0.54789730809E+02  0.23119812627E+04  0.23141845188E+04  0.00000000000E+00 0. -1.
         22    1    3    3    0    0 -0.13540799241E+03 -0.47816906465E+03 -0.49916887589E+03  0.70437954645E+03  0.00000000000E+00 0.  1.
         22    1    3    3    0    0  0.24630831379E+02 -0.36656714810E+02 -0.39952104561E+02  0.59553028923E+02  0.00000000000E+00 0.  1.
</event>
<event>
 7    1  0.8792454E-005  0.1634194E+03  0.7818608E-02  0.1261245E+00
          2   -1    0    0  502    0  0.00000000000E+00  0.00000000000E+00  0.19027930427E+03  0.19027930427E+03  0.00000000000E+00 0. -1.
          1   -1    0    0  501    0 -0.00000000000E+00 -0.00000000000E+00 -0.59636570146E+03  0.59636570146E+03  0.00000000000E+00 0. -1.
         25    2    1    2    0    0  0.15501275531E+03 -0.89269798601E+02 -0.19371886042E+03  0.29180320513E+03  0.12499624951E+03 0.  0.
          2    1    1    2  501    0 -0.94585622256E+02  0.13120632277E+03 -0.32343707740E+03  0.36162561042E+03  0.00000000000E+00 0. -1.
          1    1    1    2  502    0 -0.60427133055E+02 -0.41936524167E+02  0.11106954064E+03  0.13321619018E+03  0.00000000000E+00 0. -1.
         22    1    3    3    0    0  0.17429320196E+03 -0.68654317585E+02 -0.18218873587E+03  0.26131259260E+03  0.00000000000E+00 0.  1.
         22    1    3    3    0    0 -0.19280446648E+02 -0.20615481016E+02 -0.11530124541E+02  0.30490612529E+02  0.00000000000E+00 0.  1.
</event>
<event>
 7    1  0.8792454E-005  0.1301182E+03  0.7818608E-02  0.1337857E+00
          2   -1    0    0  502    0  0.00000000000E+00  0.00000000000E+00  0.16260018806E+03  0.16260018806E+03  0.00000000000E+00 0. -1.
          1   -1    0    0  501    0 -0.00000000000E+00 -0.00000000000E+00 -0.49345472296E+03  0.49345472296E+03  0.00000000000E+00 0. -1.
         25    2    1    2    0    0 -0.11954172989E+03  0.91877219641E+02  0.51946228609E+02  0.20264186960E+03  0.12503466709E+03 0.  0.
          2    1    1    2  501    0  0.28313486926E+02 -0.35666868419E+02 -0.33149567357E+03  0.33460896677E+03  0.00000000000E+00 0. -1.
          1    1    1    2  502    0  0.91228242967E+02 -0.56210351223E+02 -0.51305089934E+02  0.11880407465E+03  0.00000000000E+00 0. -1.
         22    1    3    3    0    0 -0.12603556284E+03  0.28026178145E+02  0.19017434893E+02  0.13050705954E+03  0.00000000000E+00 0.  1.
         22    1    3    3    0    0  0.64938329433E+01  0.63851041496E+02  0.32928793715E+02  0.72134810057E+02  0.00000000000E+00 0.  1.
</event>
<event>
 7    1  0.8792454E-005  0.4792227E+03  0.7818608E-02  0.1265432E+00
          2   -1    0    0  502    0  0.00000000000E+00  0.00000000000E+00  0.28862329423E+04  0.28862329423E+04  0.00000000000E+00 0. -1.
          1   -1    0    0  501    0 -0.00000000000E+00 -0.00000000000E+00 -0.19869614940E+04  0.19869614940E+04  0.00000000000E+00 0. -1.
         25    2    1    2    0    0 -0.23933538070E+03  0.39330037036E+03 -0.12152504757E+04  0.13055362111E+04  0.12499789634E+03 0.  0.
          2    1    1    2  501    0 -0.22568132909E+02  0.83887109249E+01 -0.70612741585E+03  0.70653776863E+03  0.00000000000E+00 0. -1.
          1    1    1    2  502    0  0.26190351361E+03 -0.40168908129E+03  0.28206493398E+04  0.28611204565E+04  0.00000000000E+00 0. -1.
         22    1    3    3    0    0 -0.15817273798E+03  0.33943882609E+03 -0.10347474184E+04  0.11004269860E+04  0.00000000000E+00 0.  1.
         22    1    3    3    0    0 -0.81162642717E+02  0.53861544268E+02 -0.18050305729E+03  0.20510922508E+03  0.00000000000E+00 0.  1.
</event>
<event>
 7    1  0.8792454E-005  0.1555765E+03  0.7818608E-02  0.1370380E+00
          2   -1    0    0  502    0  0.00000000000E+00  0.00000000000E+00  0.42201440257E+03  0.42201440257E+03  0.00000000000E+00 0. -1.
          1   -1    0    0  501    0 -0.00000000000E+00 -0.00000000000E+00 -0.34907213460E+03  0.34907213460E+03  0.00000000000E+00 0. -1.
         25    2    1    2    0    0  0.65902112838E+02 -0.14557882802E+03 -0.92990280420E+02  0.22317910509E+03  0.12500174820E+03 0.  0.
          2    1    1    2  501    0  0.22678494040E+02  0.17924825938E+02 -0.17281992182E+03  0.17522082883E+03  0.00000000000E+00 0. -1.
          1    1    1    2  502    0 -0.88580606878E+02  0.12765400208E+03  0.33875247021E+03  0.37268660324E+03  0.00000000000E+00 0. -1.
         22    1    3    3    0    0  0.50132272925E+02 -0.53245429469E+02 -0.10582225095E+03  0.12863385769E+03  0.00000000000E+00 0. -1.
         22    1    3    3    0    0  0.15769839913E+02 -0.92333398547E+02  0.12831970532E+02  0.94545247400E+02  0.00000000000E+00 0. -1.
</event>
<event>
 7    1  0.8792454E-005  0.2096594E+03  0.7818608E-02  0.1370696E+00
          2   -1    0    0  502    0  0.00000000000E+00  0.00000000000E+00  0.74997819166E+03  0.74997819166E+03  0.00000000000E+00 0. -1.
          1   -1    0    0  501    0 -0.00000000000E+00 -0.00000000000E+00 -0.26011639950E+03  0.26011639950E+03  0.00000000000E+00 0. -1.
         25    2    1    2    0    0 -0.16887756341E+03  0.10047117403E+03  0.63214764813E+03  0.67368149874E+03  0.12498809731E+03 0.  0.
          2    1    1    2  501    0  0.17197132028E+03 -0.12164059225E+03 -0.19028344081E+03  0.28386327083E+03  0.00000000000E+00 0. -1.
          1    1    1    2  502    0 -0.30937568616E+01  0.21169418220E+02  0.47997584837E+02  0.52549821593E+02  0.00000000000E+00 0. -1.
         22    1    3    3    0    0 -0.15279666911E+03  0.25429328456E+02  0.38884077658E+03  0.41855778856E+03  0.00000000000E+00 0.  1.
         22    1    3    3    0    0 -0.16080894305E+02  0.75041845572E+02  0.24330687155E+03  0.25512371017E+03  0.00000000000E+00 0.  1.
</event>
<event>
 7    1  0.8792454E-005  0.4132398E+03  0.7818608E-02  0.1077851E+00
          2   -1    0    0  502    0  0.00000000000E+00  0.00000000000E+00  0.16380286408E+04  0.16380286408E+04  0.00000000000E+00 0. -1.
          1   -1    0    0  501    0 -0.00000000000E+00 -0.00000000000E+00 -0.29233103278E+04  0.29233103278E+04  0.00000000000E+00 0. -1.
         25    2    1    2    0    0 -0.46511266990E+02  0.56142852320E+03 -0.35737236301E+03  0.67875262216E+03  0.12499932649E+03 0.  0.
          2    1    1    2  501    0 -0.11590611691E+03 -0.38403742515E+03 -0.23785512522E+04  0.24121411715E+04  0.00000000000E+00 0. -1.
          1    1    1    2  502    0  0.16241738390E+03 -0.17739109806E+03  0.14506419283E+04  0.14704451749E+04  0.00000000000E+00 0. -1.
         22    1    3    3    0    0 -0.88177409242E+02  0.43592175580E+03 -0.27956501922E+03  0.52531860109E+03  0.00000000000E+00 0.  1.
         22    1    3    3    0    0  0.41666142252E+02  0.12550676741E+03 -0.77807343794E+02  0.15343402108E+03  0.00000000000E+00 0.  1.
</event>
<event>
 7    1  0.8792454E-005  0.8577117E+02  0.7818608E-02  0.1375550E+00
          2   -1    0    0  502    0  0.00000000000E+00  0.00000000000E+00  0.38940692727E+03  0.38940692727E+03  0.00000000000E+00 0. -1.
          1   -1    0    0  501    0 -0.00000000000E+00 -0.00000000000E+00 -0.30550772959E+03  0.30550772959E+03  0.00000000000E+00 0. -1.
         25    2    1    2    0    0 -0.36370548314E+02  0.49163441708E+02  0.11624139037E+03  0.18131903001E+03  0.12499867608E+03 0.  0.
          2    1    1    2  501    0  0.37093646549E+01 -0.87346054909E+02 -0.26319653996E+03  0.27733645873E+03  0.00000000000E+00 0. -1.
          1    1    1    2  502    0  0.32661183659E+02  0.38182613200E+02  0.23085434726E+03  0.23625916812E+03  0.00000000000E+00 0. -1.
         22    1    3    3    0    0 -0.67169849569E+01 -0.21609545361E+02 -0.16492009385E+02  0.28001369809E+02  0.00000000000E+00 0.  1.
         22    1    3    3    0    0 -0.29653563357E+02  0.70772987069E+02  0.13273339976E+03  0.15331766020E+03  0.00000000000E+00 0.  1.
</event>
<event>
 7    1  0.8792454E-005  0.3218942E+02  0.7818608E-02  0.1617989E+00
          2   -1    0    0  502    0  0.00000000000E+00  0.00000000000E+00  0.81540781775E+03  0.81540781775E+03  0.00000000000E+00 0. -1.
          1   -1    0    0  501    0 -0.00000000000E+00 -0.00000000000E+00 -0.14233963613E+02  0.14233963613E+02  0.00000000000E+00 0. -1.
         25    2    1    2    0    0  0.43137375900E+02 -0.19344963588E+02  0.53399852404E+03  0.55046670493E+03  0.12499643491E+03 0.  0.
          2    1    1    2  501    0 -0.12262147746E+02  0.21596746996E+02  0.25756690372E+02  0.35779698812E+02  0.00000000000E+00 0. -1.
          1    1    1    2  502    0 -0.30875228154E+02 -0.22517834086E+01  0.24141863972E+03  0.24339537762E+03  0.00000000000E+00 0. -1.
         22    1    3    3    0    0  0.41438334896E+02 -0.47255348600E+02  0.50928546692E+03  0.51314899433E+03  0.00000000000E+00 0. -1.
         22    1    3    3    0    0  0.16990410033E+01  0.27910385012E+02  0.24713057129E+02  0.37317710601E+02  0.00000000000E+00 0. -1.
</event>
<event>
 7    1  0.8792454E-005  0.1583883E+03  0.7818608E-02  0.1335287E+00
          2   -1    0    0  502    0  0.00000000000E+00  0.00000000000E+00  0.18061898511E+04  0.18061898511E+04  0.00000000000E+00 0. -1.
          1   -1    0    0  501    0 -0.00000000000E+00 -0.00000000000E+00 -0.25363420870E+02  0.25363420870E+02  0.00000000000E+00 0. -1.
         25    2    1    2    0    0 -0.17236096997E+03  0.15940273224E+02  0.12249516029E+04  0.12434200919E+04  0.12499879636E+03 0.  0.
          2    1    1    2  501    0  0.14718332414E+03 -0.44744906442E+02  0.44776060769E+03  0.47344967986E+03  0.00000000000E+00 0. -1.
          1    1    1    2  502    0  0.25177645834E+02  0.28804633218E+02  0.10811421963E+03  0.11468350026E+03  0.00000000000E+00 0. -1.
         22    1    3    3    0    0 -0.18479768606E+03 -0.43814724725E+01  0.97752109026E+03  0.99484514573E+03  0.00000000000E+00 0.  1.
         22    1    3    3    0    0  0.12436716087E+02  0.20321745697E+02  0.24743051264E+03  0.24857494613E+03  0.00000000000E+00 0.  1.
</event>
<event>
 7    1  0.8792454E-005  0.1314639E+03  0.7818608E-02  0.1270651E+00
          2   -1    0    0  502    0  0.00000000000E+00  0.00000000000E+00  0.36480227344E+04  0.36480227344E+04  0.00000000000E+00 0. -1.
          1   -1    0    0  501    0 -0.00000000000E+00 -0.00000000000E+00 -0.48177838676E+02  0.48177838676E+02  0.00000000000E+00 0. -1.
         25    2    1    2    0    0  0.93296178179E+02 -0.14783694995E+03  0.35829249521E+03  0.41780145146E+03  0.12499840034E+03 0.  0.
          2    1    1    2  501    0 -0.17204533210E+02  0.11361358653E+03  0.16699615785E+03  0.20271102522E+03  0.00000000000E+00 0. -1.
          1    1    1    2  502    0 -0.76091644969E+02  0.34223363416E+02  0.30745562427E+04  0.30756880964E+04  0.00000000000E+00 0. -1.
         22    1    3    3    0    0  0.23143686892E+02  0.17057336045E+02  0.95447695077E+02  0.99683727114E+02  0.00000000000E+00 0.  1.
         22    1    3    3    0    0  0.70152491287E+02 -0.16489428599E+03  0.26284480013E+03  0.31811772435E+03  0.00000000000E+00 0.  1.
</event>
<event>
 7    1  0.8792454E-005  0.6091569E+02  0.7818608E-02  0.1489671E+00
          2   -1    0    0  502    0  0.00000000000E+00  0.00000000000E+00  0.92640801495E+01  0.92640801495E+01  0.00000000000E+00 0. -1.
          1   -1    0    0  501    0 -0.00000000000E+00 -0.00000000000E+00 -0.21288881604E+04  0.21288881604E+04  0.00000000000E+00 0. -1.
         25    2    1    2    0    0  0.69637248381E+01  0.66695418206E+02 -0.15953863951E+04  0.16016804227E+04  0.12500261807E+03 0.  0.
          2    1    1    2  501    0 -0.32024460839E+02 -0.50496807322E+02 -0.47606632952E+03  0.47980688172E+03  0.00000000000E+00 0. -1.
          1    1    1    2  502    0  0.25060736001E+02 -0.16198610884E+02 -0.48171355645E+02  0.56664936144E+02  0.00000000000E+00 0. -1.
         22    1    3    3    0    0 -0.43813485628E+02  0.49958633145E+02 -0.12854612535E+04  0.12871775793E+04  0.00000000000E+00 0.  1.
         22    1    3    3    0    0  0.50777210466E+02  0.16736785061E+02 -0.30992514164E+03  0.31450284338E+03  0.00000000000E+00 0.  1.
</event>
<event>
 7    1  0.8792454E-005  0.1206346E+03  0.7818608E-02  0.1256289E+00
          2   -1    0    0  502    0  0.00000000000E+00  0.00000000000E+00  0.15377350251E+03  0.15377350251E+03  0.00000000000E+00 0. -1.
          1   -1    0    0  501    0 -0.00000000000E+00 -0.00000000000E+00 -0.61349898220E+03  0.61349898220E+03  0.00000000000E+00 0. -1.
         25    2    1    2    0    0 -0.16721805862E+03  0.55223089478E+02 -0.51273843362E+02  0.22195877206E+03  0.12500088297E+03 0.  0.
          2    1    1    2  501    0  0.70373358264E+02 -0.94810522591E+02 -0.42346545407E+03  0.43961851137E+03  0.00000000000E+00 0. -1.
          1    1    1    2  502    0  0.96844700356E+02  0.39587433113E+02  0.15013817745E+02  0.10569520127E+03  0.00000000000E+00 0. -1.
         22    1    3    3    0    0 -0.13513771454E+02 -0.20274611636E+02 -0.44315620350E+02  0.50572285917E+02  0.00000000000E+00 0. -1.
         22    1    3    3    0    0 -0.15370428717E+03  0.75497701114E+02 -0.69582230118E+01  0.17138648615E+03  0.00000000000E+00 0. -1.
</event>
<event>
 7    1  0.8792454E-005  0.1760270E+03  0.7818608E-02  0.1340867E+00
          2   -1    0    0  502    0  0.00000000000E+00  0.00000000000E+00  0.49486619304E+03  0.49486619304E+03  0.00000000000E+00 0. -1.
          1   -1    0    0  501    0 -0.00000000000E+00 -0.00000000000E+00 -0.63521092600E+03  0.63521092600E+03  0.00000000000E+00 0. -1.
         25    2    1    2    0    0 -0.15152795213E+03  0.89338104580E+02  0.45019360665E+03  0.49924078283E+03  0.12500023428E+03 0.  0.
          2    1    1    2  501    0 -0.18503611135E+02 -0.27075847120E+02 -0.16741063965E+03  0.17059251857E+03  0.00000000000E+00 0. -1.
          1    1    1    2  502    0  0.17003156326E+03 -0.62262257460E+02 -0.42312769995E+03  0.46024381764E+03  0.00000000000E+00 0. -1.
         22    1    3    3    0    0 -0.17207569952E+02  0.45499071701E+02  0.33029325128E+02  0.58797978773E+02  0.00000000000E+00 0.  1.
         22    1    3    3    0    0 -0.13432038218E+03  0.43839032879E+02  0.41716428152E+03  0.44044280406E+03  0.00000000000E+00 0.  1.
</event>
<event>
 7    1  0.8792454E-005  0.6232155E+03  0.7818608E-02  0.1228257E+00
          2   -1    0    0  502    0  0.00000000000E+00  0.00000000000E+00  0.42740933553E+03  0.42740933553E+03  0.00000000000E+00 0. -1.
          1   -1    0    0  501    0 -0.00000000000E+00 -0.00000000000E+00 -0.23233848336E+04  0.23233848336E+04  0.00000000000E+00 0. -1.
         25    2    1    2    0    0 -0.60426017217E+03  0.13591474288E+02 -0.37953441886E+03  0.72456247436E+03  0.12501728003E+03 0.  0.
          2    1    1    2  501    0  0.62931951837E+03 -0.38308336559E+01 -0.17145008037E+04  0.18263544939E+04  0.00000000000E+00 0. -1.
          1    1    1    2  502    0 -0.25059346198E+02 -0.97606406323E+01  0.19805972452E+03  0.19987720084E+03  0.00000000000E+00 0. -1.
         22    1    3    3    0    0 -0.46618877642E+03 -0.77676063537E+01 -0.34673983209E+03  0.58105147976E+03  0.00000000000E+00 0.  1.
         22    1    3    3    0    0 -0.13807139575E+03  0.21359080642E+02 -0.32794586761E+02  0.14351099460E+03  0.00000000000E+00 0.  1.
</event>
<event>
 7    1  0.8792454E-005  0.9452703E+02  0.7818608E-02  0.1376112E+00
          2   -1    0    0  502    0  0.00000000000E+00  0.00000000000E+00  0.12234075926E+04  0.12234075926E+04  0.00000000000E+00 0. -1.
          1   -1    0    0  501    0 -0.00000000000E+00 -0.00000000000E+00 -0.12999652975E+03  0.12999652975E+03  0.00000000000E+00 0. -1.
         25    2    1    2    0    0  0.11931565517E+03 -0.68703297958E+01  0.10720352574E+02  0.17327668384E+03  0.12500582468E+03 0.  0.
          2    1    1    2  501    0 -0.29390984655E+02  0.34579322860E+02 -0.35727251581E+02  0.57758082153E+02  0.00000000000E+00 0. -1.
          1    1    1    2  502    0 -0.89924670514E+02 -0.27708993064E+02  0.11184179619E+04  0.11223693564E+04  0.00000000000E+00 0. -1.
         22    1    3    3    0    0  0.78743163148E+02 -0.41505681569E+02 -0.41868815871E+02  0.98367703478E+02  0.00000000000E+00 0.  1.
         22    1    3    3    0    0  0.40572492021E+02  0.34635351773E+02  0.52589168445E+02  0.74908980363E+02  0.00000000000E+00 0.  1.
</event>
<event>
 7    1  0.8792454E-005  0.7714067E+02  0.7818608E-02  0.1358966E+00
          2   -1    0    0  502    0  0.00000000000E+00  0.00000000000E+00  0.11985543953E+04  0.11985543953E+04  0.00000000000E+00 0. -1.
          1   -1    0    0  501    0 -0.00000000000E+00 -0.00000000000E+00 -0.80875940148E+03  0.80875940148E+03  0.00000000000E+00 0. -1.
         25    2    1    2    0    0  0.12019582764E+03  0.25901623828E+02  0.23760731849E+03  0.29529656199E+03  0.12499956251E+03 0.  0.
          2    1    1    2  501    0 -0.74499500802E+02  0.19086133166E+02 -0.77691107513E+03  0.78070818797E+03  0.00000000000E+00 0. -1.
          1    1    1    2  502    0 -0.45696326835E+02 -0.44987756994E+02  0.92909875045E+03  0.93130904680E+03  0.00000000000E+00 0. -1.
         22    1    3    3    0    0 -0.12100306010E+02  0.32689638569E+02  0.92330162950E+02  0.98690875291E+02  0.00000000000E+00 0.  1.
         22    1    3    3    0    0  0.13229613365E+03 -0.67880147411E+01  0.14527715554E+03  0.19660568670E+03  0.00000000000E+00 0.  1.
</event>
<event>
 7    1  0.8792454E-005  0.5288096E+02  0.7818608E-02  0.1454330E+00
          2   -1    0    0  502    0  0.00000000000E+00  0.00000000000E+00  0.22837773254E+04  0.22837773254E+04  0.00000000000E+00 0. -1.
          1   -1    0    0  501    0 -0.00000000000E+00 -0.00000000000E+00 -0.41021560966E+02  0.41021560966E+02  0.00000000000E+00 0. -1.
         25    2    1    2    0    0  0.32986645222E+02  0.43705157476E+02  0.87894808774E+03  0.88947805962E+03  0.12499287199E+03 0.  0.
          2    1    1    2  501    0 -0.43169252401E+02  0.97020480987E+01 -0.21328216790E+02  0.49118295183E+02  0.00000000000E+00 0. -1.
          1    1    1    2  502    0  0.10182607180E+02 -0.53407205575E+02  0.13851358934E+04  0.13862025315E+04  0.00000000000E+00 0. -1.
         22    1    3    3    0    0  0.77522941368E+02  0.10934597821E+02  0.42243842246E+03  0.42963192693E+03  0.00000000000E+00 0.  1.
         22    1    3    3    0    0 -0.44536296146E+02  0.32770559656E+02  0.45650966528E+03  0.45984613269E+03  0.00000000000E+00 0.  1.
</event>
<event>
 7    1  0.8792454E-005  0.3100535E+03  0.7818608E-02  0.1141214E+00
          2   -1    0    0  502    0  0.00000000000E+00  0.00000000000E+00  0.54000649688E+03  0.54000649688E+03  0.00000000000E+00 0. -1.
          1   -1    0    0  501    0 -0.00000000000E+00 -0.00000000000E+00 -0.87107488019E+03  0.87107488019E+03  0.00000000000E+00 0. -1.
         25    2    1    2    0    0  0.62242352896E+02 -0.40517888625E+03 -0.29451627988E+03  0.52000181601E+03  0.12497203357E+03 0.  0.
          2    1    1    2  501    0 -0.93031220169E+02  0.10838608761E+03 -0.39772306857E+03  0.42259435773E+03  0.00000000000E+00 0. -1.
          1    1    1    2  502    0  0.30788867273E+02  0.29679279865E+03  0.36117096515E+03  0.46848520333E+03  0.00000000000E+00 0. -1.
         22    1    3    3    0    0  0.70537369305E+02 -0.20439902482E+03 -0.21184668208E+03  0.30271025507E+03  0.00000000000E+00 0. -1.
         22    1    3    3    0    0 -0.82950164091E+01 -0.20077986143E+03 -0.82669597803E+02  0.21729156094E+03  0.00000000000E+00 0. -1.
</event>
<event>
 7    1  0.8792454E-005  0.3627075E+03  0.7818608E-02  0.1158247E+00
          2   -1    0    0  502    0  0.00000000000E+00  0.00000000000E+00  0.18477235687E+04  0.18477235687E+04  0.00000000000E+00 0. -1.
          1   -1    0    0  501    0 -0.00000000000E+00 -0.00000000000E+00 -0.10408088606E+04  0.10408088606E+04  0.00000000000E+00 0. -1.
         25    2    1    2    0    0  0.44319376635E+03 -0.52901215257E+02  0.65512405750E+03  0.80251506100E+03  0.12499455715E+03 0.  0.
          2    1    1    2  501    0 -0.34877139362E+03  0.85152010533E+02 -0.93142247522E+03  0.99821850176E+03  0.00000000000E+00 0. -1.
          1    1    1    2  502    0 -0.94422372724E+02 -0.32250795276E+02  0.10832131258E+04  0.10877988666E+04  0.00000000000E+00 0. -1.
         22    1    3    3    0    0  0.29948048947E+03  0.24133069487E+02  0.42593745654E+03  0.52124244407E+03  0.00000000000E+00 0.  1.
         22    1    3    3    0    0  0.14371327688E+03 -0.77034284743E+02  0.22918660097E+03  0.28127261694E+03  0.00000000000E+00 0.  1.
</event>
<event>
 7    1  0.8792454E-005  0.2913846E+03  0.7818608E-02  0.1198902E+00
          2   -1    0    0  502    0  0.00000000000E+00  0.00000000000E+00  0.25185554497E+03  0.25185554497E+03  0.00000000000E+00 0. -1.
          1   -1    0    0  501    0 -0.00000000000E+00 -0.00000000000E+00 -0.68976433307E+03  0.68976433307E+03  0.00000000000E+00 0. -1.
         25    2    1    2    0    0  0.18300051382E+03 -0.26715198992E+03  0.17044729669E+02  0.34752541541E+03  0.12499607104E+03 0.  0.
          2    1    1    2  501    0 -0.47665548031E+02  0.62430965294E+02 -0.28488570564E+03  0.29551564286E+03  0.00000000000E+00 0. -1.
          1    1    1    2  502    0 -0.13533496579E+03  0.20472102462E+03 -0.17006781213E+03  0.29857881976E+03  0.00000000000E+00 0. -1.
         22    1    3    3    0    0  0.72800102262E+02 -0.16856199820E+03 -0.41922378251E+02  0.18833610362E+03  0.00000000000E+00 0.  1.
         22    1    3    3    0    0  0.11020041156E+03 -0.98589991710E+02  0.58967107920E+02  0.15918931180E+03  0.00000000000E+00 0.  1.
</event>
<event>
 7    1  0.8792454E-005  0.3684786E+03  0.7818608E-02  0.1180822E+00
          2   -1    0    0  502    0  0.00000000000E+00  0.00000000000E+00  0.33143077422E+04  0.33143077422E+04  0.00000000000E+00 0. -1.
          1   -1    0    0  501    0 -0.00000000000E+00 -0.00000000000E+00 -0.74105251402E+02  0.74105251402E+02  0.00000000000E+00 0. -1.
         25    2    1    2    0    0  0.85080612770E+02 -0.35634388206E+03  0.70627369203E+03  0.80539844950E+03  0.12499784582E+03 0.  0.
          2    1    1    2  501    0 -0.12303860710E+02  0.37771356167E+03  0.15208538535E+04  0.15671041329E+04  0.00000000000E+00 0. -1.
          1    1    1    2  502    0 -0.72776752060E+02 -0.21369679607E+02  0.10130749453E+04  0.10159104112E+04  0.00000000000E+00 0. -1.
         22    1    3    3    0    0  0.10070493636E+03 -0.21914911442E+03  0.52298845130E+03  0.57592077472E+03  0.00000000000E+00 0.  1.
         22    1    3    3    0    0 -0.15624323590E+02 -0.13719476764E+03  0.18328524073E+03  0.22947767478E+03  0.00000000000E+00 0.  1.
</event>
<event>
 7    1  0.8792454E-005  0.2995237E+03  0.7818608E-02  0.1089281E+00
          2   -1    0    0  502    0  0.00000000000E+00  0.00000000000E+00  0.13139761216E+04  0.13139761216E+04  0.00000000000E+00 0. -1.
          1   -1    0    0  501    0 -0.00000000000E+00 -0.00000000000E+00 -0.62486194381E+03  0.62486194381E+03  0.00000000000E+00 0. -1.
         25    2    1    2    0    0  0.45348259888E+03  0.46426193398E+02 -0.19688113979E+03  0.51204445809E+03  0.12500193972E+03 0.  0.
          2    1    1    2  501    0 -0.23820613081E+03  0.15605750350E+03 -0.16902689685E+03  0.33115886975E+03  0.00000000000E+00 0. -1.
          1    1    1    2  502    0 -0.21527646807E+03 -0.20248369690E+03  0.10550222144E+04  0.10956347376E+04  0.00000000000E+00 0. -1.
         22    1    3    3    0    0  0.34058364823E+03  0.16722928106E+02 -0.87440442489E+02  0.35202657392E+03  0.00000000000E+00 0.  1.
         22    1    3    3    0    0  0.11289895065E+03  0.29703265293E+02 -0.10944069730E+03  0.16001788417E+03  0.00000000000E+00 0.  1.
</event>
<event>
 7    1  0.8792454E-005  0.4671141E+03  0.7818608E-02  0.1136552E+00
          2   -1    0    0  502    0  0.00000000000E+00  0.00000000000E+00  0.16621482585E+04  0.16621482585E+04  0.00000000000E+00 0. -1.
          1   -1    0    0  501    0 -0.00000000000E+00 -0.00000000000E+00 -0.37680406833E+03  0.37680406833E+03  0.00000000000E+00 0. -1.
         25    2    1    2    0    0 -0.18523953250E+03 -0.39652507316E+03  0.17039281271E+03  0.48600840182E+03  0.12499855188E+03 0.  0.
          2    1    1    2  501    0  0.12819952030E+03  0.47903326445E+03  0.67224921160E+02  0.50042699315E+03  0.00000000000E+00 0. -1.
          1    1    1    2  502    0  0.57040012195E+02 -0.82508191285E+02  0.10477264563E+04  0.10525169319E+04  0.00000000000E+00 0. -1.
         22    1    3    3    0    0 -0.76259438633E+02 -0.19829023916E+03  0.17916316237E+02  0.21320299086E+03  0.00000000000E+00 0.  1.
         22    1    3    3    0    0 -0.10898009387E+03 -0.19823483400E+03  0.15247649647E+03  0.27280541096E+03  0.00000000000E+00 0.  1.
</event>
<event>
 7    1  0.8792454E-005  0.2997766E+03  0.7818608E-02  0.1176165E+00
          2   -1    0    0  502    0  0.00000000000E+00  0.00000000000E+00  0.28472345665E+03  0.28472345665E+03  0.00000000000E+00 0. -1.
          1   -1    0    0  501    0 -0.00000000000E+00 -0.00000000000E+00 -0.83102240702E+03  0.83102240702E+03  0.00000000000E+00 0. -1.
         25    2    1    2    0    0  0.10556600445E+03 -0.19200324310E+03 -0.63827659879E+03  0.68631699515E+03  0.12499829843E+03 0.  0.
          2    1    1    2  501    0  0.17180586261E+02 -0.96741531568E+02 -0.11795638818E+02  0.98960767830E+02  0.00000000000E+00 0. -1.
          1    1    1    2  502    0 -0.12274659072E+03  0.28874477467E+03  0.10377328723E+03  0.33046810069E+03  0.00000000000E+00 0. -1.
         22    1    3    3    0    0  0.77474774333E+02 -0.52242565590E+02 -0.14212409623E+03  0.17009081412E+03  0.00000000000E+00 0. -1.
         22    1    3    3    0    0  0.28091230122E+02 -0.13976067751E+03 -0.49615250255E+03  0.51622618103E+03  0.00000000000E+00 0. -1.
</event>
<event>
 7    1  0.8792454E-005  0.4713923E+03  0.7818608E-02  0.1053524E+00
          2   -1    0    0  502    0  0.00000000000E+00  0.00000000000E+00  0.30194007072E+03  0.30194007072E+03  0.00000000000E+00 0. -1.
          1   -1    0    0  501    0 -0.00000000000E+00 -0.00000000000E+00 -0.14750088997E+04  0.14750088997E+04  0.00000000000E+00 0. -1.
         25    2    1    2    0    0 -0.31534542833E+03 -0.53944338849E+03 -0.50776488629E+03  0.81479626497E+03  0.12500346039E+03 0.  0.
          2    1    1    2  501    0  0.57464984410E+02  0.39564590699E+03 -0.38289355220E+03  0.55357509018E+03  0.00000000000E+00 0. -1.
          1    1    1    2  502    0  0.25788044392E+03  0.14379748150E+03 -0.28241039049E+03  0.40857761527E+03  0.00000000000E+00 0. -1.
         22    1    3    3    0    0 -0.22834371001E+03 -0.32269420977E+03 -0.25384991307E+03  0.46980015037E+03  0.00000000000E+00 0.  1.
         22    1    3    3    0    0 -0.87001718319E+02 -0.21674917872E+03 -0.25391497322E+03  0.34499611460E+03  0.00000000000E+00 0.  1.
</event>
<event>
 7    1  0.8792454E-005  0.6236986E+02  0.7818608E-02  0.1508270E+00
          2   -1    0    0  502    0  0.00000000000E+00  0.00000000000E+00  0.13248759407E+04  0.13248759407E+04  0.00000000000E+00 0. -1.
          1   -1    0    0  501    0 -0.00000000000E+00 -0.00000000000E+00 -0.35779684520E+02  0.35779684520E+02  0.00000000000E+00 0. -1.
         25    2    1    2    0    0  0.33003835124E+02  0.25000300549E+02  0.40554625142E+03  0.42638868744E+03  0.12500113031E+03 0.  0.
          2    1    1    2  501    0 -0.41991250381E+02 -0.49017013612E+02  0.16210681613E+02  0.66548620799E+02  0.00000000000E+00 0. -1.
          1    1    1    2  502    0  0.89874152569E+01  0.24016713063E+02  0.86733932319E+03  0.86771831702E+03  0.00000000000E+00 0. -1.
         22    1    3    3    0    0  0.61552714724E+02  0.35479290060E+02  0.12171461254E+03  0.14093247894E+03  0.00000000000E+00 0. -1.
         22    1    3    3    0    0 -0.28548879600E+02 -0.10478989511E+02  0.28383163888E+03  0.28545620851E+03  0.00000000000E+00 0. -1.
</event>
<event>
 7    1  0.8792454E-005  0.1091376E+03  0.7818608E-02  0.1311995E+00
          2   -1    0    0  502    0  0.00000000000E+00  0.00000000000E+00  0.13191139466E+04  0.13191139466E+04  0.00000000000E+00 0. -1.
          1   -1    0    0  501    0 -0.00000000000E+00 -0.00000000000E+00 -0.57960645043E+02  0.57960645043E+02  0.00000000000E+00 0. -1.
         25    2    1    2    0    0  0.95943253739E+02  0.10939220678E+03  0.83617207419E+03  0.85789273102E+03  0.12499774969E+03 0.  0.
          2    1    1    2  501    0 -0.65523907314E+02 -0.19225027902E+02 -0.14252945717E+02  0.69757656133E+02  0.00000000000E+00 0. -1.
          1    1    1    2  502    0 -0.30419346425E+02 -0.90167178878E+02  0.43923417312E+03  0.44942420453E+03  0.00000000000E+00 0. -1.
         22    1    3    3    0    0 -0.14659482725E+02 -0.11370106242E+02  0.30125259929E+02  0.35379528481E+02  0.00000000000E+00 0. -1.
         22    1    3    3    0    0  0.11060273646E+03  0.12076231302E+03  0.80604681426E+03  0.82251320254E+03  0.00000000000E+00 0. -1.
</event>
<event>
 7    1  0.8792454E-005  0.2163698E+03  0.7818608E-02  0.1262096E+00
          2   -1    0    0  502    0  0.00000000000E+00  0.00000000000E+00  0.93788109769E+03  0.93788109769E+03  0.00000000000E+00 0. -1.
          1   -1    0    0  501    0 -0.00000000000E+00 -0.00000000000E+00 -0.11290426364E+04  0.11290426364E+04  0.00000000000E+00 0. -1.
         25    2    1    2    0    0  0.31549234517E+02  0.25589055882E+03  0.29620629799E+03  0.41211522885E+03  0.12500183433E+03 0.  0.
          2    1    1    2  501    0  0.23942682671E+01 -0.55040094539E+02 -0.10525748648E+04  0.10540156500E+04  0.00000000000E+00 0. -1.
          1    1    1    2  502    0 -0.33943502784E+02 -0.20085046428E+03  0.56520702804E+03  0.60079285526E+03  0.00000000000E+00 0. -1.
         22    1    3    3    0    0 -0.18815361115E+02  0.97583789041E+02  0.19148231705E+03  0.21573616164E+03  0.00000000000E+00 0.  1.
         22    1    3    3    0    0  0.50364595632E+02  0.15830676978E+03  0.10472398094E+03  0.19637906720E+03  0.00000000000E+00 0.  1.
</event>
<event>
 7    1  0.8792454E-005  0.1545026E+03  0.7818608E-02  0.1354967E+00
          2   -1    0    0  502    0  0.00000000000E+00  0.00000000000E+00  0.19913535952E+04  0.19913535952E+04  0.00000000000E+00 0. -1.
          1   -1    0    0  501    0 -0.00000000000E+00 -0.00000000000E+00 -0.12592839310E+03  0.12592839310E+03  0.00000000000E+00 0. -1.
         25    2    1    2    0    0  0.15368203720E+03  0.10416055615E+03 -0.95242627435E+01  0.22401565036E+03  0.12499884004E+03 0.  0.
          2    1    1    2  501    0 -0.30998139311E+02 -0.11652939647E+02  0.40153172346E+02  0.52047602179E+02  0.00000000000E+00 0. -1.
          1    1    1    2  502    0 -0.12268389789E+03 -0.92507616506E+02  0.18347962925E+04  0.18412187358E+04  0.00000000000E+00 0. -1.
         22    1    3    3    0    0  0.36973019057E+01  0.29520200522E+02 -0.43864018149E+02  0.53001550623E+02  0.00000000000E+00 0.  1.
         22    1    3    3    0    0  0.14998473529E+03  0.74640355632E+02  0.34339755405E+02  0.17101409974E+03  0.00000000000E+00 0.  1.
</event>
<event>
 7    1  0.8792454E-005  0.4501873E+03  0.7818608E-02  0.1154571E+00
          2   -1    0    0  502    0  0.00000000000E+00  0.00000000000E+00  0.88940608931E+03  0.88940608931E+03  0.00000000000E+00 0. -1.
          1   -1    0    0  501    0 -0.00000000000E+00 -0.00000000000E+00 -0.97819225264E+03  0.97819225264E+03  0.00000000000E+00 0. -1.
         25    2    1    2    0    0 -0.44001607177E+03  0.10604508397E+03 -0.20446293928E+03  0.51214077350E+03  0.12499350019E+03 0.  0.
          2    1    1    2  501    0  0.41192201951E+03 -0.18513037345E+03 -0.53458044451E+03  0.69980658541E+03  0.00000000000E+00 0. -1.
          1    1    1    2  502    0  0.28094052260E+02  0.79085289484E+02  0.65025722046E+03  0.65565098303E+03  0.00000000000E+00 0. -1.
         22    1    3    3    0    0 -0.67717388142E+02  0.63404633984E+02 -0.60252794107E+02  0.11061731991E+03  0.00000000000E+00 0.  1.
         22    1    3    3    0    0 -0.37229868363E+03  0.42640449985E+02 -0.14421014517E+03  0.40152345359E+03  0.00000000000E+00 0.  1.
</event>
<event>
 7    1  0.8792454E-005  0.7186472E+03  0.7818608E-02  0.1116082E+00
          2   -1    0    0  502    0  0.00000000000E+00  0.00000000000E+00  0.89246243104E+03  0.89246243104E+03  0.00000000000E+00 0. -1.
          1   -1    0    0  501    0 -0.00000000000E+00 -0.00000000000E+00 -0.10195586104E+04  0.10195586104E+04  0.00000000000E+00 0. -1.
         25    2    1    2    0    0  0.56922578146E+03 -0.35284040814E+03  0.47084224604E+03  0.82814867565E+03  0.12499385757E+03 0.  0.
          2    1    1    2  501    0 -0.58826703863E+03  0.43462484673E+03 -0.65542395951E+03  0.98210866651E+03  0.00000000000E+00 0. -1.
          1    1    1    2  502    0  0.19041257170E+02 -0.81784438590E+02  0.57485534070E+02  0.10176369931E+03  0.00000000000E+00 0. -1.
         22    1    3    3    0    0  0.12788110398E+03 -0.25783691470E+02  0.69316280468E+02  0.14772651163E+03  0.00000000000E+00 0.  1.
         22    1    3    3    0    0  0.44134467748E+03 -0.32705671667E+03  0.40152596557E+03  0.68042216402E+03  0.00000000000E+00 0.  1.
</event>
<event>
 7    1  0.8792454E-005  0.3277295E+03  0.7818608E-02  0.1197419E+00
          2   -1    0    0  502    0  0.00000000000E+00  0.00000000000E+00  0.15771822555E+03  0.15771822555E+03  0.00000000000E+00 0. -1.
          1   -1    0    0  501    0 -0.00000000000E+00 -0.00000000000E+00 -0.15408157582E+04  0.15408157582E+04  0.00000000000E+00 0. -1.
         25    2    1    2    0    0  0.28321388386E+03  0.19926682187E+03 -0.41690833973E+03  0.55619530725E+03  0.12499314285E+03 0.  0.
          2    1    1    2  501    0  0.85810477260E+01 -0.70452708345E+02 -0.75828800406E+03  0.76160220299E+03  0.00000000000E+00 0. -1.
          1    1    1    2  502    0 -0.29179493159E+03 -0.12881411352E+03 -0.20790118889E+03  0.38073647354E+03  0.00000000000E+00 0. -1.
         22    1    3    3    0    0  0.10954859894E+03  0.92242390430E+01 -0.10852189573E+03  0.15447648355E+03  0.00000000000E+00 0. -1.
         22    1    3    3    0    0  0.17366528492E+03  0.19004258282E+03 -0.30838644401E+03  0.40171882370E+03  0.00000000000E+00 0. -1.
</event>
<event>
 7    1  0.8792454E-005  0.3682555E+03  0.7818608E-02  0.1210103E+00
          2   -1    0    0  502    0  0.00000000000E+00  0.00000000000E+00  0.37204814572E+03  0.37204814572E+03  0.00000000000E+00 0. -1.
          1   -1    0    0  501    0 -0.00000000000E+00 -0.00000000000E+00 -0.10485522162E+04  0.10485522162E+04  0.00000000000E+00 0. -1.
         25    2    1    2    0    0 -0.32111089437E+03 -0.21905441380E+03 -0.40313953203E+03  0.57379781223E+03  0.12500161740E+03 0.  0.
          2    1    1    2  501    0  0.49769053561E+02 -0.23606353115E+02 -0.44214117266E+03  0.44555923867E+03  0.00000000000E+00 0. -1.
          1    1    1    2  502    0  0.27134184081E+03  0.24266076691E+03  0.16877663422E+03  0.40124331101E+03  0.00000000000E+00 0. -1.
         22    1    3    3    0    0 -0.51981218917E+02 -0.11631819744E+01 -0.16022803068E+02  0.54407079784E+02  0.00000000000E+00 0.  1.
         22    1    3    3    0    0 -0.26912967545E+03 -0.21789123183E+03 -0.38711672896E+03  0.51939073245E+03  0.00000000000E+00 0.  1.
</event>
<event>
 7    1  0.8792454E-005  0.3382965E+03  0.7818608E-02  0.1247388E+00
          2   -1    0    0  502    0  0.00000000000E+00  0.00000000000E+00  0.24420536862E+04  0.24420536862E+04  0.00000000000E+00 0. -1.
          1   -1    0    0  501    0 -0.00000000000E+00 -0.00000000000E+00 -0.14943071559E+04  0.14943071559E+04  0.00000000000E+00 0. -1.
         25    2    1    2    0    0 -0.19745608359E+03  0.25115124578E+03 -0.37543033047E+03  0.50856648111E+03  0.12500431783E+03 0.  0.
          2    1    1    2  501    0 -0.39729111791E+02 -0.91379640072E+01 -0.10398226993E+04  0.10406215214E+04  0.00000000000E+00 0. -1.
          1    1    1    2  502    0  0.23718519538E+03 -0.24201328177E+03  0.23629995601E+04  0.23871728397E+04  0.00000000000E+00 0. -1.
         22    1    3    3    0    0 -0.53464670894E+02  0.15936501452E+03 -0.14655989570E+03  0.22301453297E+03  0.00000000000E+00 0.  1.
         22    1    3    3    0    0 -0.14399141270E+03  0.91786231253E+02 -0.22887043477E+03  0.28555194815E+03  0.00000000000E+00 0.  1.
</event>
<event>
 7    1  0.8792454E-005  0.2598189E+03  0.7818608E-02  0.1204951E+00
          2   -1    0    0  502    0  0.00000000000E+00  0.00000000000E+00  0.33386068590E+03  0.33386068590E+03  0.00000000000E+00 0. -1.
          1   -1    0    0  501    0 -0.00000000000E+00 -0.00000000000E+00 -0.32207048781E+03  0.32207048781E+03  0.00000000000E+00 0. -1.
         25    2    1    2    0    0 -0.16670819571E+03  0.13245279953E+03  0.11323732410E+03  0.27162978412E+03  0.12499872573E+03 0.  0.
          2    1    1    2  501    0  0.19329582208E+03 -0.21055868494E+03 -0.96371105175E+02  0.30163823456E+03  0.00000000000E+00 0. -1.
          1    1    1    2  502    0 -0.26587626367E+02  0.78105885412E+02 -0.50760208295E+01  0.82663155028E+02  0.00000000000E+00 0. -1.
         22    1    3    3    0    0 -0.13883429257E+03  0.34277334169E+02  0.49608853985E+02  0.15136358487E+03  0.00000000000E+00 0.  1.
         22    1    3    3    0    0 -0.27873903148E+02  0.98175465358E+02  0.63628470113E+02  0.12026619926E+03  0.00000000000E+00 0.  1.
</event>
<event>
 7    1  0.8792454E-005  0.4390307E+03  0.7818608E-02  0.1153065E+00
          2   -1    0    0  502    0  0.00000000000E+00  0.00000000000E+00  0.25383961770E+04  0.25383961770E+04  0.00000000000E+00 0. -1.
          1   -1    0    0  501    0 -0.00000000000E+00 -0.00000000000E+00 -0.21406756971E+03  0.21406756971E+03  0.00000000000E+00 0. -1.
         25    2    1    2    0    0 -0.24271115937E+03  0.27030904808E+03  0.17488215606E+04  0.17905244990E+04  0.12500176929E+03 0.  0.
          2    1    1    2  501    0  0.29421928190E+03 -0.34116325697E+03  0.78529940193E+02  0.45730111005E+03  0.00000000000E+00 0. -1.
          1    1    1    2  502    0 -0.51508122527E+02  0.70854208894E+02  0.49697710642E+03  0.50463813759E+03  0.00000000000E+00 0. -1.
         22    1    3    3    0    0 -0.22295987825E+03  0.28268929917E+03  0.16105396515E+04  0.16502915852E+04  0.00000000000E+00 0.  1.
         22    1    3    3    0    0 -0.19751281126E+02 -0.12380251090E+02  0.13828190918E+03  0.14023291386E+03  0.00000000000E+00 0.  1.
</event>
<event>
 7    1  0.8792454E-005  0.1852036E+03  0.7818608E-02  0.1235891E+00
          2   -1    0    0  502    0  0.00000000000E+00  0.00000000000E+00  0.31773704787E+02  0.31773704787E+02  0.00000000000E+00 0. -1.
          1   -1    0    0  501    0 -0.00000000000E+00 -0.00000000000E+00 -0.26892308835E+04  0.26892308835E+04  0.00000000000E+00 0. -1.
         25    2    1    2    0    0 -0.64054810436E+01 -0.18069733363E+03 -0.12722479412E+04  0.12910976498E+04  0.12500304304E+03 0.  0.
          2    1    1    2  501    0  0.83485859097E+02  0.54040099724E+01 -0.95916347823E+03  0.96280510487E+03  0.00000000000E+00 0. -1.
          1    1    1    2  502    0 -0.77080378053E+02  0.17529332365E+03 -0.42604575924E+03  0.46710183362E+03  0.00000000000E+00 0. -1.
         22    1    3    3    0    0 -0.26944722572E+02 -0.18435205610E+03 -0.94532502457E+03  0.96350978238E+03  0.00000000000E+00 0. -1.
         22    1    3    3    0    0  0.20539241528E+02  0.36547224719E+01 -0.32692291665E+03  0.32758786741E+03  0.00000000000E+00 0. -1.
</event>
<event>
 7    1  0.8792454E-005  0.8741518E+02  0.7818608E-02  0.1354849E+00
          2   -1    0    0  502    0  0.00000000000E+00  0.00000000000E+00  0.71212783351E+03  0.71212783351E+03  0.00000000000E+00 0. -1.
          1   -1    0    0  501    0 -0.00000000000E+00 -0.00000000000E+00 -0.49374680439E+02  0.49374680439E+02  0.00000000000E+00 0. -1.
         25    2    1    2    0    0  0.31921929120E+02 -0.41572939184E+02  0.31386834044E+03  0.34188274868E+03  0.12499263931E+03 0.  0.
          2    1    1    2  501    0 -0.10243532340E+02  0.96004326270E+02  0.38809001009E+02  0.10405719185E+03  0.00000000000E+00 0. -1.
          1    1    1    2  502    0 -0.21678396780E+02 -0.54431387086E+02  0.31007581163E+03  0.31556257342E+03  0.00000000000E+00 0. -1.
         22    1    3    3    0    0 -0.41973260827E+02 -0.43549596633E+02  0.11956652659E+03  0.13399431433E+03  0.00000000000E+00 0.  1.
         22    1    3    3    0    0  0.73895189947E+02  0.19766574486E+01  0.19430181384E+03  0.20788843435E+03  0.00000000000E+00 0.  1.
</event>
<event>
 7    1  0.8792454E-005  0.3731814E+03  0.7818608E-02  0.1076875E+00
          2   -1    0    0  502    0  0.00000000000E+00  0.00000000000E+00  0.82112241124E+03  0.82112241124E+03  0.00000000000E+00 0. -1.
          1   -1    0    0  501    0 -0.00000000000E+00 -0.00000000000E+00 -0.20365142714E+04  0.20365142714E+04  0.00000000000E+00 0. -1.
         25    2    1    2    0    0 -0.26376708200E+03  0.51629962116E+03 -0.43974060034E+03  0.73833304693E+03  0.12500208093E+03 0.  0.
          2    1    1    2  501    0  0.57628433202E+02 -0.34211789917E+03 -0.13982932685E+04  0.14406907225E+04  0.00000000000E+00 0. -1.
          1    1    1    2  502    0  0.20613864880E+03 -0.17418172200E+03  0.62264200874E+03  0.67861291312E+03  0.00000000000E+00 0. -1.
         22    1    3    3    0    0 -0.10761109459E+03  0.33613378457E+03 -0.23449811839E+03  0.42373982151E+03  0.00000000000E+00 0. -1.
         22    1    3    3    0    0 -0.15615598741E+03  0.18016583660E+03 -0.20524248195E+03  0.31459322542E+03  0.00000000000E+00 0. -1.
</event>
<event>
 7    1  0.8792454E-005  0.5166561E+03  0.7818608E-02  0.1018708E+00
          2   -1    0    0  502    0  0.00000000000E+00  0.00000000000E+00  0.15828225721E+04  0.15828225721E+04  0.00000000000E+00 0. -1.
          1   -1    0    0  501    0 -0.00000000000E+00 -0.00000000000E+00 -0.65451115768E+03  0.65451115768E+03  0.00000000000E+00 0. -1.
         25    2    1    2    0    0 -0.12309924146E+03 -0.44529835874E+03  0.22985752575E+03  0.53094661722E+03  0.12500310657E+03 0.  0.
          2    1    1    2  501    0  0.50930484345E+03  0.86845179012E+02 -0.28545447718E+03  0.59026923283E+03  0.00000000000E+00 0. -1.
          1    1    1    2  502    0 -0.38620560200E+03  0.35845317973E+03  0.98390836589E+03  0.11161178798E+04  0.00000000000E+00 0. -1.
         22    1    3    3    0    0 -0.62277491266E+02 -0.73707559724E+02  0.81250932672E+02  0.12614675715E+03  0.00000000000E+00 0. -1.
         22    1    3    3    0    0 -0.60821750189E+02 -0.37159079901E+03  0.14860659308E+03  0.40479986007E+03  0.00000000000E+00 0. -1.
</event>
<event>
 7    1  0.8792454E-005  0.5649923E+03  0.7818608E-02  0.1103029E+00
          2   -1    0    0  502    0  0.00000000000E+00  0.00000000000E+00  0.28649301062E+04  0.28649301062E+04  0.00000000000E+00 0. -1.
          1   -1    0    0  501    0 -0.00000000000E+00 -0.00000000000E+00 -0.20064325392E+04  0.20064325392E+04  0.00000000000E+00 0. -1.
         25    2    1    2    0    0  0.49128657043E+03  0.40147702836E+03 -0.62180365324E+03  0.89711282004E+03  0.12500132043E+03 0.  0.
          2    1    1    2  501    0 -0.12372783734E+03  0.24568744127E+02 -0.12146502682E+04  0.12211828179E+04  0.00000000000E+00 0. -1.
          1    1    1    2  502    0 -0.36755873309E+03 -0.42604577249E+03  0.26949514884E+04  0.27530670074E+04  0.00000000000E+00 0. -1.
         22    1    3    3    0    0  0.25542001629E+03  0.23921720682E+03 -0.26118933900E+03  0.43667393736E+03  0.00000000000E+00 0.  1.
         22    1    3    3    0    0  0.23586655414E+03  0.16225982154E+03 -0.36061431424E+03  0.46043888268E+03  0.00000000000E+00 0.  1.
</event>
<event>
 7    1  0.8792454E-005  0.1493647E+03  0.7818608E-02  0.1302540E+00
          2   -1    0    0  502    0  0.00000000000E+00  0.00000000000E+00  0.23328688340E+04  0.23328688340E+04  0.00000000000E+00 0. -1.
          1   -1    0    0  501    0 -0.00000000000E+00 -0.00000000000E+00 -0.14582060792E+03  0.14582060792E+03  0.00000000000E+00 0. -1.
         25    2    1    2    0    0 -0.14000556602E+03  0.87074960710E+02 -0.29341297229E+02  0.20897222376E+03  0.12499948511E+03 0.  0.
          2    1    1    2  501    0 -0.55311020626E+01 -0.54103037546E+02  0.64737751659E+01  0.54768983254E+02  0.00000000000E+00 0. -1.
          1    1    1    2  502    0  0.14553666809E+03 -0.32971923164E+02  0.22099157481E+04  0.22149482349E+04  0.00000000000E+00 0. -1.
         22    1    3    3    0    0 -0.23318227168E+00 -0.73238766195E+01  0.29455959381E+02  0.30353699705E+02  0.00000000000E+00 0.  1.
         22    1    3    3    0    0 -0.13977238375E+03  0.94398837329E+02 -0.58797256610E+02  0.17861852405E+03  0.00000000000E+00 0.  1.
</event>
<event>
 7    1  0.8792454E-005  0.2040948E+03  0.7818608E-02  0.1265184E+00
          2   -1    0    0  502    0  0.00000000000E+00  0.00000000000E+00  0.77348398893E+02  0.77348398893E+02  0.00000000000E+00 0. -1.
          1   -1    0    0  501    0 -0.00000000000E+00 -0.00000000000E+00 -0.27523724944E+04  0.27523724944E+04  0.00000000000E+00 0. -1.
         25    2    1    2    0    0 -0.15105723726E+03 -0.39560508685E+02 -0.16558788443E+04  0.16679157724E+04  0.12499981605E+03 0.  0.
          2    1    1    2  501    0 -0.43126306294E+02 -0.36763941341E+02 -0.93518541895E+03  0.93690086642E+03  0.00000000000E+00 0. -1.
          1    1    1    2  502    0  0.19418354355E+03  0.76324450026E+02 -0.83959832276E+02  0.22490425450E+03  0.00000000000E+00 0. -1.
         22    1    3    3    0    0 -0.17228691691E+03 -0.30941604133E+02 -0.13735509813E+04  0.13846596921E+04  0.00000000000E+00 0. -1.
         22    1    3    3    0    0  0.21229679657E+02 -0.86189045521E+01 -0.28232786293E+03  0.28325608025E+03  0.00000000000E+00 0. -1.
</event>
<event>
 7    1  0.8792454E-005  0.5196151E+03  0.7818608E-02  0.1017323E+00
          2   -1    0    0  502    0  0.00000000000E+00  0.00000000000E+00  0.84810366999E+03  0.84810366999E+03  0.00000000000E+00 0. -1.
          1   -1    0    0  501    0 -0.00000000000E+00 -0.00000000000E+00 -0.16593516212E+04  0.16593516212E+04  0.00000000000E+00 0. -1.
         25    2    1    2    0    0 -0.65123806240E+03  0.38639736722E+03  0.17108367467E+03  0.78632697263E+03  0.12500617919E+03 0.  0.
          2    1    1    2  501    0  0.20222889039E+03 -0.46466162067E+03 -0.11329381911E+04  0.12411107487E+04  0.00000000000E+00 0. -1.
          1    1    1    2  502    0  0.44900917200E+03  0.78264253453E+02  0.15060656516E+03  0.48001756987E+03  0.00000000000E+00 0. -1.
         22    1    3    3    0    0 -0.30804884301E+03  0.11103249936E+03  0.76778215317E+02  0.33632900550E+03  0.00000000000E+00 0.  1.
         22    1    3    3    0    0 -0.34318921939E+03  0.27536486786E+03  0.94305459348E+02  0.44999796713E+03  0.00000000000E+00 0.  1.
</event>
<event>
 7    1  0.8792454E-005  0.1322392E+03  0.7818608E-02  0.1245818E+00
          2   -1    0    0  502    0  0.00000000000E+00  0.00000000000E+00  0.27489297906E+04  0.27489297906E+04  0.00000000000E+00 0. -1.
          1   -1    0    0  501    0 -0.00000000000E+00 -0.00000000000E+00 -0.43479207010E+03  0.43479207010E+03  0.00000000000E+00 0. -1.
         25    2    1    2    0    0  0.15238552529E+03  0.72270997352E+02 -0.57098625060E+02  0.21755160389E+03  0.12499600792E+03 0.  0.
          2    1    1    2  501    0 -0.12759089753E+03  0.30734443155E+02 -0.28188244171E+03  0.31093689726E+03  0.00000000000E+00 0. -1.
          1    1    1    2  502    0 -0.24794627754E+02 -0.10300544051E+03  0.26531187873E+04  0.26552333596E+04  0.00000000000E+00 0. -1.
         22    1    3    3    0    0  0.14333985723E+03  0.83492499052E+02 -0.76659334786E+01  0.16606046671E+03  0.00000000000E+00 0. -1.
         22    1    3    3    0    0  0.90456680623E+01 -0.11221501699E+02 -0.49432691581E+02  0.51491137180E+02  0.00000000000E+00 0. -1.
</event>
<event>
 7    1  0.8792454E-005  0.7683595E+02  0.7818608E-02  0.1414958E+00
          2   -1    0    0  502    0  0.00000000000E+00  0.00000000000E+00  0.12430593991E+04  0.12430593991E+04  0.00000000000E+00 0. -1.
          1   -1    0    0  501    0 -0.00000000000E+00 -0.00000000000E+00 -0.45107381413E+03  0.45107381413E+03  0.00000000000E+00 0. -1.
         25    2    1    2    0    0 -0.10779991504E+03  0.43820803738E+02  0.40929214371E+02  0.17561573239E+03  0.12499840140E+03 0.  0.
          2    1    1    2  501    0  0.69133191435E+02 -0.30297830259E+02 -0.37964425877E+03  0.38707508302E+03  0.00000000000E+00 0. -1.
          1    1    1    2  502    0  0.38666723601E+02 -0.13522973479E+02  0.11307006293E+04  0.11314423978E+04  0.00000000000E+00 0. -1.
         22    1    3    3    0    0 -0.11088326832E+03 -0.13667181320E+02  0.37861339855E+02  0.11796343541E+03  0.00000000000E+00 0.  1.
         22    1    3    3    0    0  0.30833532806E+01  0.57487985058E+02  0.30678745165E+01  0.57652296984E+02  0.00000000000E+00 0.  1.
</event>
<event>
 7    1  0.8792454E-005  0.2681944E+03  0.7818608E-02  0.1127240E+00
          2   -1    0    0  502    0  0.00000000000E+00  0.00000000000E+00  0.28001986490E+03  0.28001986490E+03  0.00000000000E+00 0. -1.
          1   -1    0    0  501    0 -0.00000000000E+00 -0.00000000000E+00 -0.12297232049E+04  0.12297232049E+04  0.00000000000E+00 0. -1.
         25    2    1    2    0    0 -0.16749457795E+03  0.20754964619E+03  0.11036847665E+03  0.31454283563E+03  0.12499882214E+03 0.  0.
          2    1    1    2  501    0 -0.15070742641E+03 -0.12498188604E+03 -0.58957398874E+03  0.62123319970E+03  0.00000000000E+00 0. -1.
          1    1    1    2  502    0  0.31820200436E+03 -0.82567760148E+02 -0.47049782794E+03  0.57396703450E+03  0.00000000000E+00 0. -1.
         22    1    3    3    0    0 -0.16760508744E+03  0.14003565264E+03  0.50184528461E+02  0.22409805051E+03  0.00000000000E+00 0.  1.
         22    1    3    3    0    0  0.11050948847E+00  0.67513993543E+02  0.60183948188E+02  0.90444785123E+02  0.00000000000E+00 0.  1.
</event>
<event>
 7    1  0.8792454E-005  0.1679142E+03  0.7818608E-02  0.1182700E+00
          2   -1    0    0  502    0  0.00000000000E+00  0.00000000000E+00  0.28855697466E+04  0.28855697466E+04  0.00000000000E+00 0. -1.
          1   -1    0    0  501    0 -0.00000000000E+00 -0.00000000000E+00 -0.93287518990E+02  0.93287518990E+02  0.00000000000E+00 0. -1.
         25    2    1    2    0    0 -0.23240061198E+03 -0.41387681105E+02  0.57961098452E+03  0.63819606992E+03  0.12498938231E+03 0.  0.
          2    1    1    2  501    0  0.13762952789E+03 -0.91207186086E+02  0.50929682333E+02  0.17278446193E+03  0.00000000000E+00 0. -1.
          1    1    1    2  502    0  0.94771084084E+02  0.13259486719E+03  0.21617415608E+04  0.21678767337E+04  0.00000000000E+00 0. -1.
         22    1    3    3    0    0 -0.88576239956E+02 -0.29402208789E+02  0.38356385556E+03  0.39475495115E+03  0.00000000000E+00 0. -1.
         22    1    3    3    0    0 -0.14382437202E+03 -0.11985472316E+02  0.19604712896E+03  0.24344111877E+03  0.00000000000E+00 0. -1.
</event>
<event>
 7    1  0.8792454E-005  0.6827338E+02  0.7818608E-02  0.1450359E+00
          2   -1    0    0  502    0  0.00000000000E+00  0.00000000000E+00  0.86038877013E+03  0.86038877013E+03  0.00000000000E+00 0. -1.
          1   -1    0    0  501    0 -0.00000000000E+00 -0.00000000000E+00 -0.68649616703E+03  0.68649616703E+03  0.00000000000E+00 0. -1.
         25    2    1    2    0    0  0.49904523288E+02 -0.20981518744E+02  0.12927589448E+03  0.18779724970E+03  0.12499945812E+03 0.  0.
          2    1    1    2  501    0  0.19062588299E+02  0.29692240642E+02 -0.65503821994E+03  0.65598786651E+03  0.00000000000E+00 0. -1.
          1    1    1    2  502    0 -0.68967111587E+02 -0.87107218982E+01  0.69965492856E+03  0.70309982095E+03  0.00000000000E+00 0. -1.
         22    1    3    3    0    0  0.76074568511E+02 -0.43947311318E+02  0.12490085961E+03  0.15270537278E+03  0.00000000000E+00 0. -1.
         22    1    3    3    0    0 -0.26170045223E+02  0.22965792574E+02  0.43750348700E+01  0.35091876918E+02  0.00000000000E+00 0. -1.
</event>
<event>
 7    1  0.8792454E-005  0.1770469E+03  0.7818608E-02  0.1283804E+00
          2   -1    0    0  502    0  0.00000000000E+00  0.00000000000E+00  0.48117020163E+03  0.48117020163E+03  0.00000000000E+00 0. -1.
          1   -1    0    0  501    0 -0.00000000000E+00 -0.00000000000E+00 -0.37178276971E+03  0.37178276971E+03  0.00000000000E+00 0. -1.
         25    2    1    2    0    0  0.13703651690E+03  0.73653389735E+02  0.16088681086E+03  0.25634594136E+03  0.12499938785E+03 0.  0.
          2    1    1    2  501    0 -0.17672674773E+03 -0.36109750829E+02 -0.29569774095E+03  0.34637178215E+03  0.00000000000E+00 0. -1.
          1    1    1    2  502    0  0.39690230830E+02 -0.37543638906E+02  0.24419836201E+03  0.25023524783E+03  0.00000000000E+00 0. -1.
         22    1    3    3    0    0  0.14928059330E+03  0.27648017800E+02  0.11825202287E+03  0.19243868982E+03  0.00000000000E+00 0. -1.
         22    1    3    3    0    0 -0.12244076405E+02  0.46005371935E+02  0.42634787983E+02  0.63907251547E+02  0.00000000000E+00 0. -1.
</event>
<event>
 7    1  0.8792454E-005  0.8472642E+03  0.7818608E-02  0.1124885E+00
          2   -1    0    0  502    0  0.00000000000E+00  0.00000000000E+00  0.21023734692E+04  0.21023734692E+04  0.00000000000E+00 0. -1.
          1   -1    0    0  501    0 -0.00000000000E+00 -0.00000000000E+00 -0.62286090030E+03  0.62286090030E+03  0.00000000000E+00 0. -1.
         25    2    1    2    0    0 -0.64237483331E+01 -0.83279036850E+03  0.23526904690E+03  0.87439039167E+03  0.12500388079E+03 0.  0.
          2    1    1    2  501    0  0.63149748058E+02  0.86200525140E+03  0.31578611125E+03  0.92019661605E+03  0.00000000000E+00 0. -1.
          1    1    1    2  502    0 -0.56725999725E+02 -0.29214882899E+02  0.92845741072E+03  0.93064736176E+03  0.00000000000E+00 0. -1.
         22    1    3    3    0    0  0.10277823169E+01 -0.37288835551E+03  0.17002596205E+03  0.40982387654E+03  0.00000000000E+00 0. -1.
         22    1    3    3    0    0 -0.74515306499E+01 -0.45990201299E+03  0.65243084847E+02  0.46456651513E+03  0.00000000000E+00 0. -1.
</event>
<event>
 7    1  0.8792454E-005  0.5913533E+02  0.7818608E-02  0.1462611E+00
          2   -1    0    0  502    0  0.00000000000E+00  0.00000000000E+00  0.56467033525E+03  0.56467033525E+03  0.00000000000E+00 0. -1.
          1   -1    0    0  501    0 -0.00000000000E+00 -0.00000000000E+00 -0.58284916350E+03  0.58284916350E+03  0.00000000000E+00 0. -1.
         25    2    1    2    0    0  0.31043015873E+02  0.72224934085E+02 -0.90963986250E+02  0.17343859981E+03  0.12500556456E+03 0.  0.
          2    1    1    2  501    0 -0.34778179728E+02 -0.13347898071E+02 -0.44821040704E+03  0.44975577500E+03  0.00000000000E+00 0. -1.
          1    1    1    2  502    0  0.37351638549E+01 -0.58877036014E+02  0.52099556503E+03  0.52432512395E+03  0.00000000000E+00 0. -1.
         22    1    3    3    0    0 -0.36813725739E+02 -0.12358035675E+02 -0.18479319776E+02  0.43005310229E+02  0.00000000000E+00 0. -1.
         22    1    3    3    0    0  0.67856741612E+02  0.84582969760E+02 -0.72484666475E+02  0.13043328958E+03  0.00000000000E+00 0. -1.
</event>
<event>
 7    1  0.8792454E-005  0.3451173E+03  0.7818608E-02  0.1067576E+00
          2   -1    0    0  502    0  0.00000000000E+00  0.00000000000E+00  0.11411137013E+04  0.11411137013E+04  0.00000000000E+00 0. -1.
          1   -1    0    0  501    0 -0.00000000000E+00 -0.00000000000E+00 -0.10542383383E+04  0.10542383383E+04  0.00000000000E+00 0. -1.
         25    2    1    2    0    0  0.26807342152E+03  0.17301774238E+03  0.11819078311E+03  0.36248096792E+03  0.12499956956E+03 0.  0.
          2    1    1    2  501    0 -0.33770674390E+03  0.15095344062E+03 -0.86227825912E+03  0.93827319170E+03  0.00000000000E+00 0. -1.
          1    1    1    2  502    0  0.69633322386E+02 -0.32397118300E+03  0.83096283902E+03  0.89459787996E+03  0.00000000000E+00 0. -1.
         22    1    3    3    0    0  0.67051220290E+02  0.23329612932E+02 -0.23236104412E+02  0.74699755891E+02  0.00000000000E+00 0.  1.
         22    1    3    3    0    0  0.20102220123E+03  0.14968812945E+03  0.14142688752E+03  0.28778121203E+03  0.00000000000E+00 0.  1.
</event>
<event>
 7    1  0.8792454E-005  0.1207377E+03  0.7818608E-02  0.1341301E+00
          2   -1    0    0  502    0  0.00000000000E+00  0.00000000000E+00  0.64948385473E+03  0.64948385473E+03  0.00000000000E+00 0. -1.
          1   -1    0    0  501    0 -0.00000000000E+00 -0.00000000000E+00 -0.96514583798E+03  0.96514583798E+03  0.00000000000E+00 0. -1.
         25    2    1    2    0    0  0.59558874318E+02  0.11795556864E+03 -0.60330178507E+02  0.19164190445E+03  0.12500445360E+03 0.  0.
          2    1    1    2  501    0 -0.89407118214E+02 -0.80834094324E+02 -0.83384783199E+03  0.84251408920E+03  0.00000000000E+00 0. -1.
          1    1    1    2  502    0  0.29848243896E+02 -0.37121474316E+02  0.57851602724E+03  0.58047369906E+03  0.00000000000E+00 0. -1.
         22    1    3    3    0    0 -0.52539275562E+01  0.70656400803E+02 -0.82158222045E+02  0.10848918923E+03  0.00000000000E+00 0.  1.
         22    1    3    3    0    0  0.64812801874E+02  0.47299167837E+02  0.21828043538E+02  0.83152715227E+02  0.00000000000E+00 0.  1.
</event>
<event>
 7    1  0.8792454E-005  0.1312261E+03  0.7818608E-02  0.1377854E+00
          2   -1    0    0  502    0  0.00000000000E+00  0.00000000000E+00  0.65790030526E+03  0.65790030526E+03  0.00000000000E+00 0. -1.
          1   -1    0    0  501    0 -0.00000000000E+00 -0.00000000000E+00 -0.61047015366E+02  0.61047015366E+02  0.00000000000E+00 0. -1.
         25    2    1    2    0    0 -0.15050924624E+02  0.14262055022E+03  0.47370787975E+03  0.51048120926E+03  0.12499903198E+03 0.  0.
          2    1    1    2  501    0  0.40329121464E+02 -0.12263033997E+03  0.71443639802E+02  0.14754264464E+03  0.00000000000E+00 0. -1.
          1    1    1    2  502    0 -0.25278196840E+02 -0.19990210250E+02  0.51701770341E+02  0.60923466724E+02  0.00000000000E+00 0. -1.
         22    1    3    3    0    0  0.35434741299E+02  0.10207844833E+03  0.38977727366E+03  0.40447738325E+03  0.00000000000E+00 0. -1.
         22    1    3    3    0    0 -0.50485665923E+02  0.40542101888E+02  0.83930606091E+02  0.10600382601E+03  0.00000000000E+00 0. -1.
</event>
<event>
 7    1  0.8792454E-005  0.1690934E+03  0.7818608E-02  0.1238594E+00
          2   -1    0    0  502    0  0.00000000000E+00  0.00000000000E+00  0.59577180009E+03  0.59577180009E+03  0.00000000000E+00 0. -1.
          1   -1    0    0  501    0 -0.00000000000E+00 -0.00000000000E+00 -0.39573601833E+03  0.39573601833E+03  0.00000000000E+00 0. -1.
         25    2    1    2    0    0 -0.22378340504E+02  0.21944098300E+03  0.18047287173E+03  0.31121078105E+03  0.12500623053E+03 0.  0.
          2    1    1    2  501    0 -0.43943393569E+02 -0.15988322037E+03 -0.30313144185E+03  0.34551749164E+03  0.00000000000E+00 0. -1.
          1    1    1    2  502    0  0.66321734073E+02 -0.59557762627E+02  0.32269435188E+03  0.33477954573E+03  0.00000000000E+00 0. -1.
         22    1    3    3    0    0  0.18120707061E+02  0.18020877598E+02  0.77087890441E+02  0.81213637441E+02  0.00000000000E+00 0. -1.
         22    1    3    3    0    0 -0.40499047565E+02  0.20142010540E+03  0.10338498128E+03  0.22999714361E+03  0.00000000000E+00 0. -1.
</event>
<event>
 7    1  0.8792454E-005  0.1995533E+03  0.7818608E-02  0.1198855E+00
          2   -1    0    0  502    0  0.00000000000E+00  0.00000000000E+00  0.24393402063E+04  0.24393402063E+04  0.00000000000E+00 0. -1.
          1   -1    0    0  501    0 -0.00000000000E+00 -0.00000000000E+00 -0.31875262336E+03  0.31875262336E+03  0.00000000000E+00 0. -1.
         25    2    1    2    0    0  0.29136162324E+02 -0.25502601276E+03  0.26554980009E+03  0.38990831935E+03  0.12499847213E+03 0.  0.
          2    1    1    2  501    0  0.62024390284E+02  0.18532815736E+03 -0.21753953191E+03  0.29243289631E+03  0.00000000000E+00 0. -1.
          1    1    1    2  502    0 -0.91160552608E+02  0.69697855393E+02  0.20725773147E+04  0.20757516140E+04  0.00000000000E+00 0. -1.
         22    1    3    3    0    0  0.23236471258E+02 -0.87229793492E+02  0.20027494813E+02  0.92466594064E+02  0.00000000000E+00 0. -1.
         22    1    3    3    0    0  0.58996910657E+01 -0.16779621926E+03  0.24552230528E+03  0.29744172529E+03  0.00000000000E+00 0. -1.
</event>
<event>
 7    1  0.8792454E-005  0.7655471E+02  0.7818608E-02  0.1438369E+00
          2   -1    0    0  502    0  0.00000000000E+00  0.00000000000E+00  0.40003257202E+03  0.40003257202E+03  0.00000000000E+00 0. -1.
          1   -1    0    0  501    0 -0.00000000000E+00 -0.00000000000E+00 -0.11221633827E+03  0.11221633827E+03  0.00000000000E+00 0. -1.
         25    2    1    2    0    0  0.39498817980E+02  0.78352948444E+02  0.27710428303E+03  0.31640147107E+03  0.12499506419E+03 0.  0.
          2    1    1    2  501    0 -0.33677861517E+02 -0.70027890015E+01 -0.75988839385E+02  0.83411876381E+02  0.00000000000E+00 0. -1.
          1    1    1    2  502    0 -0.58209564628E+01 -0.71350159443E+02  0.86700790099E+02  0.11243556284E+03  0.00000000000E+00 0. -1.
         22    1    3    3    0    0  0.34700428985E+02 -0.87749605745E+01  0.18914486651E+03  0.19250168890E+03  0.00000000000E+00 0. -1.
         22    1    3    3    0    0  0.47983889950E+01  0.87127909019E+02  0.87959416521E+02  0.12389978217E+03  0.00000000000E+00 0. -1.
</event>
<event>
 7    1  0.8792454E-005  0.4970822E+02  0.7818608E-02  0.1571194E+00
          2   -1    0    0  502    0  0.00000000000E+00  0.00000000000E+00  0.86124816752E+02  0.86124816752E+02  0.00000000000E+00 0. -1.
          1   -1    0    0  501    0 -0.00000000000E+00 -0.00000000000E+00 -0.16568886181E+03  0.16568886181E+03  0.00000000000E+00 0. -1.
         25    2    1    2    0    0  0.62961897652E+01 -0.64316341038E+02 -0.10607589871E+03  0.17621823097E+03  0.12499813962E+03 0.  0.
          2    1    1    2  501    0  0.95322266004E+01  0.19109585303E+02  0.15665980684E+02  0.26485138195E+02  0.00000000000E+00 0. -1.
          1    1    1    2  502    0 -0.15828416366E+02  0.45206755735E+02  0.10845872969E+02  0.49110309398E+02  0.00000000000E+00 0. -1.
         22    1    3    3    0    0 -0.10399310350E+02 -0.75678465071E+02 -0.88308659276E+01  0.76898374003E+02  0.00000000000E+00 0.  1.
         22    1    3    3    0    0  0.16695500115E+02  0.11362124033E+02 -0.97245032780E+02  0.99319856963E+02  0.00000000000E+00 0.  1.
</event>
<event>
 7    1  0.8792454E-005  0.4558770E+03  0.7818608E-02  0.1115010E+00
          2   -1    0    0  502    0  0.00000000000E+00  0.00000000000E+00  0.16534703311E+04  0.16534703311E+04  0.00000000000E+00 0. -1.
          1   -1    0    0  501    0 -0.00000000000E+00 -0.00000000000E+00 -0.62524479528E+03  0.62524479528E+03  0.00000000000E+00 0. -1.
         25    2    1    2    0    0  0.26717082700E+03  0.33781194549E+03  0.44420851695E+03  0.63122315402E+03  0.12499720923E+03 0.  0.
          2    1    1    2  501    0 -0.38012137669E+03 -0.26538769970E+03 -0.42540004414E+03  0.62919638407E+03  0.00000000000E+00 0. -1.
          1    1    1    2  502    0  0.11295054969E+03 -0.72424245795E+02  0.10094170630E+04  0.10182955883E+04  0.00000000000E+00 0. -1.
         22    1    3    3    0    0  0.78754050521E+02  0.75191176982E+02  0.45625744428E+02  0.11805770675E+03  0.00000000000E+00 0.  1.
         22    1    3    3    0    0  0.18841677648E+03  0.26262076851E+03  0.39858277252E+03  0.51316544726E+03  0.00000000000E+00 0.  1.
</event>
<event>
 7    1  0.8792454E-005  0.3676232E+03  0.7818608E-02  0.1124298E+00
          2   -1    0    0  502    0  0.00000000000E+00  0.00000000000E+00  0.30180129862E+04  0.30180129862E+04  0.00000000000E+00 0. -1.
          1   -1    0    0  501    0 -0.00000000000E+00 -0.00000000000E+00 -0.55076399737E+03  0.55076399737E+03  0.00000000000E+00 0. -1.
         25    2    1    2    0    0 -0.45204404085E+03 -0.45765105311E+02  0.18814666601E+04  0.19395828732E+04  0.12500667699E+03 0.  0.
          2    1    1    2  501    0  0.35869021618E+03 -0.69247339199E+02 -0.45184370699E+03  0.58104784718E+03  0.00000000000E+00 0. -1.
          1    1    1    2  502    0  0.93353824671E+02  0.11501244451E+03  0.10376260357E+04  0.10481462632E+04  0.00000000000E+00 0. -1.
         22    1    3    3    0    0 -0.16936899566E+03 -0.75330933125E+02  0.82347724653E+03  0.84408256808E+03  0.00000000000E+00 0. -1.
         22    1    3    3    0    0 -0.28267504518E+03  0.29565827814E+02  0.10579894136E+04  0.10955003052E+04  0.00000000000E+00 0. -1.
</event>
<event>
 7    1  0.8792454E-005  0.7520671E+03  0.7818608E-02  0.1138296E+00
          2   -1    0    0  502    0  0.00000000000E+00  0.00000000000E+00  0.16496128544E+04  0.16496128544E+04  0.00000000000E+00 0. -1.
          1   -1    0    0  501    0 -0.00000000000E+00 -0.00000000000E+00 -0.22465400913E+04  0.22465400913E+04  0.00000000000E+00 0. -1.
         25    2    1    2    0    0 -0.53692240843E+03 -0.57366380677E+03 -0.65518916380E+03  0.10306668235E+04  0.12500169953E+03 0.  0.
          2    1    1    2  501    0  0.47782129256E+03  0.55857134917E+03 -0.13066476666E+04  0.14992142157E+04  0.00000000000E+00 0. -1.
          1    1    1    2  502    0  0.59101115877E+02  0.15092457597E+02  0.13649095935E+04  0.13662719065E+04  0.00000000000E+00 0. -1.
         22    1    3    3    0    0 -0.42784592250E+03 -0.46772994655E+03 -0.45985316267E+03  0.78312729969E+03  0.00000000000E+00 0.  1.
         22    1    3    3    0    0 -0.10907648593E+03 -0.10593386022E+03 -0.19533600113E+03  0.24753952384E+03  0.00000000000E+00 0.  1.
</event>
<event>
 7    1  0.8792454E-005  0.5256245E+03  0.7818608E-02  0.1145736E+00
          2   -1    0    0  502    0  0.00000000000E+00  0.00000000000E+00  0.84159901908E+03  0.84159901908E+03  0.00000000000E+00 0. -1.
          1   -1    0    0  501    0 -0.00000000000E+00 -0.00000000000E+00 -0.68114766102E+03  0.68114766102E+03  0.00000000000E+00 0. -1.
         25    2    1    2    0    0  0.57053051714E+01  0.57351949458E+03 -0.72827626437E+02  0.59151109257E+03  0.12499739313E+03 0.  0.
          2    1    1    2  501    0 -0.45995183795E+02 -0.65224157239E+02 -0.22929417279E+03  0.24278707811E+03  0.00000000000E+00 0. -1.
          1    1    1    2  502    0  0.40289878623E+02 -0.50829533734E+03  0.46257315729E+03  0.68844850942E+03  0.00000000000E+00 0. -1.
         22    1    3    3    0    0  0.10126693641E+02  0.13672924267E+02  0.17499140325E+02  0.24407349185E+02  0.00000000000E+00 0. -1.
         22    1    3    3    0    0 -0.44213884696E+01  0.55984657031E+03 -0.90326766762E+02  0.56710374338E+03  0.00000000000E+00 0. -1.
</event>
<event>
 7    1  0.8792454E-005  0.9769230E+02  0.7818608E-02  0.1461057E+00
          2   -1    0    0  502    0  0.00000000000E+00  0.00000000000E+00  0.80276332142E+02  0.80276332142E+02  0.00000000000E+00 0. -1.
          1   -1    0    0  501    0 -0.00000000000E+00 -0.00000000000E+00 -0.13059484885E+04  0.13059484885E+04  0.00000000000E+00 0. -1.
         25    2    1    2    0    0 -0.74865627269E+02 -0.23172333447E+02 -0.13405495695E+03  0.19934267504E+03  0.12499980570E+03 0.  0.
          2    1    1    2  501    0  0.97221724436E+02  0.18671886133E+02 -0.11342346719E+04  0.11385468782E+04  0.00000000000E+00 0. -1.
          1    1    1    2  502    0 -0.22356097167E+02  0.45004473131E+01  0.42617472501E+02  0.48335267341E+02  0.00000000000E+00 0. -1.
         22    1    3    3    0    0 -0.61251348056E+02 -0.59647001804E+02 -0.34050010897E+02  0.92026603246E+02  0.00000000000E+00 0. -1.
         22    1    3    3    0    0 -0.13614279213E+02  0.36474668358E+02 -0.10000494605E+03  0.10731607180E+03  0.00000000000E+00 0. -1.
</event>
<event>
 7    1  0.8792454E-005  0.9164385E+02  0.7818608E-02  0.1350170E+00
          2   -1    0    0  502    0  0.00000000000E+00  0.00000000000E+00  0.37084453789E+03  0.37084453789E+03  0.00000000000E+00 0. -1.
          1   -1    0    0  501    0 -0.00000000000E+00 -0.00000000000E+00 -0.14404536971E+03  0.14404536971E+03  0.00000000000E+00 0. -1.
         25    2    1    2    0    0  0.87188144196E+02  0.10164454439E+03  0.50252388539E+02  0.18996042217E+03  0.12500509408E+03 0.  0.
          2    1    1    2  501    0 -0.69827589213E+02 -0.46142962986E+02 -0.45589560008E+02  0.95307256965E+02  0.00000000000E+00 0. -1.
          1    1    1    2  502    0 -0.17360554983E+02 -0.55501581402E+02  0.22213633965E+03  0.22962222846E+03  0.00000000000E+00 0. -1.
         22    1    3    3    0    0  0.84305302913E+02  0.78890854870E+02  0.88422651230E+02  0.14542942045E+03  0.00000000000E+00 0.  1.
         22    1    3    3    0    0  0.28828412822E+01  0.22753689518E+02 -0.38170262691E+02  0.44531001723E+02  0.00000000000E+00 0.  1.
</event>
<event>
 7    1  0.8792454E-005  0.1747223E+03  0.7818608E-02  0.1228157E+00
          2   -1    0    0  502    0  0.00000000000E+00  0.00000000000E+00  0.47939802860E+03  0.47939802860E+03  0.00000000000E+00 0. -1.
          1   -1    0    0  501    0 -0.00000000000E+00 -0.00000000000E+00 -0.15149843808E+03  0.15149843808E+03  0.00000000000E+00 0. -1.
         25    2    1    2    0    0  0.10335019857E+03  0.55891353696E+02  0.24870150684E+02  0.17334389109E+03  0.12499789286E+03 0.  0.
          2    1    1    2  501    0  0.33376455702E+02  0.90036905591E+02  0.18641949244E+01  0.96042216688E+02  0.00000000000E+00 0. -1.
          1    1    1    2  502    0 -0.13672665427E+03 -0.14592825929E+03  0.30116524492E+03  0.36151035890E+03  0.00000000000E+00 0. -1.
         22    1    3    3    0    0  0.54358493362E+02  0.18274430464E+02 -0.50139311945E+02  0.76175791507E+02  0.00000000000E+00 0.  1.
         22    1    3    3    0    0  0.48991705208E+02  0.37616923233E+02  0.75009462629E+02  0.97168099583E+02  0.00000000000E+00 0.  1.
</event>
<event>
 7    1  0.8792454E-005  0.1050522E+03  0.7818608E-02  0.1347846E+00
          2   -1    0    0  502    0  0.00000000000E+00  0.00000000000E+00  0.20789561009E+04  0.20789561009E+04  0.00000000000E+00 0. -1.
          1   -1    0    0  501    0 -0.00000000000E+00 -0.00000000000E+00 -0.68703306772E+03  0.68703306772E+03  0.00000000000E+00 0. -1.
         25    2    1    2    0    0  0.86699374699E+02 -0.79044092159E+02  0.89281426782E+03  0.90912396315E+03  0.12499725390E+03 0.  0.
          2    1    1    2  501    0 -0.38453886643E+02  0.97759755181E+02 -0.67424057607E+03  0.68237528205E+03  0.00000000000E+00 0. -1.
          1    1    1    2  502    0 -0.48245488056E+02 -0.18715663022E+02  0.11733493415E+04  0.11744899234E+04  0.00000000000E+00 0. -1.
         22    1    3    3    0    0 -0.53236769960E+01  0.18281051120E+02  0.27164059788E+02  0.33172647030E+02  0.00000000000E+00 0.  1.
         22    1    3    3    0    0  0.92023051695E+02 -0.97325143279E+02  0.86565020803E+03  0.87595131612E+03  0.00000000000E+00 0.  1.
</event>
<event>
 7    1  0.8792454E-005  0.1032875E+04  0.7818608E-02  0.1146068E+00
          2   -1    0    0  502    0  0.00000000000E+00  0.00000000000E+00  0.16221524355E+04  0.16221524355E+04  0.00000000000E+00 0. -1.
          1   -1    0    0  501    0 -0.00000000000E+00 -0.00000000000E+00 -0.17906384293E+04  0.17906384293E+04  0.00000000000E+00 0. -1.
         25    2    1    2    0    0 -0.20257262659E+02 -0.10217677684E+04  0.92189772215E+03  0.13820049771E+04  0.12499046959E+03 0.  0.
          2    1    1    2  501    0  0.87584146357E+01 -0.39495385318E+02 -0.96071748835E+03  0.96156886790E+03  0.00000000000E+00 0. -1.
          1    1    1    2  502    0  0.11498848023E+02  0.10612631537E+04 -0.12966622758E+03  0.10692170198E+04  0.00000000000E+00 0. -1.
         22    1    3    3    0    0  0.31339392081E+02 -0.44825746132E+03  0.46793802405E+03  0.64875488705E+03  0.00000000000E+00 0. -1.
         22    1    3    3    0    0 -0.51596654740E+02 -0.57351030704E+03  0.45395969811E+03  0.73325009005E+03  0.00000000000E+00 0. -1.
</event>
<event>
 7    1  0.8792454E-005  0.2554953E+03  0.7818608E-02  0.1268232E+00
          2   -1    0    0  502    0  0.00000000000E+00  0.00000000000E+00  0.35326957837E+03  0.35326957837E+03  0.00000000000E+00 0. -1.
          1   -1    0    0  501    0 -0.00000000000E+00 -0.00000000000E+00 -0.58785693666E+03  0.58785693666E+03  0.00000000000E+00 0. -1.
         25    2    1    2    0    0  0.26754596721E+03 -0.36518665671E+02 -0.24619289731E+02  0.29856611357E+03  0.12498462798E+03 0.  0.
          2    1    1    2  501    0 -0.24168053142E+03  0.72048160015E+02 -0.38602420993E+03  0.46110205733E+03  0.00000000000E+00 0. -1.
          1    1    1    2  502    0 -0.25865435796E+02 -0.35529494344E+02  0.17605614137E+03  0.18145834412E+03  0.00000000000E+00 0. -1.
         22    1    3    3    0    0  0.27412694354E+03 -0.23194990821E+02 -0.65679234533E+01  0.27518489492E+03  0.00000000000E+00 0. -1.
         22    1    3    3    0    0 -0.65809763299E+01 -0.13323674850E+02 -0.18051366278E+02  0.23381218648E+02  0.00000000000E+00 0. -1.
</event>
<event>
 7    1  0.8792454E-005  0.2650625E+03  0.7818608E-02  0.1263594E+00
          2   -1    0    0  502    0  0.00000000000E+00  0.00000000000E+00  0.21862345636E+03  0.21862345636E+03  0.00000000000E+00 0. -1.
          1   -1    0    0  501    0 -0.00000000000E+00 -0.00000000000E+00 -0.15595507595E+04  0.15595507595E+04  0.00000000000E+00 0. -1.
         25    2    1    2    0    0  0.10319503069E+03 -0.25217369195E+03 -0.10368036675E+03  0.31719919229E+03  0.12499969549E+03 0.  0.
          2    1    1    2  501    0  0.33120962399E+02  0.29445213118E+02 -0.11957443511E+04  0.11965653228E+04  0.00000000000E+00 0. -1.
          1    1    1    2  502    0 -0.13631599309E+03  0.22272847883E+03 -0.41502585336E+02  0.26440970074E+03  0.00000000000E+00 0. -1.
         22    1    3    3    0    0  0.94891350406E+02 -0.14555049687E+03 -0.83803258240E+01  0.17395271019E+03  0.00000000000E+00 0. -1.
         22    1    3    3    0    0  0.83036802832E+01 -0.10662319508E+03 -0.95300040924E+02  0.14324648211E+03  0.00000000000E+00 0. -1.
</event>
<event>
 7    1  0.8792454E-005  0.1063137E+03  0.7818608E-02  0.1319658E+00
          2   -1    0    0  502    0  0.00000000000E+00  0.00000000000E+00  0.51485671148E+03  0.51485671148E+03  0.00000000000E+00 0. -1.
          1   -1    0    0  501    0 -0.00000000000E+00 -0.00000000000E+00 -0.44233756348E+03  0.44233756348E+03  0.00000000000E+00 0. -1.
         25    2    1    2    0    0  0.42089417753E+02  0.14545494467E+03  0.23459708084E+03  0.30592404880E+03  0.12500029313E+03 0.  0.
          2    1    1    2  501    0 -0.63966269947E+02 -0.83788184183E+02 -0.39526333249E+03  0.40907853220E+03  0.00000000000E+00 0. -1.
          1    1    1    2  502    0  0.21876852194E+02 -0.61666760488E+02  0.23318539965E+03  0.24219169395E+03  0.00000000000E+00 0. -1.
         22    1    3    3    0    0  0.32670147945E+01 -0.11690800250E+02 -0.78140134633E+01  0.14436308481E+02  0.00000000000E+00 0. -1.
         22    1    3    3    0    0  0.38822402958E+02  0.15714574492E+03  0.24241109430E+03  0.29148774032E+03  0.00000000000E+00 0. -1.
</event>
<event>
 7    1  0.8792454E-005  0.1348490E+03  0.7818608E-02  0.1224838E+00
          2   -1    0    0  502    0  0.00000000000E+00  0.00000000000E+00  0.16285736383E+04  0.16285736383E+04  0.00000000000E+00 0. -1.
          1   -1    0    0  501    0 -0.00000000000E+00 -0.00000000000E+00 -0.23714118802E+03  0.23714118802E+03  0.00000000000E+00 0. -1.
         25    2    1    2    0    0 -0.10444573003E+03 -0.18946039855E+03  0.55179659217E+03  0.60572967208E+03  0.12499921348E+03 0.  0.
          2    1    1    2  501    0  0.11808924632E+03  0.61403472380E+02 -0.18465821727E+03  0.22762713749E+03  0.00000000000E+00 0. -1.
          1    1    1    2  502    0 -0.13643516290E+02  0.12805692617E+03  0.10242940754E+04  0.10323580167E+04  0.00000000000E+00 0. -1.
         22    1    3    3    0    0 -0.13112003874E+03 -0.13330208849E+03  0.43302937780E+03  0.47167399058E+03  0.00000000000E+00 0. -1.
         22    1    3    3    0    0  0.26674308702E+02 -0.56158310057E+02  0.11876721437E+03  0.13405568150E+03  0.00000000000E+00 0. -1.
</event>
<event>
 7    1  0.8792454E-005  0.1948584E+03  0.7818608E-02  0.1383172E+00
          2   -1    0    0  502    0  0.00000000000E+00  0.00000000000E+00  0.18623829610E+04  0.18623829610E+04  0.00000000000E+00 0. -1.
          1   -1    0    0  501    0 -0.00000000000E+00 -0.00000000000E+00 -0.25587896875E+04  0.25587896875E+04  0.00000000000E+00 0. -1.
         25    2    1    2    0    0 -0.20771782522E+03 -0.47101073452E+02 -0.19468215975E+04  0.19624231870E+04  0.12500090522E+03 0.  0.
          2    1    1    2  501    0  0.15832234494E+02  0.13463616586E+02 -0.59887062493E+03  0.59923113573E+03  0.00000000000E+00 0. -1.
          1    1    1    2  502    0  0.19188559072E+03  0.33637456867E+02  0.18492854959E+04  0.18595183258E+04  0.00000000000E+00 0. -1.
         22    1    3    3    0    0 -0.61068893385E+02  0.13179470101E+02 -0.23125904737E+03  0.23954927502E+03  0.00000000000E+00 0. -1.
         22    1    3    3    0    0 -0.14664893183E+03 -0.60280543553E+02 -0.17155625501E+04  0.17228739120E+04  0.00000000000E+00 0. -1.
</event>
<event>
 7    1  0.8792454E-005  0.8677402E+02  0.7818608E-02  0.1311117E+00
          2   -1    0    0  502    0  0.00000000000E+00  0.00000000000E+00  0.18242634471E+03  0.18242634471E+03  0.00000000000E+00 0. -1.
          1   -1    0    0  501    0 -0.00000000000E+00 -0.00000000000E+00 -0.47872382518E+03  0.47872382518E+03  0.00000000000E+00 0. -1.
         25    2    1    2    0    0 -0.49041150235E+02 -0.19489017319E+02 -0.16172446854E+03  0.21110952059E+03  0.12501027856E+03 0.  0.
          2    1    1    2  501    0  0.93289663475E+02 -0.55155465777E+02 -0.26901644892E+03  0.29002575146E+03  0.00000000000E+00 0. -1.
          1    1    1    2  502    0 -0.44248513240E+02  0.74644483096E+02  0.13444343700E+03  0.16001489785E+03  0.00000000000E+00 0. -1.
         22    1    3    3    0    0 -0.81405130696E+02  0.14340505306E+02 -0.70780980311E+02  0.10882275759E+03  0.00000000000E+00 0. -1.
         22    1    3    3    0    0  0.32363980461E+02 -0.33829522625E+02 -0.90943488232E+02  0.10228676300E+03  0.00000000000E+00 0. -1.
</event>
<event>
 7    1  0.8792454E-005  0.5169282E+03  0.7818608E-02  0.1056314E+00
          2   -1    0    0  502    0  0.00000000000E+00  0.00000000000E+00  0.10279375890E+04  0.10279375890E+04  0.00000000000E+00 0. -1.
          1   -1    0    0  501    0 -0.00000000000E+00 -0.00000000000E+00 -0.15169202251E+04  0.15169202251E+04  0.00000000000E+00 0. -1.
         25    2    1    2    0    0  0.50876989994E+03  0.21784339069E+03  0.88149534977E+03  0.10483136753E+04  0.12499982475E+03 0.  0.
          2    1    1    2  501    0 -0.25080692680E+03 -0.63995020218E+02 -0.91532534773E+03  0.95122025280E+03  0.00000000000E+00 0. -1.
          1    1    1    2  502    0 -0.25796297315E+03 -0.15384837047E+03 -0.45515263818E+03  0.54532388601E+03  0.00000000000E+00 0. -1.
         22    1    3    3    0    0  0.38112602735E+02 -0.99347515883E+01  0.31784671978E+02  0.50611610813E+02  0.00000000000E+00 0.  1.
         22    1    3    3    0    0  0.47065729720E+03  0.22777814228E+03  0.84971067779E+03  0.99770206448E+03  0.00000000000E+00 0.  1.
</event>
<event>
 7    1  0.8792454E-005  0.2698429E+03  0.7818608E-02  0.1121761E+00
          2   -1    0    0  502    0  0.00000000000E+00  0.00000000000E+00  0.29603641207E+03  0.29603641207E+03  0.00000000000E+00 0. -1.
          1   -1    0    0  501    0 -0.00000000000E+00 -0.00000000000E+00 -0.61339424890E+03  0.61339424890E+03  0.00000000000E+00 0. -1.
         25    2    1    2    0    0  0.35849425387E+03 -0.12012827108E+03 -0.17952195553E+03  0.43680883904E+03  0.12499959112E+03 0.  0.
          2    1    1    2  501    0 -0.12702726124E+03  0.16505324694E+03 -0.10901553404E+03  0.23508059487E+03  0.00000000000E+00 0. -1.
          1    1    1    2  502    0 -0.23146699263E+03 -0.44924975863E+02 -0.28820347257E+02  0.23754122705E+03  0.00000000000E+00 0. -1.
         22    1    3    3    0    0  0.11247129409E+03 -0.40645089975E+02 -0.12419226059E+03  0.17241094201E+03  0.00000000000E+00 0. -1.
         22    1    3    3    0    0  0.24602295977E+03 -0.79483181105E+02 -0.55329694947E+02  0.26439789704E+03  0.00000000000E+00 0. -1.
</event>
<event>
 7    1  0.8792454E-005  0.4035432E+03  0.7818608E-02  0.1121676E+00
          2   -1    0    0  502    0  0.00000000000E+00  0.00000000000E+00  0.22327841929E+04  0.22327841929E+04  0.00000000000E+00 0. -1.
          1   -1    0    0  501    0 -0.00000000000E+00 -0.00000000000E+00 -0.18435516792E+03  0.18435516792E+03  0.00000000000E+00 0. -1.
         25    2    1    2    0    0 -0.13321312083E+03 -0.48600477152E+03  0.60871129284E+03  0.80006320785E+03  0.12500130008E+03 0.  0.
          2    1    1    2  501    0  0.85038606459E+02  0.11047908115E+03  0.11910031762E+02  0.13992512575E+03  0.00000000000E+00 0. -1.
          1    1    1    2  502    0  0.48174514373E+02  0.37552569037E+03  0.14278077004E+04  0.14771510272E+04  0.00000000000E+00 0. -1.
         22    1    3    3    0    0 -0.39636004361E+02 -0.18368951929E+03  0.13921332832E+03  0.23386578014E+03  0.00000000000E+00 0.  1.
         22    1    3    3    0    0 -0.93577116471E+02 -0.30231525224E+03  0.46949796452E+03  0.56619742772E+03  0.00000000000E+00 0.  1.
</event>
<event>
 7    1  0.8792454E-005  0.2234193E+03  0.7818608E-02  0.1160278E+00
          2   -1    0    0  502    0  0.00000000000E+00  0.00000000000E+00  0.71624886795E+03  0.71624886795E+03  0.00000000000E+00 0. -1.
          1   -1    0    0  501    0 -0.00000000000E+00 -0.00000000000E+00 -0.20179773759E+04  0.20179773759E+04  0.00000000000E+00 0. -1.
         25    2    1    2    0    0  0.97465346037E+02 -0.19869925007E+03 -0.42054141084E+02  0.25763186632E+03  0.12499896841E+03 0.  0.
          2    1    1    2  501    0 -0.15629423270E+03 -0.24453711023E+02 -0.18427405194E+04  0.18495184490E+04  0.00000000000E+00 0. -1.
          1    1    1    2  502    0  0.58828886667E+02  0.22315296110E+03  0.58306615254E+03  0.62707592857E+03  0.00000000000E+00 0. -1.
         22    1    3    3    0    0  0.12677240438E+03 -0.14406787254E+03 -0.26590743869E+02  0.19373657907E+03  0.00000000000E+00 0. -1.
         22    1    3    3    0    0 -0.29307058339E+02 -0.54631377535E+02 -0.15463397215E+02  0.63895287255E+02  0.00000000000E+00 0. -1.
</event>
<event>
 7    1  0.8792454E-005  0.1756893E+03  0.7818608E-02  0.1289979E+00
          2   -1    0    0  502    0  0.00000000000E+00  0.00000000000E+00  0.13744655943E+04  0.13744655943E+04  0.00000000000E+00 0. -1.
          1   -1    0    0  501    0 -0.00000000000E+00 -0.00000000000E+00 -0.19998570964E+03  0.19998570964E+03  0.00000000000E+00 0. -1.
         25    2    1    2    0    0 -0.25891979518E+01 -0.40305252926E+02 -0.12816084651E+03  0.18352446663E+03  0.12499923966E+03 0.  0.
          2    1    1    2  501    0  0.14326246552E+03  0.14555616317E+03  0.24576764177E+03  0.31955040981E+03  0.00000000000E+00 0. -1.
          1    1    1    2  502    0 -0.14067326757E+03 -0.10525091025E+03  0.10568730894E+04  0.10713764275E+04  0.00000000000E+00 0. -1.
         22    1    3    3    0    0  0.52718679267E+02  0.44036265831E+01 -0.85645403318E+02  0.10066670840E+03  0.00000000000E+00 0. -1.
         22    1    3    3    0    0 -0.55307877219E+02 -0.44708879509E+02 -0.42515443191E+02  0.82857758231E+02  0.00000000000E+00 0. -1.
</event>
<event>
 7    1  0.8792454E-005  0.2538390E+03  0.7818608E-02  0.1322391E+00
          2   -1    0    0  502    0  0.00000000000E+00  0.00000000000E+00  0.64169295971E+03  0.64169295971E+03  0.00000000000E+00 0. -1.
          1   -1    0    0  501    0 -0.00000000000E+00 -0.00000000000E+00 -0.12550037087E+03  0.12550037087E+03  0.00000000000E+00 0. -1.
         25    2    1    2    0    0  0.58269463831E+02  0.25666782809E+03  0.29771101591E+03  0.41657005112E+03  0.12500021642E+03 0.  0.
          2    1    1    2  501    0 -0.34152750920E+02 -0.24510703083E+03  0.19810794370E+03  0.31700256199E+03  0.00000000000E+00 0. -1.
          1    1    1    2  502    0 -0.24116712911E+02 -0.11560797262E+02  0.20373629231E+02  0.33620717467E+02  0.00000000000E+00 0. -1.
         22    1    3    3    0    0 -0.28710222407E+02  0.72559334891E+02  0.13497624743E+03  0.15590933686E+03  0.00000000000E+00 0.  1.
         22    1    3    3    0    0  0.86979686238E+02  0.18410849320E+03  0.16273476848E+03  0.26066071426E+03  0.00000000000E+00 0.  1.
</event>
<event>
 7    1  0.8792454E-005  0.3004538E+03  0.7818608E-02  0.1128598E+00
          2   -1    0    0  502    0  0.00000000000E+00  0.00000000000E+00  0.96235449601E+03  0.96235449601E+03  0.00000000000E+00 0. -1.
          1   -1    0    0  501    0 -0.00000000000E+00 -0.00000000000E+00 -0.33544094683E+03  0.33544094683E+03  0.00000000000E+00 0. -1.
         25    2    1    2    0    0 -0.44369076824E+02 -0.33072296033E+03  0.26026557446E+02  0.35727969420E+03  0.12500042691E+03 0.  0.
          2    1    1    2  501    0  0.16331627848E+03  0.53530325955E+02 -0.84629299385E+02  0.19157197323E+03  0.00000000000E+00 0. -1.
          1    1    1    2  502    0 -0.11894720166E+03  0.27719263437E+03  0.68551629112E+03  0.74894377541E+03  0.00000000000E+00 0. -1.
         22    1    3    3    0    0 -0.86152244254E+02 -0.23915001788E+03  0.33278250048E+02  0.25636376922E+03  0.00000000000E+00 0.  1.
         22    1    3    3    0    0  0.41783167430E+02 -0.91572942443E+02 -0.72516926021E+01  0.10091592498E+03  0.00000000000E+00 0.  1.
</event>
<event>
 7    1  0.8792454E-005  0.8704663E+02  0.7818608E-02  0.1337309E+00
          2   -1    0    0  502    0  0.00000000000E+00  0.00000000000E+00  0.83149470983E+02  0.83149470983E+02  0.00000000000E+00 0. -1.
          1   -1    0    0  501    0 -0.00000000000E+00 -0.00000000000E+00 -0.27780047553E+04  0.27780047553E+04  0.00000000000E+00 0. -1.
         25    2    1    2    0    0  0.13248289374E+03 -0.60014393644E+02 -0.78599663316E+03  0.80905585291E+03  0.12500888450E+03 0.  0.
          2    1    1    2  501    0 -0.47854120561E+02  0.48868264415E+02 -0.19542321674E+04  0.19554287223E+04  0.00000000000E+00 0. -1.
          1    1    1    2  502    0 -0.84628773180E+02  0.11146129229E+02  0.45373516261E+02  0.96669651001E+02  0.00000000000E+00 0. -1.
         22    1    3    3    0    0  0.11896433839E+03 -0.28921743275E+02 -0.33301120383E+03  0.35480338629E+03  0.00000000000E+00 0. -1.
         22    1    3    3    0    0  0.13518555348E+02 -0.31092650370E+02 -0.45298542933E+03  0.45425246662E+03  0.00000000000E+00 0. -1.
</event>
<event>
 7    1  0.8792454E-005  0.1688814E+03  0.7818608E-02  0.1346316E+00
          2   -1    0    0  502    0  0.00000000000E+00  0.00000000000E+00  0.91937692434E+03  0.91937692434E+03  0.00000000000E+00 0. -1.
          1   -1    0    0  501    0 -0.00000000000E+00 -0.00000000000E+00 -0.20417782013E+04  0.20417782013E+04  0.00000000000E+00 0. -1.
         25    2    1    2    0    0  0.91077602481E+01  0.17405016378E+03 -0.89698941314E+02  0.23248157869E+03  0.12500149418E+03 0.  0.
          2    1    1    2  501    0 -0.31888587401E+02 -0.68438551416E+01 -0.18721490407E+04  0.18724331098E+04  0.00000000000E+00 0. -1.
          1    1    1    2  502    0  0.22780827153E+02 -0.16720630863E+03  0.83944670497E+03  0.85624043716E+03  0.00000000000E+00 0. -1.
         22    1    3    3    0    0 -0.48628876016E+02  0.74729061455E+02 -0.75295413751E+02  0.11669875552E+03  0.00000000000E+00 0.  1.
         22    1    3    3    0    0  0.57736636264E+02  0.99321102321E+02 -0.14403527563E+02  0.11578282316E+03  0.00000000000E+00 0.  1.
</event>
<event>
 7    1  0.8792454E-005  0.2130820E+03  0.7818608E-02  0.1196615E+00
          2   -1    0    0  502    0  0.00000000000E+00  0.00000000000E+00  0.20328137827E+04  0.20328137827E+04  0.00000000000E+00 0. -1.
          1   -1    0    0  501    0 -0.00000000000E+00 -0.00000000000E+00 -0.15431197138E+03  0.15431197138E+03  0.00000000000E+00 0. -1.
         25    2    1    2    0    0  0.18736749754E+03  0.48170843458E+02  0.11036337810E+03  0.25540423228E+03  0.12499694935E+03 0.  0.
          2    1    1    2  501    0 -0.23930740770E+03  0.48933180177E+02  0.10654874952E+03  0.26648663668E+03  0.00000000000E+00 0. -1.
          1    1    1    2  502    0  0.51939910164E+02 -0.97104023635E+02  0.16615896837E+04  0.16652348852E+04  0.00000000000E+00 0. -1.
         22    1    3    3    0    0  0.17938208008E+02  0.13337802274E+02  0.75779813505E+02  0.79007951568E+02  0.00000000000E+00 0.  1.
         22    1    3    3    0    0  0.16942928953E+03  0.34833041184E+02  0.34583564591E+02  0.17639628071E+03  0.00000000000E+00 0.  1.
</event>
<event>
 7    1  0.8792454E-005  0.1222193E+04  0.7818608E-02  0.1151030E+00
          2   -1    0    0  502    0  0.00000000000E+00  0.00000000000E+00  0.10543504857E+04  0.10543504857E+04  0.00000000000E+00 0. -1.
          1   -1    0    0  501    0 -0.00000000000E+00 -0.00000000000E+00 -0.16318990502E+04  0.16318990502E+04  0.00000000000E+00 0. -1.
         25    2    1    2    0    0 -0.23773358623E+03  0.12010244132E+04  0.11735608812E+03  0.12362740641E+04  0.12499684418E+03 0.  0.
          2    1    1    2  501    0  0.26848002462E+03 -0.11913529423E+04 -0.71185746885E+03  0.14135573609E+04  0.00000000000E+00 0. -1.
          1    1    1    2  502    0 -0.30746438389E+02 -0.96714708965E+01  0.16952816250E+02  0.36418110903E+02  0.00000000000E+00 0. -1.
         22    1    3    3    0    0 -0.17692574058E+03  0.86639796134E+03  0.14054642721E+03  0.89537782153E+03  0.00000000000E+00 0.  1.
         22    1    3    3    0    0 -0.60807845650E+02  0.33462645183E+03 -0.23190339094E+02  0.34089624255E+03  0.00000000000E+00 0.  1.
</event>
<event>
 7    1  0.8792454E-005  0.3234611E+03  0.7818608E-02  0.1126979E+00
          2   -1    0    0  502    0  0.00000000000E+00  0.00000000000E+00  0.29914776962E+03  0.29914776962E+03  0.00000000000E+00 0. -1.
          1   -1    0    0  501    0 -0.00000000000E+00 -0.00000000000E+00 -0.27210920222E+04  0.27210920222E+04  0.00000000000E+00 0. -1.
         25    2    1    2    0    0 -0.73776938367E+02 -0.30047994136E+03 -0.51238522536E+03  0.61146907856E+03  0.12499833229E+03 0.  0.
          2    1    1    2  501    0  0.16154576034E+03 -0.20654540148E+02 -0.20434595597E+04  0.20499391735E+04  0.00000000000E+00 0. -1.
          1    1    1    2  502    0 -0.87768821977E+02  0.32113448151E+03  0.13390053252E+03  0.35883153977E+03  0.00000000000E+00 0. -1.
         22    1    3    3    0    0 -0.19078405162E+02 -0.27026337783E+03 -0.42577376540E+03  0.50466778998E+03  0.00000000000E+00 0.  1.
         22    1    3    3    0    0 -0.54698533205E+02 -0.30216563526E+02 -0.86611459960E+02  0.10680128858E+03  0.00000000000E+00 0.  1.
</event>
<event>
 7    1  0.8792454E-005  0.1300180E+03  0.7818608E-02  0.1282222E+00
          2   -1    0    0  502    0  0.00000000000E+00  0.00000000000E+00  0.12623823044E+04  0.12623823044E+04  0.00000000000E+00 0. -1.
          1   -1    0    0  501    0 -0.00000000000E+00 -0.00000000000E+00 -0.15046455175E+03  0.15046455175E+03  0.00000000000E+00 0. -1.
         25    2    1    2    0    0  0.11579753748E+03 -0.72944696319E+02  0.60863748107E+02  0.19508550859E+03  0.12499584562E+03 0.  0.
          2    1    1    2  501    0  0.14997401329E+02  0.74014059274E+02 -0.61593939470E+02  0.97451610537E+02  0.00000000000E+00 0. -1.
          1    1    1    2  502    0 -0.13079493880E+03 -0.10693629550E+01  0.11126479440E+04  0.11203097370E+04  0.00000000000E+00 0. -1.
         22    1    3    3    0    0  0.12807147193E+02 -0.78752857676E+02  0.42188252075E+02  0.90254552375E+02  0.00000000000E+00 0. -1.
         22    1    3    3    0    0  0.10299039028E+03  0.58081613566E+01  0.18675496032E+02  0.10483095621E+03  0.00000000000E+00 0. -1.
</event>
<event>
 7    1  0.8792454E-005  0.1512633E+03  0.7818608E-02  0.1326048E+00
          2   -1    0    0  502    0  0.00000000000E+00  0.00000000000E+00  0.17786040598E+04  0.17786040598E+04  0.00000000000E+00 0. -1.
          1   -1    0    0  501    0 -0.00000000000E+00 -0.00000000000E+00 -0.25729565743E+02  0.25729565743E+02  0.00000000000E+00 0. -1.
         25    2    1    2    0    0 -0.18231378583E+02 -0.16059469843E+03  0.13175321258E+04  0.13332810428E+04  0.12499758438E+03 0.  0.
          2    1    1    2  501    0  0.35318301657E+02  0.25304100706E+02  0.98687004361E+02  0.10782766238E+03  0.00000000000E+00 0. -1.
          1    1    1    2  502    0 -0.17086923074E+02  0.13529059772E+03  0.33665536386E+03  0.36322492039E+03  0.00000000000E+00 0. -1.
         22    1    3    3    0    0 -0.27067616751E+02 -0.17177266284E+03  0.12949912353E+04  0.13066142518E+04  0.00000000000E+00 0.  1.
         22    1    3    3    0    0  0.88362381684E+01  0.11177964415E+02  0.22540890521E+02  0.26666790937E+02  0.00000000000E+00 0.  1.
</event>
<event>
 7    1  0.8792454E-005  0.8450555E+02  0.7818608E-02  0.1365820E+00
          2   -1    0    0  502    0  0.00000000000E+00  0.00000000000E+00  0.82002671292E+03  0.82002671292E+03  0.00000000000E+00 0. -1.
          1   -1    0    0  501    0 -0.00000000000E+00 -0.00000000000E+00 -0.11991236012E+03  0.11991236012E+03  0.00000000000E+00 0. -1.
         25    2    1    2    0    0 -0.43000707662E+02  0.71699621874E+01  0.26913785565E+02  0.13509159378E+03  0.12499967056E+03 0.  0.
          2    1    1    2  501    0 -0.36828992141E+02 -0.41213809219E+02 -0.51155137082E+02  0.75311358920E+02  0.00000000000E+00 0. -1.
          1    1    1    2  502    0  0.79829699803E+02  0.34043847032E+02  0.72435570432E+03  0.72953612034E+03  0.00000000000E+00 0. -1.
         22    1    3    3    0    0 -0.62879957634E+02 -0.44491557776E+02  0.15878165122E+02  0.78647974628E+02  0.00000000000E+00 0.  1.
         22    1    3    3    0    0  0.19879249972E+02  0.51661519963E+02  0.11035620443E+02  0.56443619152E+02  0.00000000000E+00 0.  1.
</event>
<event>
 7    1  0.8792454E-005  0.1866549E+03  0.7818608E-02  0.1336347E+00
          2   -1    0    0  502    0  0.00000000000E+00  0.00000000000E+00  0.10963903204E+04  0.10963903204E+04  0.00000000000E+00 0. -1.
          1   -1    0    0  501    0 -0.00000000000E+00 -0.00000000000E+00 -0.11687798020E+04  0.11687798020E+04  0.00000000000E+00 0. -1.
         25    2    1    2    0    0 -0.18348722735E+03 -0.17294222553E+02 -0.40758934246E+03  0.46445741029E+03  0.12499984462E+03 0.  0.
          2    1    1    2  501    0  0.18790837723E+03 -0.14565612239E+02 -0.72038819150E+03  0.74463471698E+03  0.00000000000E+00 0. -1.
          1    1    1    2  502    0 -0.44211498815E+01  0.31859834792E+02  0.10555880524E+04  0.10560779952E+04  0.00000000000E+00 0. -1.
         22    1    3    3    0    0 -0.14217716243E+03 -0.19272938396E+02 -0.39646772178E+03  0.42163069870E+03  0.00000000000E+00 0. -1.
         22    1    3    3    0    0 -0.41310064913E+02  0.19787158434E+01 -0.11121620684E+02  0.42826711596E+02  0.00000000000E+00 0. -1.
</event>
<event>
 7    1  0.8792454E-005  0.4233996E+03  0.7818608E-02  0.1109852E+00
          2   -1    0    0  502    0  0.00000000000E+00  0.00000000000E+00  0.38276666735E+03  0.38276666735E+03  0.00000000000E+00 0. -1.
          1   -1    0    0  501    0 -0.00000000000E+00 -0.00000000000E+00 -0.27392794287E+04  0.27392794287E+04  0.00000000000E+00 0. -1.
         25    2    1    2    0    0  0.36564932545E+03 -0.25897957959E+03 -0.52897497177E+03  0.70442181743E+03  0.12500289702E+03 0.  0.
          2    1    1    2  501    0 -0.12587886580E+03 -0.89117507831E+02 -0.19666107394E+04  0.19726492895E+04  0.00000000000E+00 0. -1.
          1    1    1    2  502    0 -0.23977045965E+03  0.34809708742E+03  0.13907294980E+03  0.44497498913E+03  0.00000000000E+00 0. -1.
         22    1    3    3    0    0  0.83112756386E+01 -0.51092017405E+02 -0.57426993892E+02  0.77313201801E+02  0.00000000000E+00 0.  1.
         22    1    3    3    0    0  0.35733804981E+03 -0.20788756218E+03 -0.47154797788E+03  0.62710861563E+03  0.00000000000E+00 0.  1.
</event>
<event>
 7    1  0.8792454E-005  0.3462082E+03  0.7818608E-02  0.1109218E+00
          2   -1    0    0  502    0  0.00000000000E+00  0.00000000000E+00  0.24139111301E+04  0.24139111301E+04  0.00000000000E+00 0. -1.
          1   -1    0    0  501    0 -0.00000000000E+00 -0.00000000000E+00 -0.16807060729E+04  0.16807060729E+04  0.00000000000E+00 0. -1.
         25    2    1    2    0    0 -0.30023405125E+03  0.25750365962E+03  0.20531712055E+04  0.20946573785E+04  0.12501565482E+03 0.  0.
          2    1    1    2  501    0  0.62732816756E+02 -0.17950213432E+03 -0.16076402470E+04  0.16188463751E+04  0.00000000000E+00 0. -1.
          1    1    1    2  502    0  0.23750123449E+03 -0.78001525301E+02  0.28767409868E+03  0.38111344949E+03  0.00000000000E+00 0. -1.
         22    1    3    3    0    0 -0.19190579154E+03  0.18820112833E+03  0.16416987742E+04  0.16635571414E+04  0.00000000000E+00 0. -1.
         22    1    3    3    0    0 -0.10832825971E+03  0.69302531287E+02  0.41147243129E+03  0.43110023707E+03  0.00000000000E+00 0. -1.
</event>
<event>
 7    1  0.8792454E-005  0.1694001E+03  0.7818608E-02  0.1220856E+00
          2   -1    0    0  502    0  0.00000000000E+00  0.00000000000E+00  0.76271996127E+03  0.76271996127E+03  0.00000000000E+00 0. -1.
          1   -1    0    0  501    0 -0.00000000000E+00 -0.00000000000E+00 -0.12601015938E+04  0.12601015938E+04  0.00000000000E+00 0. -1.
         25    2    1    2    0    0 -0.18354652989E+03 -0.95406447393E+02  0.76641406798E+02  0.25355275584E+03  0.12499350352E+03 0.  0.
          2    1    1    2  501    0  0.16874008211E+03 -0.10433086627E+02 -0.11606947455E+04  0.11729426060E+04  0.00000000000E+00 0. -1.
          1    1    1    2  502    0  0.14806447781E+02  0.10583953402E+03  0.58667170622E+03  0.59632619324E+03  0.00000000000E+00 0. -1.
         22    1    3    3    0    0 -0.69184735134E+02  0.26911549437E+02  0.22770709332E+02  0.77648337214E+02  0.00000000000E+00 0.  1.
         22    1    3    3    0    0 -0.11436179475E+03 -0.12231799683E+03  0.53870697465E+02  0.17590441863E+03  0.00000000000E+00 0.  1.
</event>
<event>
 7    1  0.8792454E-005  0.1818888E+03  0.7818608E-02  0.1174974E+00
          2   -1    0    0  502    0  0.00000000000E+00  0.00000000000E+00  0.66636344519E+03  0.66636344519E+03  0.00000000000E+00 0. -1.
          1   -1    0    0  501    0 -0.00000000000E+00 -0.00000000000E+00 -0.43519692901E+03  0.43519692901E+03  0.00000000000E+00 0. -1.
         25    2    1    2    0    0 -0.15607927265E+03 -0.54143060078E+02  0.45312910987E+03  0.49823892309E+03  0.12499529578E+03 0.  0.
          2    1    1    2  501    0 -0.14590300055E+03  0.75188341690E+02 -0.25026301205E+03  0.29928673124E+03  0.00000000000E+00 0. -1.
          1    1    1    2  502    0  0.30198227320E+03 -0.21045281612E+02  0.28300418367E+02  0.30403471987E+03  0.00000000000E+00 0. -1.
         22    1    3    3    0    0 -0.10853487696E+01 -0.35306940373E+02  0.18174489254E+03  0.18514579117E+03  0.00000000000E+00 0.  1.
         22    1    3    3    0    0 -0.15499392388E+03 -0.18836119705E+02  0.27138421732E+03  0.31309313192E+03  0.00000000000E+00 0.  1.
</event>
<event>
 7    1  0.8792454E-005  0.2959708E+03  0.7818608E-02  0.1151652E+00
          2   -1    0    0  502    0  0.00000000000E+00  0.00000000000E+00  0.91627627748E+03  0.91627627748E+03  0.00000000000E+00 0. -1.
          1   -1    0    0  501    0 -0.00000000000E+00 -0.00000000000E+00 -0.11813209231E+04  0.11813209231E+04  0.00000000000E+00 0. -1.
         25    2    1    2    0    0  0.15463847011E+03 -0.12888704854E+03 -0.58114918928E+03  0.62760150813E+03  0.12499738034E+03 0.  0.
          2    1    1    2  501    0 -0.55542557193E+01 -0.13200705095E+03 -0.54352922575E+03  0.55935742643E+03  0.00000000000E+00 0. -1.
          1    1    1    2  502    0 -0.14908421439E+03  0.26089409950E+03  0.85963376938E+03  0.91063826605E+03  0.00000000000E+00 0. -1.
         22    1    3    3    0    0 -0.42443681179E+01 -0.53037929413E+02 -0.77002864129E+02  0.93597423583E+02  0.00000000000E+00 0. -1.
         22    1    3    3    0    0  0.15888283823E+03 -0.75849119130E+02 -0.50414632515E+03  0.53400408455E+03  0.00000000000E+00 0. -1.
</event>
<event>
 7    1  0.8792454E-005  0.3355061E+03  0.7818608E-02  0.1314797E+00
          2   -1    0    0  502    0  0.00000000000E+00  0.00000000000E+00  0.37104924653E+03  0.37104924653E+03  0.00000000000E+00 0. -1.
          1   -1    0    0  501    0 -0.00000000000E+00 -0.00000000000E+00 -0.85183518786E+03  0.85183518786E+03  0.00000000000E+00 0. -1.
         25    2    1    2    0    0  0.33254217365E+03  0.59809103561E+02 -0.60340009568E+03  0.70276519586E+03  0.12500327561E+03 0.  0.
          2    1    1    2  501    0 -0.32710581971E+03 -0.38844357839E+02 -0.61193562089E+02  0.33503992816E+03  0.00000000000E+00 0. -1.
          1    1    1    2  502    0 -0.54363539413E+01 -0.20964745722E+02  0.18380771644E+03  0.18507931038E+03  0.00000000000E+00 0. -1.
         22    1    3    3    0    0  0.58012339638E+02 -0.22049730024E+02 -0.50325638402E+02  0.79901764842E+02  0.00000000000E+00 0.  1.
         22    1    3    3    0    0  0.27452983401E+03  0.81858833585E+02 -0.55307445728E+03  0.62286343101E+03  0.00000000000E+00 0.  1.
</event>
<event>
 7    1  0.8792454E-005  0.4993643E+03  0.7818608E-02  0.1168853E+00
          2   -1    0    0  502    0  0.00000000000E+00  0.00000000000E+00  0.85660604708E+03  0.85660604708E+03  0.00000000000E+00 0. -1.
          1   -1    0    0  501    0 -0.00000000000E+00 -0.00000000000E+00 -0.48975954494E+03  0.48975954494E+03  0.00000000000E+00 0. -1.
         25    2    1    2    0    0  0.40756470122E+03  0.34931194775E+03  0.22997351863E+03  0.59719384723E+03  0.12499939750E+03 0.  0.
          2    1    1    2  501    0 -0.53733984681E+02 -0.34959687263E+02 -0.17229973643E+03  0.18383884252E+03  0.00000000000E+00 0. -1.
          1    1    1    2  502    0 -0.35383071653E+03 -0.31435226049E+03  0.30917271995E+03  0.56533290228E+03  0.00000000000E+00 0. -1.
         22    1    3    3    0    0  0.51214994053E+02  0.24149415766E+02  0.67628295211E+02  0.88202926317E+02  0.00000000000E+00 0. -1.
         22    1    3    3    0    0  0.35634970716E+03  0.32516253198E+03  0.16234522342E+03  0.50899092091E+03  0.00000000000E+00 0. -1.
</event>
<event>
 7    1  0.8792454E-005  0.2640483E+03  0.7818608E-02  0.1140546E+00
          2   -1    0    0  502    0  0.00000000000E+00  0.00000000000E+00  0.12775183316E+04  0.12775183316E+04  0.00000000000E+00 0. -1.
          1   -1    0    0  501    0 -0.00000000000E+00 -0.00000000000E+00 -0.89566992871E+03  0.89566992871E+03  0.00000000000E+00 0. -1.
         25    2    1    2    0    0 -0.27959278681E+03  0.30608667662E+03  0.36441931626E+03  0.56593973709E+03  0.12500067164E+03 0.  0.
          2    1    1    2  501    0  0.20682312132E+03 -0.15347025816E+03 -0.76477701823E+03  0.80697757792E+03  0.00000000000E+00 0. -1.
          1    1    1    2  502    0  0.72769665497E+02 -0.15261641846E+03  0.78220610486E+03  0.80027094529E+03  0.00000000000E+00 0. -1.
         22    1    3    3    0    0 -0.28285480403E+03  0.30855027430E+03  0.33470475972E+03  0.53594532194E+03  0.00000000000E+00 0.  1.
         22    1    3    3    0    0  0.32620172145E+01 -0.24635976755E+01  0.29714556541E+02  0.29994415151E+02  0.00000000000E+00 0.  1.
</event>
<event>
 7    1  0.8792454E-005  0.6034843E+02  0.7818608E-02  0.1417265E+00
          2   -1    0    0  502    0  0.00000000000E+00  0.00000000000E+00  0.23277767612E+04  0.23277767612E+04  0.00000000000E+00 0. -1.
          1   -1    0    0  501    0 -0.00000000000E+00 -0.00000000000E+00 -0.38778867767E+03  0.38778867767E+03  0.00000000000E+00 0. -1.
         25    2    1    2    0    0 -0.72837773891E+02  0.20822545086E+02  0.51536578907E+03  0.53569183811E+03  0.12499971676E+03 0.  0.
          2    1    1    2  501    0  0.31708806430E+02 -0.51369779897E+02 -0.37484610014E+03  0.37967604807E+03  0.00000000000E+00 0. -1.
          1    1    1    2  502    0  0.41128967460E+02  0.30547234812E+02  0.17994683946E+04  0.18001975527E+04  0.00000000000E+00 0. -1.
         22    1    3    3    0    0 -0.10790218519E+03  0.65910400407E+01  0.39419080839E+03  0.40874529575E+03  0.00000000000E+00 0.  1.
         22    1    3    3    0    0  0.35064411300E+02  0.14231505045E+02  0.12117498068E+03  0.12694654236E+03  0.00000000000E+00 0.  1.
</event>
<event>
 7    1  0.8792454E-005  0.4816780E+02  0.7818608E-02  0.1480685E+00
          2   -1    0    0  502    0  0.00000000000E+00  0.00000000000E+00  0.31273518591E+02  0.31273518591E+02  0.00000000000E+00 0. -1.
          1   -1    0    0  501    0 -0.00000000000E+00 -0.00000000000E+00 -0.18315638454E+04  0.18315638454E+04  0.00000000000E+00 0. -1.
         25    2    1    2    0    0 -0.33571430070E+02 -0.29130807261E+02 -0.12294451669E+03  0.18087575110E+03  0.12500015322E+03 0.  0.
          2    1    1    2  501    0 -0.39559327133E+02 -0.71046556109E+01 -0.40106273788E+03  0.40307162665E+03  0.00000000000E+00 0. -1.
          1    1    1    2  502    0  0.73130757204E+02  0.36235462872E+02 -0.12762830722E+04  0.12788899862E+04  0.00000000000E+00 0. -1.
         22    1    3    3    0    0  0.16515934395E+02 -0.47683161983E+02 -0.41585574964E+01  0.50633522750E+02  0.00000000000E+00 0.  1.
         22    1    3    3    0    0 -0.50087364465E+02  0.18552354722E+02 -0.11878595919E+03  0.13024222835E+03  0.00000000000E+00 0.  1.
</event>
<event>
 7    1  0.8792454E-005  0.2070577E+03  0.7818608E-02  0.1148998E+00
          2   -1    0    0  502    0  0.00000000000E+00  0.00000000000E+00  0.46247701743E+03  0.46247701743E+03  0.00000000000E+00 0. -1.
          1   -1    0    0  501    0 -0.00000000000E+00 -0.00000000000E+00 -0.14297775132E+04  0.14297775132E+04  0.00000000000E+00 0. -1.
         25    2    1    2    0    0  0.22720618027E+03  0.60830170206E+02  0.19199323361E+03  0.32834298220E+03  0.12499901700E+03 0.  0.
          2    1    1    2  501    0 -0.45460681889E+02 -0.18951163992E+03 -0.12907079850E+04  0.13053384380E+04  0.00000000000E+00 0. -1.
          1    1    1    2  502    0 -0.18174549838E+03  0.12868146972E+03  0.13141425563E+03  0.25857311038E+03  0.00000000000E+00 0. -1.
         22    1    3    3    0    0  0.13985432035E+02 -0.14926099111E+02  0.66542686822E+02  0.69615443066E+02  0.00000000000E+00 0.  1.
         22    1    3    3    0    0  0.21322074823E+03  0.75756269317E+02  0.12545054678E+03  0.25872753913E+03  0.00000000000E+00 0.  1.
</event>
<event>
 7    1  0.8792454E-005  0.3749381E+03  0.7818608E-02  0.1186452E+00
          2   -1    0    0  502    0  0.00000000000E+00  0.00000000000E+00  0.10367645919E+04  0.10367645919E+04  0.00000000000E+00 0. -1.
          1   -1    0    0  501    0 -0.00000000000E+00 -0.00000000000E+00 -0.67134087310E+03  0.67134087310E+03  0.00000000000E+00 0. -1.
         25    2    1    2    0    0 -0.53523726851E+02 -0.33751232727E+03  0.19884807905E+03  0.41466183218E+03  0.12499806450E+03 0.  0.
          2    1    1    2  501    0  0.43801259726E+02 -0.54602250218E+02 -0.50817391988E+03  0.51297240563E+03  0.00000000000E+00 0. -1.
          1    1    1    2  502    0  0.97224671246E+01  0.39211457749E+03  0.67474955959E+03  0.78047122715E+03  0.00000000000E+00 0. -1.
         22    1    3    3    0    0 -0.82814361956E+02 -0.28260123045E+03  0.13014476532E+03  0.32196169638E+03  0.00000000000E+00 0. -1.
         22    1    3    3    0    0  0.29290635105E+02 -0.54911096822E+02  0.68703313731E+02  0.92700135796E+02  0.00000000000E+00 0. -1.
</event>
<event>
 7    1  0.8792454E-005  0.3127799E+03  0.7818608E-02  0.1149198E+00
          2   -1    0    0  502    0  0.00000000000E+00  0.00000000000E+00  0.22700457348E+03  0.22700457348E+03  0.00000000000E+00 0. -1.
          1   -1    0    0  501    0 -0.00000000000E+00 -0.00000000000E+00 -0.18511559913E+04  0.18511559913E+04  0.00000000000E+00 0. -1.
         25    2    1    2    0    0  0.34663211608E+03 -0.71895514615E+02 -0.12469472632E+03  0.39559760743E+03  0.12500361321E+03 0.  0.
          2    1    1    2  501    0 -0.64225620830E+02  0.11153845655E+03 -0.13582641942E+04  0.13643487014E+04  0.00000000000E+00 0. -1.
          1    1    1    2  502    0 -0.28240649524E+03 -0.39642941939E+02 -0.14119249725E+03  0.31821425594E+03  0.00000000000E+00 0. -1.
         22    1    3    3    0    0  0.13603436993E+03 -0.21391399568E+02  0.14012638076E+02  0.13841710806E+03  0.00000000000E+00 0.  1.
         22    1    3    3    0    0  0.21059774614E+03 -0.50504115046E+02 -0.13870736439E+03  0.25718049937E+03  0.00000000000E+00 0.  1.
</event>
<event>
 7    1  0.8792454E-005  0.5213573E+03  0.7818608E-02  0.1072287E+00
          2   -1    0    0  502    0  0.00000000000E+00  0.00000000000E+00  0.25501574731E+04  0.25501574731E+04  0.00000000000E+00 0. -1.
          1   -1    0    0  501    0 -0.00000000000E+00 -0.00000000000E+00 -0.22165390182E+03  0.22165390182E+03  0.00000000000E+00 0. -1.
         25    2    1    2    0    0 -0.19377747078E+03  0.60442097409E+03  0.60087324119E+03  0.88292017227E+03  0.12499982611E+03 0.  0.
          2    1    1    2  501    0 -0.76914764734E+02 -0.19068928425E+03  0.21494055442E+03  0.29745205680E+03  0.00000000000E+00 0. -1.
          1    1    1    2  502    0  0.27069223551E+03 -0.41373168984E+03  0.15126897756E+04  0.15914391458E+04  0.00000000000E+00 0. -1.
         22    1    3    3    0    0 -0.20108510727E+03  0.56480598027E+03  0.52452987488E+03  0.79660065613E+03  0.00000000000E+00 0. -1.
         22    1    3    3    0    0  0.73076364885E+01  0.39614993815E+02  0.76343366312E+02  0.86319516135E+02  0.00000000000E+00 0. -1.
</event>
<event>
 7    1  0.8792454E-005  0.6333731E+02  0.7818608E-02  0.1432699E+00
          2   -1    0    0  502    0  0.00000000000E+00  0.00000000000E+00  0.18177421403E+04  0.18177421403E+04  0.00000000000E+00 0. -1.
          1   -1    0    0  501    0 -0.00000000000E+00 -0.00000000000E+00 -0.15144879938E+03  0.15144879938E+03  0.00000000000E+00 0. -1.
         25    2    1    2    0    0 -0.93415649306E+01 -0.10262265827E+03  0.43493725472E+03  0.46412736424E+03  0.12500047944E+03 0.  0.
          2    1    1    2  501    0 -0.68268972045E+01  0.62360120196E+02 -0.12930069727E+03  0.14371520946E+03  0.00000000000E+00 0. -1.
          1    1    1    2  502    0  0.16168462135E+02  0.40262538070E+02  0.13606567834E+04  0.13613483659E+04  0.00000000000E+00 0. -1.
         22    1    3    3    0    0 -0.22616034513E+02 -0.12954489701E+03  0.36719070720E+03  0.39002869230E+03  0.00000000000E+00 0. -1.
         22    1    3    3    0    0  0.13274469582E+02  0.26922238748E+02  0.67746547519E+02  0.74098671936E+02  0.00000000000E+00 0. -1.
</event>
<event>
 7    1  0.8792454E-005  0.2030856E+03  0.7818608E-02  0.1203943E+00
          2   -1    0    0  502    0  0.00000000000E+00  0.00000000000E+00  0.19649914221E+04  0.19649914221E+04  0.00000000000E+00 0. -1.
          1   -1    0    0  501    0 -0.00000000000E+00 -0.00000000000E+00 -0.13420207432E+04  0.13420207432E+04  0.00000000000E+00 0. -1.
         25    2    1    2    0    0 -0.21193537085E+02  0.15517572668E+03  0.17407450035E+04  0.17522405889E+04  0.12500096814E+03 0.  0.
          2    1    1    2  501    0 -0.80760198077E+02 -0.18667386347E+03 -0.13149423563E+04  0.13305798516E+04  0.00000000000E+00 0. -1.
          1    1    1    2  502    0  0.10195373516E+03  0.31498136787E+02  0.19716803181E+03  0.22419172487E+03  0.00000000000E+00 0. -1.
         22    1    3    3    0    0  0.38298996195E+02  0.84005185219E+02  0.12043819640E+04  0.12079153942E+04  0.00000000000E+00 0.  1.
         22    1    3    3    0    0 -0.59492533280E+02  0.71170541463E+02  0.53636303945E+03  0.54432519470E+03  0.00000000000E+00 0.  1.
</event>
<event>
 7    1  0.8792454E-005  0.4642880E+03  0.7818608E-02  0.1142428E+00
          2   -1    0    0  502    0  0.00000000000E+00  0.00000000000E+00  0.44050038568E+03  0.44050038568E+03  0.00000000000E+00 0. -1.
          1   -1    0    0  501    0 -0.00000000000E+00 -0.00000000000E+00 -0.17735712627E+04  0.17735712627E+04  0.00000000000E+00 0. -1.
         25    2    1    2    0    0 -0.47230782802E+03 -0.55351339993E+02 -0.10473626423E+04  0.11570357435E+04  0.12499900727E+03 0.  0.
          2    1    1    2  501    0  0.31309388460E+02 -0.88638600424E+02 -0.52617498416E+03  0.53450649504E+03  0.00000000000E+00 0. -1.
          1    1    1    2  502    0  0.44099843956E+03  0.14398994042E+03  0.24046674944E+03  0.52252940991E+03  0.00000000000E+00 0. -1.
         22    1    3    3    0    0 -0.33822657836E+03 -0.11625891279E+02 -0.84615976307E+03  0.91132800039E+03  0.00000000000E+00 0.  1.
         22    1    3    3    0    0 -0.13408124966E+03 -0.43725448714E+02 -0.20120287927E+03  0.24570774307E+03  0.00000000000E+00 0.  1.
</event>
<event>
 7    1  0.8792454E-005  0.1120073E+04  0.7818608E-02  0.1106628E+00
          2   -1    0    0  502    0  0.00000000000E+00  0.00000000000E+00  0.12477167965E+04  0.12477167965E+04  0.00000000000E+00 0. -1.
          1   -1    0    0  501    0 -0.00000000000E+00 -0.00000000000E+00 -0.13472415877E+04  0.13472415877E+04  0.00000000000E+00 0. -1.
         25    2    1    2    0    0 -0.11700587868E+03 -0.10992830565E+04 -0.52183306896E+03  0.12288399397E+04  0.12499692603E+03 0.  0.
          2    1    1    2  501    0  0.55154341732E+02 -0.25474346203E+02 -0.10580671155E+03  0.12200821257E+03  0.00000000000E+00 0. -1.
          1    1    1    2  502    0  0.61851536952E+02  0.11247574027E+04  0.52811498924E+03  0.12441102320E+04  0.00000000000E+00 0. -1.
         22    1    3    3    0    0 -0.10333142636E+03 -0.46195883025E+03 -0.25598679798E+03  0.53815665494E+03  0.00000000000E+00 0. -1.
         22    1    3    3    0    0 -0.13674452329E+02 -0.63732422623E+03 -0.26584627099E+03  0.69068328472E+03  0.00000000000E+00 0. -1.
</event>
<event>
 7    1  0.8792454E-005  0.1583113E+03  0.7818608E-02  0.1292152E+00
          2   -1    0    0  502    0  0.00000000000E+00  0.00000000000E+00  0.63466752094E+03  0.63466752094E+03  0.00000000000E+00 0. -1.
          1   -1    0    0  501    0 -0.00000000000E+00 -0.00000000000E+00 -0.28877465130E+04  0.28877465130E+04  0.00000000000E+00 0. -1.
         25    2    1    2    0    0  0.15340253873E+03 -0.10269870797E+03  0.55023031986E+03  0.59368164645E+03  0.12500051574E+03 0.  0.
          2    1    1    2  501    0 -0.10041966420E+03  0.12229457338E+03 -0.28506435843E+04  0.28550322093E+04  0.00000000000E+00 0. -1.
          1    1    1    2  502    0 -0.52982874528E+02 -0.19595865408E+02  0.47334272312E+02  0.73700178220E+02  0.00000000000E+00 0. -1.
         22    1    3    3    0    0  0.10057057225E+03 -0.12032544720E+03  0.31409860086E+03  0.35107062582E+03  0.00000000000E+00 0. -1.
         22    1    3    3    0    0  0.52831966478E+02  0.17626739228E+02  0.23613171900E+03  0.24261102064E+03  0.00000000000E+00 0. -1.
</event>
<event>
 7    1  0.8792454E-005  0.2462692E+03  0.7818608E-02  0.1274910E+00
          2   -1    0    0  502    0  0.00000000000E+00  0.00000000000E+00  0.24423922000E+04  0.24423922000E+04  0.00000000000E+00 0. -1.
          1   -1    0    0  501    0 -0.00000000000E+00 -0.00000000000E+00 -0.24480083662E+03  0.24480083662E+03  0.00000000000E+00 0. -1.
         25    2    1    2    0    0  0.23109743066E+02 -0.26880231378E+03 -0.68792788244E+02  0.30519850905E+03  0.12499975239E+03 0.  0.
          2    1    1    2  501    0  0.31103583317E+02  0.29327299202E+02 -0.42388621229E+02  0.60202313771E+02  0.00000000000E+00 0. -1.
          1    1    1    2  502    0 -0.54213326383E+02  0.23947501457E+03  0.23087727728E+04  0.23217922138E+04  0.00000000000E+00 0. -1.
         22    1    3    3    0    0  0.55309168935E+02 -0.21187560367E+03 -0.89553583392E+02  0.23658026100E+03  0.00000000000E+00 0. -1.
         22    1    3    3    0    0 -0.32199425869E+02 -0.56926710106E+02  0.20760795148E+02  0.68618248047E+02  0.00000000000E+00 0. -1.
</event>
<event>
 7    1  0.8792454E-005  0.2245563E+03  0.7818608E-02  0.1155362E+00
          2   -1    0    0  502    0  0.00000000000E+00  0.00000000000E+00  0.22143152117E+04  0.22143152117E+04  0.00000000000E+00 0. -1.
          1   -1    0    0  501    0 -0.00000000000E+00 -0.00000000000E+00 -0.27878839154E+03  0.27878839154E+03  0.00000000000E+00 0. -1.
         25    2    1    2    0    0 -0.25638956767E+03  0.27664501229E+01  0.88311459409E+03  0.92804026151E+03  0.12499630802E+03 0.  0.
          2    1    1    2  501    0  0.17197889591E+03 -0.14651422015E+03 -0.19992274013E+03  0.30168238159E+03  0.00000000000E+00 0. -1.
          1    1    1    2  502    0  0.84410671767E+02  0.14374777002E+03  0.12523349662E+04  0.12633809601E+04  0.00000000000E+00 0. -1.
         22    1    3    3    0    0 -0.25293218649E+03  0.21169185502E+02  0.86682661764E+03  0.90322268042E+03  0.00000000000E+00 0.  1.
         22    1    3    3    0    0 -0.34573811845E+01 -0.18402735379E+02  0.16287976456E+02  0.24817581089E+02  0.00000000000E+00 0.  1.
</event>
<event>
 7    1  0.8792454E-005  0.2890057E+03  0.7818608E-02  0.1091528E+00
          2   -1    0    0  502    0  0.00000000000E+00  0.00000000000E+00  0.26282770141E+03  0.26282770141E+03  0.00000000000E+00 0. -1.
          1   -1    0    0  501    0 -0.00000000000E+00 -0.00000000000E+00 -0.18713369859E+04  0.18713369859E+04  0.00000000000E+00 0. -1.
         25    2    1    2    0    0  0.27433872386E+03  0.98671517617E+02 -0.60834578374E+02  0.32299140101E+03  0.12499918162E+03 0.  0.
          2    1    1    2  501    0 -0.15452866767E+03  0.24125915617E+03 -0.13874769106E+04  0.14167488370E+04  0.00000000000E+00 0. -1.
          1    1    1    2  502    0 -0.11981005619E+03 -0.33993067379E+03 -0.16019779551E+03  0.39442444933E+03  0.00000000000E+00 0. -1.
         22    1    3    3    0    0  0.53174752206E+02 -0.14530561361E+02 -0.49810676180E+02  0.74295322512E+02  0.00000000000E+00 0. -1.
         22    1    3    3    0    0  0.22116397165E+03  0.11320207898E+03 -0.11023902194E+02  0.24869607850E+03  0.00000000000E+00 0. -1.
</event>
<event>
 7    1  0.8792454E-005  0.1912044E+03  0.7818608E-02  0.1180456E+00
          2   -1    0    0  502    0  0.00000000000E+00  0.00000000000E+00  0.13244520752E+03  0.13244520752E+03  0.00000000000E+00 0. -1.
          1   -1    0    0  501    0 -0.00000000000E+00 -0.00000000000E+00 -0.75405953698E+03  0.75405953698E+03  0.00000000000E+00 0. -1.
         25    2    1    2    0    0  0.17228864956E+03 -0.14505793858E+03 -0.47098810379E+03  0.53682188396E+03  0.12499102719E+03 0.  0.
          2    1    1    2  501    0 -0.14804968666E+03  0.29814189921E+00 -0.13240011881E+02  0.14864083061E+03  0.00000000000E+00 0. -1.
          1    1    1    2  502    0 -0.24238962892E+02  0.14475979669E+03 -0.13738621379E+03  0.20104202993E+03  0.00000000000E+00 0. -1.
         22    1    3    3    0    0 -0.83725669564E+00  0.54536079745E+01 -0.10324413290E+03  0.10339145911E+03  0.00000000000E+00 0.  1.
         22    1    3    3    0    0  0.17312590625E+03 -0.15051154656E+03 -0.36774397089E+03  0.43343042485E+03  0.00000000000E+00 0.  1.
</event>
<event>
 7    1  0.8792454E-005  0.2622821E+03  0.7818608E-02  0.1154875E+00
          2   -1    0    0  502    0  0.00000000000E+00  0.00000000000E+00  0.44724449688E+03  0.44724449688E+03  0.00000000000E+00 0. -1.
          1   -1    0    0  501    0 -0.00000000000E+00 -0.00000000000E+00 -0.38546027471E+03  0.38546027471E+03  0.00000000000E+00 0. -1.
         25    2    1    2    0    0 -0.22789373226E+03  0.21711332124E+03  0.49463349825E+02  0.34226429771E+03  0.12499791619E+03 0.  0.
          2    1    1    2  501    0  0.85571127429E+02 -0.23576506912E+03 -0.13492930466E+03  0.28480432392E+03  0.00000000000E+00 0. -1.
          1    1    1    2  502    0  0.14232260483E+03  0.18651747882E+02  0.14725017701E+03  0.20563614997E+03  0.00000000000E+00 0. -1.
         22    1    3    3    0    0 -0.29014635473E+02  0.11772695123E+02  0.46897328373E+02  0.56389758207E+02  0.00000000000E+00 0.  1.
         22    1    3    3    0    0 -0.19887909678E+03  0.20534062611E+03  0.25660214522E+01  0.28587453950E+03  0.00000000000E+00 0.  1.
</event>
<event>
 7    1  0.8792454E-005  0.3414189E+03  0.7818608E-02  0.1159102E+00
          2   -1    0    0  502    0  0.00000000000E+00  0.00000000000E+00  0.14977705347E+04  0.14977705347E+04  0.00000000000E+00 0. -1.
          1   -1    0    0  501    0 -0.00000000000E+00 -0.00000000000E+00 -0.30566417463E+04  0.30566417463E+04  0.00000000000E+00 0. -1.
         25    2    1    2    0    0  0.26315445565E+03 -0.23337698181E+03  0.14350107324E+03  0.39991521695E+03  0.12499815822E+03 0.  0.
          2    1    1    2  501    0  0.48694523026E+02  0.92966958125E+02 -0.29036185532E+04  0.29055145352E+04  0.00000000000E+00 0. -1.
          1    1    1    2  502    0 -0.31184897868E+03  0.14041002368E+03  0.12012462683E+04  0.12489825288E+04  0.00000000000E+00 0. -1.
         22    1    3    3    0    0  0.18685736042E+03 -0.83118219790E+02  0.85982052179E+02  0.22184955466E+03  0.00000000000E+00 0.  1.
         22    1    3    3    0    0  0.76297095229E+02 -0.15025876202E+03  0.57519021065E+02  0.17806566229E+03  0.00000000000E+00 0.  1.
</event>
<event>
 7    1  0.8792454E-005  0.2470488E+03  0.7818608E-02  0.1196876E+00
          2   -1    0    0  502    0  0.00000000000E+00  0.00000000000E+00  0.14690193270E+04  0.14690193270E+04  0.00000000000E+00 0. -1.
          1   -1    0    0  501    0 -0.00000000000E+00 -0.00000000000E+00 -0.45636631795E+03  0.45636631795E+03  0.00000000000E+00 0. -1.
         25    2    1    2    0    0  0.17157988219E+03 -0.28915099567E+03  0.13119304849E+04  0.13600860927E+04  0.12499851220E+03 0.  0.
          2    1    1    2  501    0 -0.10671934266E+03  0.22013403532E+03 -0.37245426674E+03  0.44561215470E+03  0.00000000000E+00 0. -1.
          1    1    1    2  502    0 -0.64860539537E+02  0.69016960354E+02  0.73176790862E+02  0.11968739753E+03  0.00000000000E+00 0. -1.
         22    1    3    3    0    0  0.12476832689E+03 -0.89263895383E+02  0.55858601035E+03  0.57926980706E+03  0.00000000000E+00 0.  1.
         22    1    3    3    0    0  0.46811555304E+02 -0.19988710029E+03  0.75334447458E+03  0.78081628566E+03  0.00000000000E+00 0.  1.
</event>
<event>
 7    1  0.8792454E-005  0.1103531E+03  0.7818608E-02  0.1331553E+00
          2   -1    0    0  502    0  0.00000000000E+00  0.00000000000E+00  0.76871718010E+02  0.76871718010E+02  0.00000000000E+00 0. -1.
          1   -1    0    0  501    0 -0.00000000000E+00 -0.00000000000E+00 -0.11931995542E+04  0.11931995542E+04  0.00000000000E+00 0. -1.
         25    2    1    2    0    0 -0.11049842491E+03  0.70903374593E+01 -0.80022239118E+03  0.81746035321E+03  0.12500151571E+03 0.  0.
          2    1    1    2  501    0  0.99143478281E+02 -0.62676163772E+02 -0.36143586399E+03  0.37999159803E+03  0.00000000000E+00 0. -1.
          1    1    1    2  502    0  0.11354946627E+02  0.55585826312E+02  0.45330418957E+02  0.72619321000E+02  0.00000000000E+00 0. -1.
         22    1    3    3    0    0 -0.26522343555E+01  0.18961230927E+02 -0.45910282163E+03  0.45950186447E+03  0.00000000000E+00 0.  1.
         22    1    3    3    0    0 -0.10784619055E+03 -0.11870893468E+02 -0.34111956956E+03  0.35795848874E+03  0.00000000000E+00 0.  1.
</event>
<event>
 7    1  0.2748046E-004  0.1214942E+03  0.7818608E-02  0.1335321E+00
          2   -1    0    0  502    0  0.00000000000E+00  0.00000000000E+00  0.12986549826E+04  0.12986549826E+04  0.00000000000E+00 0. -1.
          1   -1    0    0  501    0 -0.00000000000E+00 -0.00000000000E+00 -0.27205257743E+04  0.27205257743E+04  0.00000000000E+00 0. -1.
         25    2    1    2    0    0 -0.64771470763E+02  0.35951586991E+02 -0.10463606543E+04  0.10564011012E+04  0.12499923045E+03 0.  0.
          2    1    1    2  501    0 -0.49548239125E+02  0.55672584300E+01 -0.16659123146E+04  0.16666582920E+04  0.00000000000E+00 0. -1.
          1    1    1    2  502    0  0.11431970989E+03 -0.41518845421E+02  0.12904021772E+04  0.12961213637E+04  0.00000000000E+00 0. -1.
         22    1    3    3    0    0 -0.33872703890E+02  0.20031642110E+02 -0.77515333260E+02  0.86932466000E+02  0.00000000000E+00 0. -1.
         22    1    3    3    0    0 -0.30898766874E+02  0.15919944881E+02 -0.96884532105E+03  0.96946863516E+03  0.00000000000E+00 0. -1.
</event>
<event>
 7    1  0.8792454E-005  0.8461420E+02  0.7818608E-02  0.1362720E+00
          2   -1    0    0  502    0  0.00000000000E+00  0.00000000000E+00  0.21514372803E+04  0.21514372803E+04  0.00000000000E+00 0. -1.
          1   -1    0    0  501    0 -0.00000000000E+00 -0.00000000000E+00 -0.36149591974E+03  0.36149591974E+03  0.00000000000E+00 0. -1.
         25    2    1    2    0    0  0.54036642723E+02  0.79040305407E+02 -0.28824628425E+03  0.32844891801E+03  0.12500177087E+03 0.  0.
          2    1    1    2  501    0 -0.73971953542E+02 -0.26015657230E+02 -0.23635320764E+02  0.81898062978E+02  0.00000000000E+00 0. -1.
          1    1    1    2  502    0  0.19935310819E+02 -0.53024648177E+02  0.21018229656E+04  0.21025862190E+04  0.00000000000E+00 0. -1.
         22    1    3    3    0    0  0.58716639048E+02 -0.98431296921E+00 -0.50163426947E+02  0.77233295774E+02  0.00000000000E+00 0. -1.
         22    1    3    3    0    0 -0.46799963251E+01  0.80024618376E+02 -0.23808285731E+03  0.25121562224E+03  0.00000000000E+00 0. -1.
</event>
<event>
 7    1  0.8792454E-005  0.1379573E+03  0.7818608E-02  0.1218810E+00
          2   -1    0    0  502    0  0.00000000000E+00  0.00000000000E+00  0.24576392612E+04  0.24576392612E+04  0.00000000000E+00 0. -1.
          1   -1    0    0  501    0 -0.00000000000E+00 -0.00000000000E+00 -0.27594565159E+03  0.27594565159E+03  0.00000000000E+00 0. -1.
         25    2    1    2    0    0  0.12203791868E+03 -0.20685738955E+03 -0.77534649570E+02  0.28163855066E+03  0.12500167248E+03 0.  0.
          2    1    1    2  501    0 -0.59366394194E+01  0.13394625565E+03 -0.46676100965E+02  0.14197007252E+03  0.00000000000E+00 0. -1.
          1    1    1    2  502    0 -0.11610127926E+03  0.72911133907E+02  0.23059043601E+04  0.23099762896E+04  0.00000000000E+00 0. -1.
         22    1    3    3    0    0  0.13429672471E+03 -0.21525236404E+03 -0.64278588061E+02  0.26172681822E+03  0.00000000000E+00 0.  1.
         22    1    3    3    0    0 -0.12258806034E+02  0.83949744822E+01 -0.13256061508E+02  0.19911732437E+02  0.00000000000E+00 0.  1.
</event>
<event>
 7    1  0.8792454E-005  0.8612976E+02  0.7818608E-02  0.1451616E+00
          2   -1    0    0  502    0  0.00000000000E+00  0.00000000000E+00  0.28139609730E+03  0.28139609730E+03  0.00000000000E+00 0. -1.
          1   -1    0    0  501    0 -0.00000000000E+00 -0.00000000000E+00 -0.75805260570E+03  0.75805260570E+03  0.00000000000E+00 0. -1.
         25    2    1    2    0    0  0.57949032302E+02  0.92843338410E+02 -0.37932275515E+02  0.17041692281E+03  0.12500037689E+03 0.  0.
          2    1    1    2  501    0 -0.49088196580E+01 -0.27273868143E+02 -0.64530460921E+03  0.64589937224E+03  0.00000000000E+00 0. -1.
          1    1    1    2  502    0 -0.53040212644E+02 -0.65569470268E+02  0.20658037633E+03  0.22313240794E+03  0.00000000000E+00 0. -1.
         22    1    3    3    0    0  0.76753361552E+02  0.11038361195E+03 -0.48062799934E+02  0.14277833531E+03  0.00000000000E+00 0.  1.
         22    1    3    3    0    0 -0.18804329250E+02 -0.17540273535E+02  0.10130524418E+02  0.27638587504E+02  0.00000000000E+00 0.  1.
</event>
<event>
 7    1  0.8792454E-005  0.4098846E+02  0.7818608E-02  0.1557377E+00
          2   -1    0    0  502    0  0.00000000000E+00  0.00000000000E+00  0.31093067271E+03  0.31093067271E+03  0.00000000000E+00 0. -1.
          1   -1    0    0  501    0 -0.00000000000E+00 -0.00000000000E+00 -0.91712895458E+03  0.91712895458E+03  0.00000000000E+00 0. -1.
         25    2    1    2    0    0 -0.90179938637E+01 -0.11479895774E+02 -0.24896364180E+03  0.27896451538E+03  0.12500077474E+03 0.  0.
          2    1    1    2  501    0 -0.26950737183E+02 -0.84841244238E+01 -0.65142751041E+03  0.65203997111E+03  0.00000000000E+00 0. -1.
          1    1    1    2  502    0  0.35968731047E+02  0.19964020198E+02  0.29419287034E+03  0.29705514080E+03  0.00000000000E+00 0. -1.
         22    1    3    3    0    0 -0.53320333031E+02 -0.36656477729E+02 -0.19162969691E+03  0.20225898252E+03  0.00000000000E+00 0. -1.
         22    1    3    3    0    0  0.44302339167E+02  0.25176581955E+02 -0.57333944887E+02  0.76705532858E+02  0.00000000000E+00 0. -1.
</event>
<event>
 7    1  0.8792454E-005  0.3290014E+03  0.7818608E-02  0.1221984E+00
          2   -1    0    0  502    0  0.00000000000E+00  0.00000000000E+00  0.53843066633E+03  0.53843066633E+03  0.00000000000E+00 0. -1.
          1   -1    0    0  501    0 -0.00000000000E+00 -0.00000000000E+00 -0.33936519730E+03  0.33936519730E+03  0.00000000000E+00 0. -1.
         25    2    1    2    0    0 -0.30557045192E+03 -0.17771046187E+03 -0.53343993069E+02  0.37871492086E+03  0.12500040138E+03 0.  0.
          2    1    1    2  501    0  0.26563244460E+03  0.14080303728E+03  0.69926737552E+02  0.30866784665E+03  0.00000000000E+00 0. -1.
          1    1    1    2  502    0  0.39938007314E+02  0.36907424589E+02  0.18248272455E+03  0.19041309613E+03  0.00000000000E+00 0. -1.
         22    1    3    3    0    0 -0.27798337093E+03 -0.10496963058E+03 -0.42596547733E+02  0.30017968575E+03  0.00000000000E+00 0.  1.
         22    1    3    3    0    0 -0.27587080991E+02 -0.72740831284E+02 -0.10747445336E+02  0.78535235117E+02  0.00000000000E+00 0.  1.
</event>
<event>
 7    1  0.8792454E-005  0.1779247E+03  0.7818608E-02  0.1174187E+00
          2   -1    0    0  502    0  0.00000000000E+00  0.00000000000E+00  0.11789546402E+04  0.11789546402E+04  0.00000000000E+00 0. -1.
          1   -1    0    0  501    0 -0.00000000000E+00 -0.00000000000E+00 -0.47877218741E+03  0.47877218741E+03  0.00000000000E+00 0. -1.
         25    2    1    2    0    0 -0.65455219058E+02 -0.10663753942E+03 -0.15804687008E+03  0.23719012241E+03  0.12499756202E+03 0.  0.
          2    1    1    2  501    0  0.24315883837E+03  0.97770469271E+02 -0.21108880823E+03  0.33651711739E+03  0.00000000000E+00 0. -1.
          1    1    1    2  502    0 -0.17770361931E+03  0.88670701505E+01  0.10693181311E+04  0.10840195878E+04  0.00000000000E+00 0. -1.
         22    1    3    3    0    0 -0.71403301695E+02 -0.23476431281E+02 -0.23221985127E+02  0.78669148412E+02  0.00000000000E+00 0.  1.
         22    1    3    3    0    0  0.59480826373E+01 -0.83161108140E+02 -0.13482488495E+03  0.15852097400E+03  0.00000000000E+00 0.  1.
</event>
<event>
 7    1  0.8792454E-005  0.1360415E+03  0.7818608E-02  0.1402035E+00
          2   -1    0    0  502    0  0.00000000000E+00  0.00000000000E+00  0.23149495217E+04  0.23149495217E+04  0.00000000000E+00 0. -1.
          1   -1    0    0  501    0 -0.00000000000E+00 -0.00000000000E+00 -0.50514969373E+03  0.50514969373E+03  0.00000000000E+00 0. -1.
         25    2    1    2    0    0 -0.10333489157E+03  0.46703911000E+02  0.22941562117E+04  0.23003573394E+04  0.12502723787E+03 0.  0.
          2    1    1    2  501    0  0.11820446026E+03 -0.67538010803E+02 -0.47214827524E+03  0.49138342579E+03  0.00000000000E+00 0. -1.
          1    1    1    2  502    0 -0.14869568689E+02  0.20834099803E+02 -0.12208108473E+02  0.28358450241E+02  0.00000000000E+00 0. -1.
         22    1    3    3    0    0  0.16500018982E+02 -0.24354527929E+02  0.37779104020E+03  0.37893464306E+03  0.00000000000E+00 0. -1.
         22    1    3    3    0    0 -0.11983491055E+03  0.71058438930E+02  0.19163651715E+04  0.19214226964E+04  0.00000000000E+00 0. -1.
</event>
<event>
 7    1  0.8792454E-005  0.1856133E+03  0.7818608E-02  0.1223613E+00
          2   -1    0    0  502    0  0.00000000000E+00  0.00000000000E+00  0.15222802659E+04  0.15222802659E+04  0.00000000000E+00 0. -1.
          1   -1    0    0  501    0 -0.00000000000E+00 -0.00000000000E+00 -0.55210510446E+02  0.55210510446E+02  0.00000000000E+00 0. -1.
         25    2    1    2    0    0  0.62096369067E+02  0.18069797466E+03  0.91291605149E+03  0.94103568774E+03  0.12499892572E+03 0.  0.
          2    1    1    2  501    0 -0.14027602245E+03 -0.12714462986E+03  0.22562873180E+03  0.29453598081E+03  0.00000000000E+00 0. -1.
          1    1    1    2  502    0  0.78179653388E+02 -0.53553344801E+02  0.32852497217E+03  0.34191910781E+03  0.00000000000E+00 0. -1.
         22    1    3    3    0    0 -0.37082077876E+02  0.72544075680E+02  0.34000661102E+03  0.34963154743E+03  0.00000000000E+00 0. -1.
         22    1    3    3    0    0  0.99178446943E+02  0.10815389898E+03  0.57290944047E+03  0.59140414031E+03  0.00000000000E+00 0. -1.
</event>
<event>
 7    1  0.8792454E-005  0.1796855E+03  0.7818608E-02  0.1207428E+00
          2   -1    0    0  502    0  0.00000000000E+00  0.00000000000E+00  0.91366518043E+03  0.91366518043E+03  0.00000000000E+00 0. -1.
          1   -1    0    0  501    0 -0.00000000000E+00 -0.00000000000E+00 -0.57250957762E+03  0.57250957762E+03  0.00000000000E+00 0. -1.
         25    2    1    2    0    0 -0.12707252013E+03  0.11529473240E+02 -0.25093978019E+03  0.30802371061E+03  0.12500991518E+03 0.  0.
          2    1    1    2  501    0 -0.24090459283E+02 -0.11364283729E+03 -0.27160029331E+03  0.29540102238E+03  0.00000000000E+00 0. -1.
          1    1    1    2  502    0  0.15116297941E+03  0.10211336405E+03  0.86369567631E+03  0.88275002506E+03  0.00000000000E+00 0. -1.
         22    1    3    3    0    0  0.13234387150E+02 -0.26284613763E+02 -0.70156090449E+02  0.76078294874E+02  0.00000000000E+00 0.  1.
         22    1    3    3    0    0 -0.14030690728E+03  0.37814087003E+02 -0.18078368974E+03  0.23194541574E+03  0.00000000000E+00 0.  1.
</event>
<event>
 7    1  0.8792454E-005  0.6350663E+03  0.7818608E-02  0.1000634E+00
          2   -1    0    0  502    0  0.00000000000E+00  0.00000000000E+00  0.97093329792E+03  0.97093329792E+03  0.00000000000E+00 0. -1.
          1   -1    0    0  501    0 -0.00000000000E+00 -0.00000000000E+00 -0.11196812248E+04  0.11196812248E+04  0.00000000000E+00 0. -1.
         25    2    1    2    0    0  0.14285125621E+03  0.33802321416E+03  0.54754255705E+03  0.67089504972E+03  0.12502456258E+03 0.  0.
          2    1    1    2  501    0 -0.62295971082E+03 -0.38901832462E+03 -0.54224341499E+03  0.91293043508E+03  0.00000000000E+00 0. -1.
          1    1    1    2  502    0  0.48010845461E+03  0.50995110463E+02 -0.15404706888E+03  0.50678903788E+03  0.00000000000E+00 0. -1.
         22    1    3    3    0    0  0.17765802223E+02  0.16598820404E+03  0.17462304435E+03  0.24158003897E+03  0.00000000000E+00 0. -1.
         22    1    3    3    0    0  0.12508545399E+03  0.17203501011E+03  0.37291951269E+03  0.42931501075E+03  0.00000000000E+00 0. -1.
</event>
<event>
 7    1  0.8792454E-005  0.2301733E+03  0.7818608E-02  0.1181932E+00
          2   -1    0    0  502    0  0.00000000000E+00  0.00000000000E+00  0.15407606783E+04  0.15407606783E+04  0.00000000000E+00 0. -1.
          1   -1    0    0  501    0 -0.00000000000E+00 -0.00000000000E+00 -0.93772238791E+03  0.93772238791E+03  0.00000000000E+00 0. -1.
         25    2    1    2    0    0  0.16112125862E+03  0.46484339608E+02  0.37612706993E+03  0.43036820509E+03  0.12499746160E+03 0.  0.
          2    1    1    2  501    0  0.66181966134E+02  0.10000714077E+03 -0.89045371284E+03  0.89849279105E+03  0.00000000000E+00 0. -1.
          1    1    1    2  502    0 -0.22730322476E+03 -0.14649148038E+03  0.11173649333E+04  0.11496220701E+04  0.00000000000E+00 0. -1.
         22    1    3    3    0    0  0.10823690901E+03  0.85205860916E+00  0.10653383863E+03  0.15187301686E+03  0.00000000000E+00 0.  1.
         22    1    3    3    0    0  0.52884349611E+02  0.45632280999E+02  0.26959323130E+03  0.27849518823E+03  0.00000000000E+00 0.  1.
</event>
<event>
 7    1  0.8792454E-005  0.1547912E+03  0.7818608E-02  0.1267884E+00
          2   -1    0    0  502    0  0.00000000000E+00  0.00000000000E+00  0.10478324318E+04  0.10478324318E+04  0.00000000000E+00 0. -1.
          1   -1    0    0  501    0 -0.00000000000E+00 -0.00000000000E+00 -0.42855619958E+03  0.42855619958E+03  0.00000000000E+00 0. -1.
         25    2    1    2    0    0 -0.58735240322E+02 -0.14656894333E+03 -0.32671439423E+03  0.38379687929E+03  0.12500186221E+03 0.  0.
          2    1    1    2  501    0  0.72358962201E+02 -0.78538036821E+01 -0.47608674939E+02  0.86971763076E+02  0.00000000000E+00 0. -1.
          1    1    1    2  502    0 -0.13623721880E+02  0.15442274702E+03  0.99359930135E+03  0.10056199890E+04  0.00000000000E+00 0. -1.
         22    1    3    3    0    0 -0.26771164149E+00  0.51593370381E+01 -0.12316723853E+03  0.12327554127E+03  0.00000000000E+00 0.  1.
         22    1    3    3    0    0 -0.58467528680E+02 -0.15172828037E+03 -0.20354715570E+03  0.26052133803E+03  0.00000000000E+00 0.  1.
</event>
<event>
 7    1  0.8792454E-005  0.4600140E+03  0.7818608E-02  0.1099669E+00
          2   -1    0    0  502    0  0.00000000000E+00  0.00000000000E+00  0.27295954262E+04  0.27295954262E+04  0.00000000000E+00 0. -1.
          1   -1    0    0  501    0 -0.00000000000E+00 -0.00000000000E+00 -0.10539903091E+04  0.10539903091E+04  0.00000000000E+00 0. -1.
         25    2    1    2    0    0  0.43607971166E+03 -0.24743589336E+03  0.14640882961E+04  0.15526013411E+04  0.12500539802E+03 0.  0.
          2    1    1    2  501    0 -0.10021622738E+02  0.16150641583E+03 -0.96410503959E+03  0.97759054959E+03  0.00000000000E+00 0. -1.
          1    1    1    2  502    0 -0.42605808892E+03  0.85929477529E+02  0.11756218606E+04  0.12533938445E+04  0.00000000000E+00 0. -1.
         22    1    3    3    0    0  0.36875462841E+03 -0.20434702809E+03  0.13420885970E+04  0.14067478402E+04  0.00000000000E+00 0. -1.
         22    1    3    3    0    0  0.67325083251E+02 -0.43088865260E+02  0.12199969910E+03  0.14585350090E+03  0.00000000000E+00 0. -1.
</event>
<event>
 7    1  0.8792454E-005  0.2605146E+03  0.7818608E-02  0.1162465E+00
          2   -1    0    0  502    0  0.00000000000E+00  0.00000000000E+00  0.25622903540E+04  0.25622903540E+04  0.00000000000E+00 0. -1.
          1   -1    0    0  501    0 -0.00000000000E+00 -0.00000000000E+00 -0.62256020895E+03  0.62256020895E+03  0.00000000000E+00 0. -1.
         25    2    1    2    0    0  0.72269102882E+02 -0.13876162588E+03  0.70992649109E+03  0.73762944164E+03  0.12499583341E+03 0.  0.
          2    1    1    2  501    0 -0.28470980255E+02  0.26356785455E+03 -0.57731281471E+03  0.63527056967E+03  0.00000000000E+00 0. -1.
          1    1    1    2  502    0 -0.43798122626E+02 -0.12480622866E+03  0.18071164687E+04  0.18119505516E+04  0.00000000000E+00 0. -1.
         22    1    3    3    0    0 -0.14149108704E+02  0.34936055981E+01  0.88181383379E+01  0.17034145736E+02  0.00000000000E+00 0.  1.
         22    1    3    3    0    0  0.86418211586E+02 -0.14225523148E+03  0.70110835275E+03  0.72059529590E+03  0.00000000000E+00 0.  1.
</event>
<event>
 7    1  0.8792454E-005  0.2327578E+03  0.7818608E-02  0.1142516E+00
          2   -1    0    0  502    0  0.00000000000E+00  0.00000000000E+00  0.33912816203E+04  0.33912816203E+04  0.00000000000E+00 0. -1.
          1   -1    0    0  501    0 -0.00000000000E+00 -0.00000000000E+00 -0.17988483520E+03  0.17988483520E+03  0.00000000000E+00 0. -1.
         25    2    1    2    0    0  0.16079065633E+03 -0.85342245759E+02  0.21291848985E+04  0.21406055402E+04  0.12500725015E+03 0.  0.
          2    1    1    2  501    0 -0.12199647437E+03 -0.19822472615E+03 -0.70220984247E+02  0.24311965869E+03  0.00000000000E+00 0. -1.
          1    1    1    2  502    0 -0.38794181956E+02  0.28356697190E+03  0.11524328709E+04  0.11874412567E+04  0.00000000000E+00 0. -1.
         22    1    3    3    0    0  0.56435874626E+00 -0.55954603587E+02  0.42886572307E+03  0.43250091860E+03  0.00000000000E+00 0. -1.
         22    1    3    3    0    0  0.16022629758E+03 -0.29387642172E+02  0.17003191754E+04  0.17081046215E+04  0.00000000000E+00 0. -1.
</event>
<event>
 7    1  0.8792454E-005  0.1901723E+03  0.7818608E-02  0.1182120E+00
          2   -1    0    0  502    0  0.00000000000E+00  0.00000000000E+00  0.51732416469E+03  0.51732416469E+03  0.00000000000E+00 0. -1.
          1   -1    0    0  501    0 -0.00000000000E+00 -0.00000000000E+00 -0.57163897609E+03  0.57163897609E+03  0.00000000000E+00 0. -1.
         25    2    1    2    0    0  0.21365074199E+03  0.12319639606E+02  0.14820339040E+03  0.28878046937E+03  0.12502600326E+03 0.  0.
          2    1    1    2  501    0 -0.15153787463E+03  0.11852824830E+03 -0.46342242462E+03  0.50176988424E+03  0.00000000000E+00 0. -1.
          1    1    1    2  502    0 -0.62112867352E+02 -0.13084788790E+03  0.26090422281E+03  0.29841278716E+03  0.00000000000E+00 0. -1.
         22    1    3    3    0    0  0.16037424283E+02 -0.38891219461E+02  0.38517944168E+02  0.57038214836E+02  0.00000000000E+00 0.  1.
         22    1    3    3    0    0  0.19761331770E+03  0.51210859067E+02  0.10968544623E+03  0.23174225453E+03  0.00000000000E+00 0.  1.
</event>
<event>
 7    1  0.8792454E-005  0.6195133E+03  0.7818608E-02  0.1064391E+00
          2   -1    0    0  502    0  0.00000000000E+00  0.00000000000E+00  0.91708302589E+03  0.91708302589E+03  0.00000000000E+00 0. -1.
          1   -1    0    0  501    0 -0.00000000000E+00 -0.00000000000E+00 -0.10472292194E+04  0.10472292194E+04  0.00000000000E+00 0. -1.
         25    2    1    2    0    0  0.32597817001E+03  0.56648295172E+03 -0.69531837890E+03  0.96242152751E+03  0.12499138637E+03 0.  0.
          2    1    1    2  501    0 -0.38088759919E+03 -0.38154748877E+03  0.17531166703E+03  0.56691095421E+03  0.00000000000E+00 0. -1.
          1    1    1    2  502    0  0.54909429177E+02 -0.18493546294E+03  0.38986051840E+03  0.43497976352E+03  0.00000000000E+00 0. -1.
         22    1    3    3    0    0  0.20529323806E+03  0.25069705705E+03 -0.38845694425E+03  0.50585880001E+03  0.00000000000E+00 0. -1.
         22    1    3    3    0    0  0.12068493195E+03  0.31578589466E+03 -0.30686143465E+03  0.45656272750E+03  0.00000000000E+00 0. -1.
</event>
<event>
 7    1  0.8792454E-005  0.2373539E+03  0.7818608E-02  0.1180986E+00
          2   -1    0    0  502    0  0.00000000000E+00  0.00000000000E+00  0.12818672624E+04  0.12818672624E+04  0.00000000000E+00 0. -1.
          1   -1    0    0  501    0 -0.00000000000E+00 -0.00000000000E+00 -0.41308261229E+04  0.41308261229E+04  0.00000000000E+00 0. -1.
         25    2    1    2    0    0 -0.25943270179E+03 -0.17387098277E+03 -0.22927893835E+04  0.23173357862E+04  0.12500217432E+03 0.  0.
          2    1    1    2  501    0  0.30145404529E+02  0.11360322195E+03 -0.18127762836E+04  0.18165825860E+04  0.00000000000E+00 0. -1.
          1    1    1    2  502    0  0.22928729726E+03  0.60267760818E+02  0.12566068066E+04  0.12787750131E+04  0.00000000000E+00 0. -1.
         22    1    3    3    0    0  0.80246422755E+01 -0.54527364838E+01 -0.15992425455E+02  0.18705210256E+02  0.00000000000E+00 0. -1.
         22    1    3    3    0    0 -0.26745734407E+03 -0.16841824629E+03 -0.22767969581E+04  0.22986305760E+04  0.00000000000E+00 0. -1.
</event>
<event>
 7    1  0.8792454E-005  0.6075626E+03  0.7818608E-02  0.1136331E+00
          2   -1    0    0  502    0  0.00000000000E+00  0.00000000000E+00  0.68899448708E+03  0.68899448708E+03  0.00000000000E+00 0. -1.
          1   -1    0    0  501    0 -0.00000000000E+00 -0.00000000000E+00 -0.15103625742E+04  0.15103625742E+04  0.00000000000E+00 0. -1.
         25    2    1    2    0    0 -0.10342070111E+02 -0.65256029775E+03 -0.37923187756E+03  0.76510369312E+03  0.12499977459E+03 0.  0.
          2    1    1    2  501    0  0.48990883951E+02  0.59825028951E+02 -0.75770286448E+03  0.76163821572E+03  0.00000000000E+00 0. -1.
          1    1    1    2  502    0 -0.38648813839E+02  0.59273526880E+03  0.31556665488E+03  0.67261515249E+03  0.00000000000E+00 0. -1.
         22    1    3    3    0    0 -0.16071663178E+02 -0.55015455127E+02  0.73054494858E-01  0.57314954393E+02  0.00000000000E+00 0.  1.
         22    1    3    3    0    0  0.57295930662E+01 -0.59754484262E+03 -0.37930493205E+03  0.70778873872E+03  0.00000000000E+00 0.  1.
</event>
<event>
 7    1  0.8792454E-005  0.1042716E+03  0.7818608E-02  0.1303430E+00
          2   -1    0    0  502    0  0.00000000000E+00  0.00000000000E+00  0.60245765775E+03  0.60245765775E+03  0.00000000000E+00 0. -1.
          1   -1    0    0  501    0 -0.00000000000E+00 -0.00000000000E+00 -0.10064658660E+03  0.10064658660E+03  0.00000000000E+00 0. -1.
         25    2    1    2    0    0  0.11084884520E+03 -0.41525905174E+02  0.14338311386E+02  0.17274941753E+03  0.12499962720E+03 0.  0.
          2    1    1    2  501    0 -0.11556840588E+02  0.76401716542E+02  0.87344467124E+02  0.11661834672E+03  0.00000000000E+00 0. -1.
          1    1    1    2  502    0 -0.99292004617E+02 -0.34875811368E+02  0.40012829264E+03  0.41373648010E+03  0.00000000000E+00 0. -1.
         22    1    3    3    0    0 -0.61976833952E+01 -0.54076801526E+02  0.51474841708E+01  0.54673653034E+02  0.00000000000E+00 0. -1.
         22    1    3    3    0    0  0.11704652860E+03  0.12550896352E+02  0.91908272151E+01  0.11807576450E+03  0.00000000000E+00 0. -1.
</event>
<event>
 7    1  0.8792454E-005  0.2164787E+03  0.7818608E-02  0.1357447E+00
          2   -1    0    0  502    0  0.00000000000E+00  0.00000000000E+00  0.37347228264E+04  0.37347228264E+04  0.00000000000E+00 0. -1.
          1   -1    0    0  501    0 -0.00000000000E+00 -0.00000000000E+00 -0.60668848408E+03  0.60668848408E+03  0.00000000000E+00 0. -1.
         25    2    1    2    0    0 -0.20806838271E+03 -0.36548818879E+02  0.24584709108E+04  0.24706947120E+04  0.12499948891E+03 0.  0.
          2    1    1    2  501    0  0.21602202040E+03  0.14813415908E+02 -0.58094937739E+03  0.61998962062E+03  0.00000000000E+00 0. -1.
          1    1    1    2  502    0 -0.79536376944E+01  0.21735402971E+02  0.12505128089E+04  0.12507269779E+04  0.00000000000E+00 0. -1.
         22    1    3    3    0    0 -0.16433700646E+03 -0.78533611342E+02  0.19899384159E+04  0.19982565098E+04  0.00000000000E+00 0. -1.
         22    1    3    3    0    0 -0.43731376246E+02  0.41984792463E+02  0.46853249490E+03  0.47243820214E+03  0.00000000000E+00 0. -1.
</event>
<event>
 7    1  0.8792454E-005  0.5527670E+03  0.7818608E-02  0.1109657E+00
          2   -1    0    0  502    0  0.00000000000E+00  0.00000000000E+00  0.20000501973E+04  0.20000501973E+04  0.00000000000E+00 0. -1.
          1   -1    0    0  501    0 -0.00000000000E+00 -0.00000000000E+00 -0.38329715346E+03  0.38329715346E+03  0.00000000000E+00 0. -1.
         25    2    1    2    0    0 -0.41136702022E+03  0.43219459214E+03  0.10367552417E+04  0.12027059612E+04  0.12500082855E+03 0.  0.
          2    1    1    2  501    0  0.25593781455E+01 -0.11840215747E+03 -0.20784271965E+03  0.23921583857E+03  0.00000000000E+00 0. -1.
          1    1    1    2  502    0  0.40880764208E+03 -0.31379243467E+03  0.78784052176E+03  0.94142555096E+03  0.00000000000E+00 0. -1.
         22    1    3    3    0    0 -0.15918771067E+03  0.90179644838E+02  0.27161718093E+03  0.32748891363E+03  0.00000000000E+00 0. -1.
         22    1    3    3    0    0 -0.25217930955E+03  0.34201494730E+03  0.76513806081E+03  0.87521704762E+03  0.00000000000E+00 0. -1.
</event>
<event>
 7    1  0.8792454E-005  0.7536039E+03  0.7818608E-02  0.1026462E+00
          2   -1    0    0  502    0  0.00000000000E+00  0.00000000000E+00  0.13003931436E+04  0.13003931436E+04  0.00000000000E+00 0. -1.
          1   -1    0    0  501    0 -0.00000000000E+00 -0.00000000000E+00 -0.15891231146E+04  0.15891231146E+04  0.00000000000E+00 0. -1.
         25    2    1    2    0    0 -0.86321615173E+03 -0.10140492484E+03 -0.97070451945E+03  0.13089374002E+04  0.12499908079E+03 0.  0.
          2    1    1    2  501    0  0.60867809507E+03  0.49783738704E+00 -0.21283319310E+03  0.64481566308E+03  0.00000000000E+00 0. -1.
          1    1    1    2  502    0  0.25453805665E+03  0.10090708745E+03  0.89480774151E+03  0.93576319486E+03  0.00000000000E+00 0. -1.
         22    1    3    3    0    0 -0.76735764824E+02  0.15180957271E+02 -0.13074247980E+03  0.15235627683E+03  0.00000000000E+00 0.  1.
         22    1    3    3    0    0 -0.78648038690E+03 -0.11658588211E+03 -0.83996203965E+03  0.11565811234E+04  0.00000000000E+00 0.  1.
</event>
<event>
 7    1  0.8792454E-005  0.7485088E+02  0.7818608E-02  0.1446584E+00
          2   -1    0    0  502    0  0.00000000000E+00  0.00000000000E+00  0.20634444424E+03  0.20634444424E+03  0.00000000000E+00 0. -1.
          1   -1    0    0  501    0 -0.00000000000E+00 -0.00000000000E+00 -0.90061324566E+02  0.90061324566E+02  0.00000000000E+00 0. -1.
         25    2    1    2    0    0 -0.18074295374E+02 -0.78266263875E+02  0.11575644396E+03  0.18835373810E+03  0.12500115249E+03 0.  0.
          2    1    1    2  501    0 -0.14667388894E+02  0.73452429999E+02 -0.12173372105E+01  0.74912440086E+02  0.00000000000E+00 0. -1.
          1    1    1    2  502    0  0.32741684268E+02  0.48138338755E+01  0.17440129251E+01  0.33139590618E+02  0.00000000000E+00 0. -1.
         22    1    3    3    0    0  0.31712715902E+02  0.36124747888E+01 -0.69468404591E+01  0.32665041196E+02  0.00000000000E+00 0.  1.
         22    1    3    3    0    0 -0.49787011275E+02 -0.81878738664E+02  0.12270328442E+03  0.15568869690E+03  0.00000000000E+00 0.  1.
</event>
<event>
 7    1  0.8792454E-005  0.1198508E+03  0.7818608E-02  0.1346729E+00
          2   -1    0    0  502    0  0.00000000000E+00  0.00000000000E+00  0.11549672257E+03  0.11549672257E+03  0.00000000000E+00 0. -1.
          1   -1    0    0  501    0 -0.00000000000E+00 -0.00000000000E+00 -0.75939131254E+03  0.75939131254E+03  0.00000000000E+00 0. -1.
         25    2    1    2    0    0  0.46951953407E+01 -0.11928526837E+03 -0.21142658578E+03  0.27308503002E+03  0.12499284913E+03 0.  0.
          2    1    1    2  501    0  0.40853644239E+02  0.11454631049E+03 -0.50311896533E+03  0.51760851110E+03  0.00000000000E+00 0. -1.
          1    1    1    2  502    0 -0.45548839579E+02  0.47389578800E+01  0.70650961140E+02  0.84194493993E+02  0.00000000000E+00 0. -1.
         22    1    3    3    0    0  0.32654039859E+02 -0.24391345745E+02 -0.15268693753E+03  0.15803330332E+03  0.00000000000E+00 0. -1.
         22    1    3    3    0    0 -0.27958844519E+02 -0.94893922629E+02 -0.58739648253E+02  0.11505172670E+03  0.00000000000E+00 0. -1.
</event>
<event>
 7    1  0.8792454E-005  0.1922086E+03  0.7818608E-02  0.1208467E+00
          2   -1    0    0  502    0  0.00000000000E+00  0.00000000000E+00  0.21588319247E+03  0.21588319247E+03  0.00000000000E+00 0. -1.
          1   -1    0    0  501    0 -0.00000000000E+00 -0.00000000000E+00 -0.12058495890E+04  0.12058495890E+04  0.00000000000E+00 0. -1.
         25    2    1    2    0    0 -0.16312006810E+03 -0.49040685397E+02 -0.86245064507E+02  0.22820224700E+03  0.12499963578E+03 0.  0.
          2    1    1    2  501    0  0.18827379187E+02 -0.10573455730E+03 -0.96678361957E+03  0.97273060704E+03  0.00000000000E+00 0. -1.
          1    1    1    2  502    0  0.14429268891E+03  0.15477524269E+03  0.63062287570E+02  0.22079992739E+03  0.00000000000E+00 0. -1.
         22    1    3    3    0    0 -0.87675420883E+01  0.11964219258E+02 -0.57973296115E+02  0.59840750322E+02  0.00000000000E+00 0. -1.
         22    1    3    3    0    0 -0.15435252601E+03 -0.61004904655E+02 -0.28271768392E+02  0.16836149668E+03  0.00000000000E+00 0. -1.
</event>
<event>
 7    1  0.8792454E-005  0.5209039E+03  0.7818608E-02  0.1175424E+00
          2   -1    0    0  502    0  0.00000000000E+00  0.00000000000E+00  0.34161741058E+03  0.34161741058E+03  0.00000000000E+00 0. -1.
          1   -1    0    0  501    0 -0.00000000000E+00 -0.00000000000E+00 -0.14988912545E+04  0.14988912545E+04  0.00000000000E+00 0. -1.
         25    2    1    2    0    0  0.36935085920E+03 -0.30229645260E+03 -0.69975545789E+02  0.49832190702E+03  0.12499977427E+03 0.  0.
          2    1    1    2  501    0 -0.42056632477E+03  0.32736551287E+03 -0.11438248549E+04  0.12618952061E+04  0.00000000000E+00 0. -1.
          1    1    1    2  502    0  0.51215465577E+02 -0.25069060277E+02  0.56526556746E+02  0.80291551953E+02  0.00000000000E+00 0. -1.
         22    1    3    3    0    0  0.36604921701E+03 -0.30687643547E+03 -0.82356738611E+02  0.48471415115E+03  0.00000000000E+00 0. -1.
         22    1    3    3    0    0  0.33016421808E+01  0.45799828774E+01  0.12381192822E+02  0.13607755874E+02  0.00000000000E+00 0. -1.
</event>
<event>
 7    1  0.8792454E-005  0.7487886E+02  0.7818608E-02  0.1403493E+00
          2   -1    0    0  502    0  0.00000000000E+00  0.00000000000E+00  0.11206554912E+03  0.11206554912E+03  0.00000000000E+00 0. -1.
          1   -1    0    0  501    0 -0.00000000000E+00 -0.00000000000E+00 -0.31902427463E+03  0.31902427463E+03  0.00000000000E+00 0. -1.
         25    2    1    2    0    0  0.38295751460E+02  0.80924277842E+02 -0.41202621756E+02  0.15916994301E+03  0.12498844505E+03 0.  0.
          2    1    1    2  501    0 -0.61884038922E+02 -0.41465192946E+02 -0.20076254251E+03  0.21413686038E+03  0.00000000000E+00 0. -1.
          1    1    1    2  502    0  0.23588287462E+02 -0.39459084896E+02  0.35006438753E+02  0.57783020347E+02  0.00000000000E+00 0. -1.
         22    1    3    3    0    0  0.40076268360E+02 -0.11295750337E+02 -0.51649683651E+02  0.66342980658E+02  0.00000000000E+00 0. -1.
         22    1    3    3    0    0 -0.17805169002E+01  0.92220028179E+02  0.10447061896E+02  0.92826962355E+02  0.00000000000E+00 0. -1.
</event>
<event>
 7    1  0.8792454E-005  0.7271463E+02  0.7818608E-02  0.1472817E+00
          2   -1    0    0  502    0  0.00000000000E+00  0.00000000000E+00  0.12973831054E+04  0.12973831054E+04  0.00000000000E+00 0. -1.
          1   -1    0    0  501    0 -0.00000000000E+00 -0.00000000000E+00 -0.11805824759E+02  0.11805824759E+02  0.00000000000E+00 0. -1.
         25    2    1    2    0    0  0.43710246041E+02  0.40555791520E+02  0.70673808361E+03  0.72018097426E+03  0.12500623595E+03 0.  0.
          2    1    1    2  501    0 -0.14481958247E+01  0.28115475111E+02  0.13510936797E+03  0.13801129854E+03  0.00000000000E+00 0. -1.
          1    1    1    2  502    0 -0.42262050216E+02 -0.68671266631E+02  0.44372982902E+03  0.45099665732E+03  0.00000000000E+00 0. -1.
         22    1    3    3    0    0  0.53596441979E+02  0.57795055370E+02  0.68914976697E+03  0.69364273825E+03  0.00000000000E+00 0. -1.
         22    1    3    3    0    0 -0.98861959378E+01 -0.17239263850E+02  0.17588316647E+02  0.26538236013E+02  0.00000000000E+00 0. -1.
</event>
<event>
 7    1  0.8792454E-005  0.1538064E+03  0.7818608E-02  0.1240659E+00
          2   -1    0    0  502    0  0.00000000000E+00  0.00000000000E+00  0.38070891435E+03  0.38070891435E+03  0.00000000000E+00 0. -1.
          1   -1    0    0  501    0 -0.00000000000E+00 -0.00000000000E+00 -0.35930732576E+03  0.35930732576E+03  0.00000000000E+00 0. -1.
         25    2    1    2    0    0 -0.17712283368E+03  0.15700506785E+02 -0.35870755628E+02  0.22029545175E+03  0.12499748327E+03 0.  0.
          2    1    1    2  501    0  0.40806014866E+02 -0.86855556819E+02 -0.19895733419E+03  0.22089146527E+03  0.00000000000E+00 0. -1.
          1    1    1    2  502    0  0.13631681882E+03  0.71155050034E+02  0.25622967841E+03  0.29882932309E+03  0.00000000000E+00 0. -1.
         22    1    3    3    0    0 -0.14713264243E+03  0.61081909281E+02 -0.88378774476E+01  0.15955288210E+03  0.00000000000E+00 0.  1.
         22    1    3    3    0    0 -0.29990191254E+02 -0.45381402496E+02 -0.27032878180E+02  0.60742569642E+02  0.00000000000E+00 0.  1.
</event>
<event>
 7    1  0.8792454E-005  0.1049813E+03  0.7818608E-02  0.1418270E+00
          2   -1    0    0  502    0  0.00000000000E+00  0.00000000000E+00  0.52783926351E+03  0.52783926351E+03  0.00000000000E+00 0. -1.
          1   -1    0    0  501    0 -0.00000000000E+00 -0.00000000000E+00 -0.31625877918E+03  0.31625877918E+03  0.00000000000E+00 0. -1.
         25    2    1    2    0    0  0.89267003580E+02 -0.24933075700E+02 -0.37929309389E+02  0.16016979057E+03  0.12500189242E+03 0.  0.
          2    1    1    2  501    0  0.16643243668E+02  0.24020741110E+02 -0.21017637367E+03  0.21219826016E+03  0.00000000000E+00 0. -1.
          1    1    1    2  502    0 -0.10591024725E+03  0.91233458986E+00  0.45968616739E+03  0.47172999197E+03  0.00000000000E+00 0. -1.
         22    1    3    3    0    0  0.14396198175E+02  0.37141720051E+02  0.22420262802E+02  0.45710240366E+02  0.00000000000E+00 0.  1.
         22    1    3    3    0    0  0.74870805405E+02 -0.62074795751E+02 -0.60349572191E+02  0.11445955020E+03  0.00000000000E+00 0.  1.
</event>
<event>
 7    1  0.8792454E-005  0.1039352E+03  0.7818608E-02  0.1307745E+00
          2   -1    0    0  502    0  0.00000000000E+00  0.00000000000E+00  0.18476232354E+03  0.18476232354E+03  0.00000000000E+00 0. -1.
          1   -1    0    0  501    0 -0.00000000000E+00 -0.00000000000E+00 -0.25533737549E+03  0.25533737549E+03  0.00000000000E+00 0. -1.
         25    2    1    2    0    0  0.43774441884E+02  0.10780379704E+03 -0.65024872269E+02  0.18270474028E+03  0.12495970426E+03 0.  0.
          2    1    1    2  501    0 -0.74235952643E+02 -0.65464737834E+01 -0.93705903645E+02  0.11972731251E+03  0.00000000000E+00 0. -1.
          1    1    1    2  502    0  0.30461510759E+02 -0.10125732326E+03  0.88155723964E+02  0.13766764623E+03  0.00000000000E+00 0. -1.
         22    1    3    3    0    0  0.80437964209E+02  0.61681554919E+02 -0.70591041691E+02  0.12352317787E+03  0.00000000000E+00 0.  1.
         22    1    3    3    0    0 -0.36663522324E+02  0.46122242122E+02  0.55661694221E+01  0.59181562412E+02  0.00000000000E+00 0.  1.
</event>
<event>
 7    1  0.8792454E-005  0.3469667E+03  0.7818608E-02  0.1076843E+00
          2   -1    0    0  502    0  0.00000000000E+00  0.00000000000E+00  0.98167123441E+03  0.98167123441E+03  0.00000000000E+00 0. -1.
          1   -1    0    0  501    0 -0.00000000000E+00 -0.00000000000E+00 -0.12985632163E+04  0.12985632163E+04  0.00000000000E+00 0. -1.
         25    2    1    2    0    0 -0.79240547780E+02  0.36839170502E+03 -0.10020291912E+04  0.10778112971E+04  0.12499271720E+03 0.  0.
          2    1    1    2  501    0 -0.19609250938E+03 -0.27610099212E+03 -0.10988116698E+03  0.35603075842E+03  0.00000000000E+00 0. -1.
          1    1    1    2  502    0  0.27533305716E+03 -0.92290712892E+02  0.79501837628E+03  0.84639239521E+03  0.00000000000E+00 0. -1.
         22    1    3    3    0    0 -0.70548957947E+02  0.80706667112E+02 -0.22615707028E+03  0.25027533243E+03  0.00000000000E+00 0.  1.
         22    1    3    3    0    0 -0.86915898321E+01  0.28768503790E+03 -0.77587212092E+03  0.82753596465E+03  0.00000000000E+00 0.  1.
</event>
<event>
 7    1  0.8792454E-005  0.3019053E+03  0.7818608E-02  0.1271537E+00
          2   -1    0    0  502    0  0.00000000000E+00  0.00000000000E+00  0.16396978590E+03  0.16396978590E+03  0.00000000000E+00 0. -1.
          1   -1    0    0  501    0 -0.00000000000E+00 -0.00000000000E+00 -0.17019369690E+04  0.17019369690E+04  0.00000000000E+00 0. -1.
         25    2    1    2    0    0  0.25376422830E+03  0.15789285943E+03 -0.14581285704E+04  0.14936834428E+04  0.12499944311E+03 0.  0.
          2    1    1    2  501    0 -0.28900590533E+03 -0.15043745089E+03 -0.60660308602E+02  0.33141441276E+03  0.00000000000E+00 0. -1.
          1    1    1    2  502    0  0.35241677036E+02 -0.74554085376E+01 -0.19178304058E+02  0.40808899315E+02  0.00000000000E+00 0. -1.
         22    1    3    3    0    0  0.92973797276E+02  0.54140890691E+02 -0.27711850658E+03  0.29727097018E+03  0.00000000000E+00 0. -1.
         22    1    3    3    0    0  0.16079043102E+03  0.10375196874E+03 -0.11810100638E+04  0.11964124726E+04  0.00000000000E+00 0. -1.
</event>
<event>
 7    1  0.8792454E-005  0.3090477E+03  0.7818608E-02  0.1090815E+00
          2   -1    0    0  502    0  0.00000000000E+00  0.00000000000E+00  0.30500180466E+04  0.30500180466E+04  0.00000000000E+00 0. -1.
          1   -1    0    0  501    0 -0.00000000000E+00 -0.00000000000E+00 -0.20328526760E+03  0.20328526760E+03  0.00000000000E+00 0. -1.
         25    2    1    2    0    0  0.33595639760E+03 -0.29567547644E+03  0.47519800546E+03  0.66462996831E+03  0.12501664655E+03 0.  0.
          2    1    1    2  501    0 -0.66548770930E+02  0.27185979697E+03  0.94168448296E+02  0.29530354683E+03  0.00000000000E+00 0. -1.
          1    1    1    2  502    0 -0.26940762667E+03  0.23815679476E+02  0.22773663252E+04  0.22933697990E+04  0.00000000000E+00 0. -1.
         22    1    3    3    0    0  0.29066339194E+03 -0.18361662529E+03  0.35056436244E+03  0.49101491292E+03  0.00000000000E+00 0.  1.
         22    1    3    3    0    0  0.45293005667E+02 -0.11205885115E+03  0.12463364302E+03  0.17361505539E+03  0.00000000000E+00 0.  1.
</event>
<event>
 7    1  0.8792454E-005  0.7492882E+03  0.7818608E-02  0.1141944E+00
          2   -1    0    0  502    0  0.00000000000E+00  0.00000000000E+00  0.34868647574E+04  0.34868647574E+04  0.00000000000E+00 0. -1.
          1   -1    0    0  501    0 -0.00000000000E+00 -0.00000000000E+00 -0.15623977044E+04  0.15623977044E+04  0.00000000000E+00 0. -1.
         25    2    1    2    0    0  0.61080096318E+03 -0.37435810910E+03 -0.35120648194E+03  0.80758475861E+03  0.12500135563E+03 0.  0.
          2    1    1    2  501    0 -0.64607270401E+03  0.42113993681E+03 -0.83142004863E+03  0.11340317820E+04  0.00000000000E+00 0. -1.
          1    1    1    2  502    0  0.35271740832E+02 -0.46781827713E+02  0.31070935835E+04  0.31076459212E+04  0.00000000000E+00 0. -1.
         22    1    3    3    0    0  0.26967624626E+03 -0.18935087195E+03 -0.22697331231E+03  0.40011987579E+03  0.00000000000E+00 0.  1.
         22    1    3    3    0    0  0.34112471692E+03 -0.18500723715E+03 -0.12423316964E+03  0.40746488281E+03  0.00000000000E+00 0.  1.
</event>
<event>
 7    1  0.8792454E-005  0.9694960E+02  0.7818608E-02  0.1305519E+00
          2   -1    0    0  502    0  0.00000000000E+00  0.00000000000E+00  0.67600277278E+02  0.67600277278E+02  0.00000000000E+00 0. -1.
          1   -1    0    0  501    0 -0.00000000000E+00 -0.00000000000E+00 -0.12047304528E+04  0.12047304528E+04  0.00000000000E+00 0. -1.
         25    2    1    2    0    0 -0.11976979821E+03 -0.30823316695E+02 -0.15420218268E+03  0.23387620735E+03  0.12499954322E+03 0.  0.
          2    1    1    2  501    0  0.66747999065E+02 -0.46821909499E+02 -0.92378931215E+03  0.92738033181E+03  0.00000000000E+00 0. -1.
          1    1    1    2  502    0  0.53021799148E+02  0.77645226194E+02 -0.59138680706E+02  0.11107419093E+03  0.00000000000E+00 0. -1.
         22    1    3    3    0    0 -0.12503883876E+03  0.16310844217E+02 -0.94230459774E+02  0.15741707146E+03  0.00000000000E+00 0.  1.
         22    1    3    3    0    0  0.52690405428E+01 -0.47134160912E+02 -0.59971722909E+02  0.76459135895E+02  0.00000000000E+00 0.  1.
</event>
<event>
 7    1  0.8792454E-005  0.3134016E+03  0.7818608E-02  0.1150058E+00
          2   -1    0    0  502    0  0.00000000000E+00  0.00000000000E+00  0.14285078429E+03  0.14285078429E+03  0.00000000000E+00 0. -1.
          1   -1    0    0  501    0 -0.00000000000E+00 -0.00000000000E+00 -0.13999725257E+04  0.13999725257E+04  0.00000000000E+00 0. -1.
         25    2    1    2    0    0  0.29329228032E+03  0.22667222170E+03 -0.41555392864E+03  0.57071051623E+03  0.12499907177E+03 0.  0.
          2    1    1    2  501    0 -0.12713467981E+03 -0.19501347986E+01 -0.56423702365E+03  0.57838607236E+03  0.00000000000E+00 0. -1.
          1    1    1    2  502    0 -0.16615760051E+03 -0.22472208690E+03 -0.27733078909E+03  0.39372672138E+03  0.00000000000E+00 0. -1.
         22    1    3    3    0    0  0.22744810993E+03  0.18722508635E+03 -0.24310201952E+03  0.38194825247E+03  0.00000000000E+00 0. -1.
         22    1    3    3    0    0  0.65844170392E+02  0.39447135350E+02 -0.17245190912E+03  0.18876226376E+03  0.00000000000E+00 0. -1.
</event>
<event>
 7    1  0.8792454E-005  0.6564236E+03  0.7818608E-02  0.1013465E+00
          2   -1    0    0  502    0  0.00000000000E+00  0.00000000000E+00  0.91539399753E+03  0.91539399753E+03  0.00000000000E+00 0. -1.
          1   -1    0    0  501    0 -0.00000000000E+00 -0.00000000000E+00 -0.22105810124E+04  0.22105810124E+04  0.00000000000E+00 0. -1.
         25    2    1    2    0    0 -0.14394166872E+03  0.67213517958E+03 -0.19449154120E+04  0.20665931811E+04  0.12500605022E+03 0.  0.
          2    1    1    2  501    0 -0.12204835146E+03 -0.39700064106E+03  0.49610012729E+03  0.64700899947E+03  0.00000000000E+00 0. -1.
          1    1    1    2  502    0  0.26599002018E+03 -0.27513453851E+03  0.15362826985E+03  0.41237282938E+03  0.00000000000E+00 0. -1.
         22    1    3    3    0    0 -0.66980807730E+02  0.33262433750E+03 -0.11448324875E+04  0.11940547738E+04  0.00000000000E+00 0. -1.
         22    1    3    3    0    0 -0.76960860992E+02  0.33951084207E+03 -0.80008292452E+03  0.87253840725E+03  0.00000000000E+00 0. -1.
</event>
<event>
 7    1  0.8792454E-005  0.1332224E+03  0.7818608E-02  0.1385008E+00
          2   -1    0    0  502    0  0.00000000000E+00  0.00000000000E+00  0.21806004456E+02  0.21806004456E+02  0.00000000000E+00 0. -1.
          1   -1    0    0  501    0 -0.00000000000E+00 -0.00000000000E+00 -0.16693824355E+04  0.16693824355E+04  0.00000000000E+00 0. -1.
         25    2    1    2    0    0 -0.15070404370E+02  0.13470168059E+03 -0.10722438113E+04  0.10879809756E+04  0.12499661024E+03 0.  0.
          2    1    1    2  501    0 -0.28596336986E+02 -0.88990149596E+01 -0.32143819211E+02  0.43933678081E+02  0.00000000000E+00 0. -1.
          1    1    1    2  502    0  0.43666741356E+02 -0.12580266563E+03 -0.54318880060E+03  0.55927378633E+03  0.00000000000E+00 0. -1.
         22    1    3    3    0    0  0.36475707904E+02  0.33044035839E+02 -0.60647657804E+03  0.60847039803E+03  0.00000000000E+00 0. -1.
         22    1    3    3    0    0 -0.51546112275E+02  0.10165764475E+03 -0.46576723324E+03  0.47951057756E+03  0.00000000000E+00 0. -1.
</event>
<event>
 7    1  0.8792454E-005  0.5690194E+03  0.7818608E-02  0.1124743E+00
          2   -1    0    0  502    0  0.00000000000E+00  0.00000000000E+00  0.15468071650E+04  0.15468071650E+04  0.00000000000E+00 0. -1.
          1   -1    0    0  501    0 -0.00000000000E+00 -0.00000000000E+00 -0.13780387570E+04  0.13780387570E+04  0.00000000000E+00 0. -1.
         25    2    1    2    0    0 -0.58859377652E+03 -0.23209920272E+02  0.71975697476E+03  0.93843324046E+03  0.12500203975E+03 0.  0.
          2    1    1    2  501    0  0.46121738540E+02 -0.83253276816E+02 -0.11600088590E+04  0.11639067298E+04  0.00000000000E+00 0. -1.
          1    1    1    2  502    0  0.54247203798E+03  0.10646319709E+03  0.60902029223E+03  0.82250595176E+03  0.00000000000E+00 0. -1.
         22    1    3    3    0    0 -0.13014724426E+03  0.45880040877E+02  0.14861950641E+03  0.20280789192E+03  0.00000000000E+00 0.  1.
         22    1    3    3    0    0 -0.45844653226E+03 -0.69089961150E+02  0.57113746834E+03  0.73562534854E+03  0.00000000000E+00 0.  1.
</event>
<event>
 7    1  0.8792454E-005  0.1153017E+03  0.7818608E-02  0.1444876E+00
          2   -1    0    0  502    0  0.00000000000E+00  0.00000000000E+00  0.11521916334E+04  0.11521916334E+04  0.00000000000E+00 0. -1.
          1   -1    0    0  501    0 -0.00000000000E+00 -0.00000000000E+00 -0.14814077724E+03  0.14814077724E+03  0.00000000000E+00 0. -1.
         25    2    1    2    0    0 -0.11106085030E+03  0.73971710870E+02  0.38558622965E+02  0.18687147540E+03  0.12501141723E+03 0.  0.
          2    1    1    2  501    0  0.10547865946E+02 -0.19029430207E+02 -0.69152497537E+02  0.72494445344E+02  0.00000000000E+00 0. -1.
          1    1    1    2  502    0  0.10051298435E+03 -0.54942280663E+02  0.10346447307E+04  0.10409664899E+04  0.00000000000E+00 0. -1.
         22    1    3    3    0    0 -0.79444944544E+02  0.97464345347E+01  0.72183893969E+02  0.10778221907E+03  0.00000000000E+00 0. -1.
         22    1    3    3    0    0 -0.31615905753E+02  0.64225276335E+02 -0.33625271004E+02  0.79089256331E+02  0.00000000000E+00 0. -1.
</event>
<event>
 7    1  0.8792454E-005  0.2051778E+03  0.7818608E-02  0.1214128E+00
          2   -1    0    0  502    0  0.00000000000E+00  0.00000000000E+00  0.49160075677E+03  0.49160075677E+03  0.00000000000E+00 0. -1.
          1   -1    0    0  501    0 -0.00000000000E+00 -0.00000000000E+00 -0.10094193994E+04  0.10094193994E+04  0.00000000000E+00 0. -1.
         25    2    1    2    0    0 -0.18367061370E+03 -0.67455236566E+02 -0.12682296547E+03  0.26456260511E+03  0.12499681665E+03 0.  0.
          2    1    1    2  501    0  0.20924538535E+03 -0.23747377533E+02 -0.79452541725E+03  0.82195997949E+03  0.00000000000E+00 0. -1.
          1    1    1    2  502    0 -0.25574771645E+02  0.91202614099E+02  0.40352974005E+03  0.41449757161E+03  0.00000000000E+00 0. -1.
         22    1    3    3    0    0 -0.49475546650E+02  0.35365439683E+02 -0.17674557110E+02  0.63331935146E+02  0.00000000000E+00 0. -1.
         22    1    3    3    0    0 -0.13419506705E+03 -0.10282067625E+03 -0.10914840836E+03  0.20123066996E+03  0.00000000000E+00 0. -1.
</event>
<event>
 7    1  0.8792454E-005  0.2108288E+03  0.7818608E-02  0.1273869E+00
          2   -1    0    0  502    0  0.00000000000E+00  0.00000000000E+00  0.76210015136E+03  0.76210015136E+03  0.00000000000E+00 0. -1.
          1   -1    0    0  501    0 -0.00000000000E+00 -0.00000000000E+00 -0.38480001443E+03  0.38480001443E+03  0.00000000000E+00 0. -1.
         25    2    1    2    0    0 -0.10313056372E+03  0.15491652491E+03 -0.84135354990E+02  0.23945552304E+03  0.12500058676E+03 0.  0.
          2    1    1    2  501    0 -0.50099088915E+02 -0.58341441375E+01 -0.20315094615E+03  0.20931856790E+03  0.00000000000E+00 0. -1.
          1    1    1    2  502    0  0.15322965264E+03 -0.14908238078E+03  0.66458643807E+03  0.69812607484E+03  0.00000000000E+00 0. -1.
         22    1    3    3    0    0 -0.74462835836E+02  0.17347103563E+03 -0.80105454592E+02  0.20507022695E+03  0.00000000000E+00 0. -1.
         22    1    3    3    0    0 -0.28667727889E+02 -0.18554510721E+02 -0.40299003982E+01  0.34385296096E+02  0.00000000000E+00 0. -1.
</event>
<event>
 7    1  0.8792454E-005  0.2719115E+03  0.7818608E-02  0.1141378E+00
          2   -1    0    0  502    0  0.00000000000E+00  0.00000000000E+00  0.10395597438E+04  0.10395597438E+04  0.00000000000E+00 0. -1.
          1   -1    0    0  501    0 -0.00000000000E+00 -0.00000000000E+00 -0.37568759997E+03  0.37568759997E+03  0.00000000000E+00 0. -1.
         25    2    1    2    0    0 -0.31271878615E+03 -0.90359061802E+01  0.63139180406E+03  0.71564967504E+03  0.12499664130E+03 0.  0.
          2    1    1    2  501    0  0.22823189288E+03  0.14790748894E+03 -0.25276244631E+03  0.37128867001E+03  0.00000000000E+00 0. -1.
          1    1    1    2  502    0  0.84486893271E+02 -0.13887158276E+03  0.28524278604E+03  0.32830899869E+03  0.00000000000E+00 0. -1.
         22    1    3    3    0    0 -0.15419283908E+03  0.56148217021E+02  0.34138586802E+03  0.37877746076E+03  0.00000000000E+00 0.  1.
         22    1    3    3    0    0 -0.15852594707E+03 -0.65184123202E+02  0.29000593605E+03  0.33687221428E+03  0.00000000000E+00 0.  1.
</event>
<event>
 7    1  0.8792454E-005  0.3175388E+03  0.7818608E-02  0.1178498E+00
          2   -1    0    0  502    0  0.00000000000E+00  0.00000000000E+00  0.10408669744E+04  0.10408669744E+04  0.00000000000E+00 0. -1.
          1   -1    0    0  501    0 -0.00000000000E+00 -0.00000000000E+00 -0.23215359308E+04  0.23215359308E+04  0.00000000000E+00 0. -1.
         25    2    1    2    0    0 -0.61822383805E+02  0.26711211736E+03 -0.19806090666E+03  0.36058369128E+03  0.12498634043E+03 0.  0.
          2    1    1    2  501    0 -0.70453091794E+01 -0.32559327077E+03 -0.20270605729E+04  0.20530550846E+04  0.00000000000E+00 0. -1.
          1    1    1    2  502    0  0.68867692984E+02  0.58481153410E+02  0.94445252320E+03  0.94876412929E+03  0.00000000000E+00 0. -1.
         22    1    3    3    0    0 -0.18658931041E+02  0.83021234464E+02  0.22552595541E+01  0.85122072784E+02  0.00000000000E+00 0. -1.
         22    1    3    3    0    0 -0.43163452764E+02  0.18409088289E+03 -0.20031616622E+03  0.27546161850E+03  0.00000000000E+00 0. -1.
</event>
<event>
 7    1  0.8792454E-005  0.2575491E+03  0.7818608E-02  0.1173615E+00
          2   -1    0    0  502    0  0.00000000000E+00  0.00000000000E+00  0.84885237624E+03  0.84885237624E+03  0.00000000000E+00 0. -1.
          1   -1    0    0  501    0 -0.00000000000E+00 -0.00000000000E+00 -0.34108219742E+03  0.34108219742E+03  0.00000000000E+00 0. -1.
         25    2    1    2    0    0  0.79341755353E+02  0.16882296194E+03  0.31963031232E+03  0.39061997156E+03  0.12499647597E+03 0.  0.
          2    1    1    2  501    0 -0.19529977155E+03 -0.18911937470E+03 -0.23546573773E+03  0.35965574136E+03  0.00000000000E+00 0. -1.
          1    1    1    2  502    0  0.11595801619E+03  0.20296412761E+02  0.42360560423E+03  0.43965886074E+03  0.00000000000E+00 0. -1.
         22    1    3    3    0    0  0.42411827312E+01 -0.19710776633E+02  0.17724827921E+02  0.26845332393E+02  0.00000000000E+00 0.  1.
         22    1    3    3    0    0  0.75100572622E+02  0.18853373857E+03  0.30190548440E+03  0.36377463916E+03  0.00000000000E+00 0.  1.
</event>
<event>
 7    1  0.8792454E-005  0.1483300E+03  0.7818608E-02  0.1241760E+00
          2   -1    0    0  502    0  0.00000000000E+00  0.00000000000E+00  0.15486654473E+04  0.15486654473E+04  0.00000000000E+00 0. -1.
          1   -1    0    0  501    0 -0.00000000000E+00 -0.00000000000E+00 -0.27676539380E+03  0.27676539380E+03  0.00000000000E+00 0. -1.
         25    2    1    2    0    0 -0.22842126411E+02  0.21752244511E+03  0.14854743951E+03  0.29245470133E+03  0.12500253470E+03 0.  0.
          2    1    1    2  501    0 -0.34383596642E+02 -0.13747016386E+03 -0.17821957004E+03  0.22768946575E+03  0.00000000000E+00 0. -1.
          1    1    1    2  502    0  0.57225723053E+02 -0.80052281254E+02  0.13015721841E+04  0.13052866741E+04  0.00000000000E+00 0. -1.
         22    1    3    3    0    0 -0.73116632972E+02  0.10412671742E+03  0.85668702861E+02  0.15338690279E+03  0.00000000000E+00 0.  1.
         22    1    3    3    0    0  0.50274506561E+02  0.11339572769E+03  0.62878736650E+02  0.13906779854E+03  0.00000000000E+00 0.  1.
</event>
<event>
 7    1  0.8792454E-005  0.1523255E+03  0.7818608E-02  0.1244618E+00
          2   -1    0    0  502    0  0.00000000000E+00  0.00000000000E+00  0.26509491786E+04  0.26509491786E+04  0.00000000000E+00 0. -1.
          1   -1    0    0  501    0 -0.00000000000E+00 -0.00000000000E+00 -0.11769776980E+03  0.11769776980E+03  0.00000000000E+00 0. -1.
         25    2    1    2    0    0 -0.93844446275E+02 -0.20640542061E+03  0.16341876899E+04  0.16545708959E+04  0.12500186414E+03 0.  0.
          2    1    1    2  501    0  0.98449349668E+02  0.11342424374E+03 -0.51643358649E+02  0.15882181843E+03  0.00000000000E+00 0. -1.
          1    1    1    2  502    0 -0.46049033938E+01  0.92981176865E+02  0.95070707752E+03  0.95525423403E+03  0.00000000000E+00 0. -1.
         22    1    3    3    0    0  0.24522691201E+01 -0.69650022096E+02  0.84416633179E+03  0.84703833144E+03  0.00000000000E+00 0.  1.
         22    1    3    3    0    0 -0.96296715395E+02 -0.13675539851E+03  0.79002135810E+03  0.80753256446E+03  0.00000000000E+00 0.  1.
</event>
<event>
 7    1  0.8792454E-005  0.1905171E+03  0.7818608E-02  0.1200876E+00
          2   -1    0    0  502    0  0.00000000000E+00  0.00000000000E+00  0.72475636168E+03  0.72475636168E+03  0.00000000000E+00 0. -1.
          1   -1    0    0  501    0 -0.00000000000E+00 -0.00000000000E+00 -0.13612411782E+03  0.13612411782E+03  0.00000000000E+00 0. -1.
         25    2    1    2    0    0 -0.24144615895E+03 -0.58486199251E+01  0.74012966036E+02  0.28184106375E+03  0.12500404814E+03 0.  0.
          2    1    1    2  501    0  0.13064706809E+03 -0.33518941627E+02  0.18405712414E+03  0.22818676736E+03  0.00000000000E+00 0. -1.
          1    1    1    2  502    0  0.11079909085E+03  0.39367561552E+02  0.33056215368E+03  0.35085264839E+03  0.00000000000E+00 0. -1.
         22    1    3    3    0    0 -0.20232184302E+03  0.25783242444E+02  0.15315848304E+02  0.20453234210E+03  0.00000000000E+00 0. -1.
         22    1    3    3    0    0 -0.39124315921E+02 -0.31631862369E+02  0.58697117732E+02  0.77308721651E+02  0.00000000000E+00 0. -1.
</event>
<event>
 7    1  0.8792454E-005  0.2552450E+03  0.7818608E-02  0.1256795E+00
          2   -1    0    0  502    0  0.00000000000E+00  0.00000000000E+00  0.14197964841E+04  0.14197964841E+04  0.00000000000E+00 0. -1.
          1   -1    0    0  501    0 -0.00000000000E+00 -0.00000000000E+00 -0.13467045394E+04  0.13467045394E+04  0.00000000000E+00 0. -1.
         25    2    1    2    0    0 -0.18533850846E+03  0.14306832631E+03 -0.58777819083E+03  0.64492436166E+03  0.12500128772E+03 0.  0.
          2    1    1    2  501    0  0.19846327567E+03 -0.19048638983E+03 -0.70399148858E+03  0.75582852056E+03  0.00000000000E+00 0. -1.
          1    1    1    2  502    0 -0.13124767214E+02  0.47418063516E+02  0.13648616242E+04  0.13657481413E+04  0.00000000000E+00 0. -1.
         22    1    3    3    0    0  0.11354062032E+02 -0.90873845564E+01 -0.17288208232E+02  0.22591534400E+02  0.00000000000E+00 0. -1.
         22    1    3    3    0    0 -0.19669257049E+03  0.15215571087E+03 -0.57048998260E+03  0.62233282726E+03  0.00000000000E+00 0. -1.
</event>
<event>
 7    1  0.8792454E-005  0.2239147E+03  0.7818608E-02  0.1321953E+00
          2   -1    0    0  502    0  0.00000000000E+00  0.00000000000E+00  0.13502724684E+04  0.13502724684E+04  0.00000000000E+00 0. -1.
          1   -1    0    0  501    0 -0.00000000000E+00 -0.00000000000E+00 -0.22080468999E+03  0.22080468999E+03  0.00000000000E+00 0. -1.
         25    2    1    2    0    0 -0.13152508893E+03 -0.15420829387E+03  0.30619053006E+02  0.24008665076E+03  0.12500010620E+03 0.  0.
          2    1    1    2  501    0  0.96495270159E+00 -0.30421805911E+02 -0.10333502397E+03  0.10772439179E+03  0.00000000000E+00 0. -1.
          1    1    1    2  502    0  0.13056013623E+03  0.18463009979E+03  0.12021837494E+04  0.12232661159E+04  0.00000000000E+00 0. -1.
         22    1    3    3    0    0 -0.14663086102E+03 -0.13875896172E+03  0.53264866699E+02  0.20878650552E+03  0.00000000000E+00 0.  1.
         22    1    3    3    0    0  0.15105772091E+02 -0.15449332159E+02 -0.22645813694E+02  0.31300145246E+02  0.00000000000E+00 0.  1.
</event>
<event>
 7    1  0.8792454E-005  0.2311914E+03  0.7818608E-02  0.1229137E+00
          2   -1    0    0  502    0  0.00000000000E+00  0.00000000000E+00  0.36871489221E+03  0.36871489221E+03  0.00000000000E+00 0. -1.
          1   -1    0    0  501    0 -0.00000000000E+00 -0.00000000000E+00 -0.44511275153E+03  0.44511275153E+03  0.00000000000E+00 0. -1.
         25    2    1    2    0    0  0.13949829940E+03  0.16756226971E+03 -0.10466603019E+03  0.27224526355E+03  0.12500246352E+03 0.  0.
          2    1    1    2  501    0 -0.49862641834E+02  0.51714615350E+02 -0.20006049020E+03  0.21256736398E+03  0.00000000000E+00 0. -1.
          1    1    1    2  502    0 -0.89635657567E+02 -0.21927688506E+03  0.22832866106E+03  0.32901501621E+03  0.00000000000E+00 0. -1.
         22    1    3    3    0    0  0.89904930255E+02  0.17202741492E+03 -0.54608453985E+02  0.20163930969E+03  0.00000000000E+00 0.  1.
         22    1    3    3    0    0  0.49593369147E+02 -0.44651452103E+01 -0.50057576204E+02  0.70605953860E+02  0.00000000000E+00 0.  1.
</event>
<event>
 7    1  0.8792454E-005  0.6743399E+02  0.7818608E-02  0.1513365E+00
          2   -1    0    0  502    0  0.00000000000E+00  0.00000000000E+00  0.18154792214E+04  0.18154792214E+04  0.00000000000E+00 0. -1.
          1   -1    0    0  501    0 -0.00000000000E+00 -0.00000000000E+00 -0.58077065412E+02  0.58077065412E+02  0.00000000000E+00 0. -1.
         25    2    1    2    0    0 -0.15141612132E+02  0.46246668567E+02  0.64614934220E+03  0.65993260500E+03  0.12503618650E+03 0.  0.
          2    1    1    2  501    0  0.34254158295E+02 -0.58885138985E+02 -0.28352517425E+02  0.73788022050E+02  0.00000000000E+00 0. -1.
          1    1    1    2  502    0 -0.19112546163E+02  0.12638470418E+02  0.11396053313E+04  0.11398356598E+04  0.00000000000E+00 0. -1.
         22    1    3    3    0    0 -0.63459534750E+02  0.30318822193E+02  0.22537332383E+03  0.23609209776E+03  0.00000000000E+00 0.  1.
         22    1    3    3    0    0  0.48317922618E+02  0.15927846374E+02  0.42077601838E+03  0.42384050724E+03  0.00000000000E+00 0.  1.
</event>
<event>
 7    1  0.8792454E-005  0.1649321E+03  0.7818608E-02  0.1242017E+00
          2   -1    0    0  502    0  0.00000000000E+00  0.00000000000E+00  0.16995549304E+03  0.16995549304E+03  0.00000000000E+00 0. -1.
          1   -1    0    0  501    0 -0.00000000000E+00 -0.00000000000E+00 -0.88739247836E+03  0.88739247836E+03  0.00000000000E+00 0. -1.
         25    2    1    2    0    0  0.45852736380E+02  0.10967579937E+03  0.41226596582E+02  0.17735819711E+03  0.12500017366E+03 0.  0.
          2    1    1    2  501    0 -0.13398113705E+03 -0.10471932770E+03 -0.77218937767E+03  0.79069179689E+03  0.00000000000E+00 0. -1.
          1    1    1    2  502    0  0.88128400674E+02 -0.49564716677E+01  0.13525795773E+02  0.89297977402E+02  0.00000000000E+00 0. -1.
         22    1    3    3    0    0  0.27109021936E+02  0.46975393262E+02 -0.44045693427E+02  0.69868517602E+02  0.00000000000E+00 0. -1.
         22    1    3    3    0    0  0.18743714444E+02  0.62700406105E+02  0.85272290009E+02  0.10748967951E+03  0.00000000000E+00 0. -1.
</event>
<event>
 7    1  0.8792454E-005  0.1319810E+03  0.7818608E-02  0.1264016E+00
          2   -1    0    0  502    0  0.00000000000E+00  0.00000000000E+00  0.29918744192E+03  0.29918744192E+03  0.00000000000E+00 0. -1.
          1   -1    0    0  501    0 -0.00000000000E+00 -0.00000000000E+00 -0.14152752945E+04  0.14152752945E+04  0.00000000000E+00 0. -1.
         25    2    1    2    0    0  0.13108150527E+03  0.14037444415E+03 -0.16097915317E+03  0.28004547115E+03  0.12499533016E+03 0.  0.
          2    1    1    2  501    0 -0.11801994897E+03 -0.52704181606E+02 -0.11829246796E+04  0.11899652250E+04  0.00000000000E+00 0. -1.
          1    1    1    2  502    0 -0.13061556296E+02 -0.87670262547E+02  0.22781598016E+03  0.24445204030E+03  0.00000000000E+00 0. -1.
         22    1    3    3    0    0  0.99983866071E+01 -0.18628958322E+02 -0.43118934649E+02  0.48023414582E+02  0.00000000000E+00 0. -1.
         22    1    3    3    0    0  0.12108311866E+03  0.15900340248E+03 -0.11786021852E+03  0.23202205656E+03  0.00000000000E+00 0. -1.
</event>
<event>
 7    1  0.8792454E-005  0.7450286E+03  0.7818608E-02  0.1038964E+00
          2   -1    0    0  502    0  0.00000000000E+00  0.00000000000E+00  0.13733923454E+04  0.13733923454E+04  0.00000000000E+00 0. -1.
          1   -1    0    0  501    0 -0.00000000000E+00 -0.00000000000E+00 -0.15255385320E+04  0.15255385320E+04  0.00000000000E+00 0. -1.
         25    2    1    2    0    0 -0.79006184735E+02 -0.78068696089E+03 -0.81931060974E+03  0.11413180687E+04  0.12499180237E+03 0.  0.
          2    1    1    2  501    0  0.22455858110E+03  0.51100272001E+02 -0.39712887738E+03  0.45907421992E+03  0.00000000000E+00 0. -1.
          1    1    1    2  502    0 -0.14555239637E+03  0.72958668889E+03  0.10642933005E+04  0.12985385887E+04  0.00000000000E+00 0. -1.
         22    1    3    3    0    0  0.20945492802E+02 -0.38659913682E+03 -0.42581970019E+03  0.57551717900E+03  0.00000000000E+00 0. -1.
         22    1    3    3    0    0 -0.99951677537E+02 -0.39408782407E+03 -0.39349090955E+03  0.56580088973E+03  0.00000000000E+00 0. -1.
</event>
<event>
 7    1  0.8792454E-005  0.4686867E+03  0.7818608E-02  0.1234057E+00
          2   -1    0    0  502    0  0.00000000000E+00  0.00000000000E+00  0.56827693058E+03  0.56827693058E+03  0.00000000000E+00 0. -1.
          1   -1    0    0  501    0 -0.00000000000E+00 -0.00000000000E+00 -0.55010338935E+03  0.55010338935E+03  0.00000000000E+00 0. -1.
         25    2    1    2    0    0 -0.14648145550E+03 -0.45490309160E+03  0.26427312021E+03  0.56022067709E+03  0.12495313289E+03 0.  0.
          2    1    1    2  501    0 -0.56436487813E+01  0.33209171662E+02 -0.67804072506E+02  0.75710581179E+02  0.00000000000E+00 0. -1.
          1    1    1    2  502    0  0.15212510428E+03  0.42169391994E+03 -0.17829550647E+03  0.48244906166E+03  0.00000000000E+00 0. -1.
         22    1    3    3    0    0  0.89320986965E+01 -0.16117037016E+03  0.78263893558E+02  0.17939037778E+03  0.00000000000E+00 0. -1.
         22    1    3    3    0    0 -0.15541355419E+03 -0.29373272144E+03  0.18600922665E+03  0.38083029931E+03  0.00000000000E+00 0. -1.
</event>
<event>
 7    1  0.8792454E-005  0.2939568E+03  0.7818608E-02  0.1106051E+00
          2   -1    0    0  502    0  0.00000000000E+00  0.00000000000E+00  0.25018461484E+03  0.25018461484E+03  0.00000000000E+00 0. -1.
          1   -1    0    0  501    0 -0.00000000000E+00 -0.00000000000E+00 -0.33875631281E+04  0.33875631281E+04  0.00000000000E+00 0. -1.
         25    2    1    2    0    0  0.20536148840E+03 -0.23751951862E+03 -0.14300128331E+04  0.14694049318E+04  0.12500115311E+03 0.  0.
          2    1    1    2  501    0 -0.31484467735E+03  0.31609665661E+02 -0.18618901549E+04  0.18885871150E+04  0.00000000000E+00 0. -1.
          1    1    1    2  502    0  0.10948318896E+03  0.20590985296E+03  0.15452447476E+03  0.27975569612E+03  0.00000000000E+00 0. -1.
         22    1    3    3    0    0  0.15331875284E+03 -0.83121101553E+02 -0.69472253804E+03  0.71627869043E+03  0.00000000000E+00 0.  1.
         22    1    3    3    0    0  0.52042735552E+02 -0.15439841707E+03 -0.73529029502E+03  0.75312624139E+03  0.00000000000E+00 0.  1.
</event>
<event>
 7    1  0.8792454E-005  0.2300047E+03  0.7818608E-02  0.1239101E+00
          2   -1    0    0  502    0  0.00000000000E+00  0.00000000000E+00  0.29887492333E+04  0.29887492333E+04  0.00000000000E+00 0. -1.
          1   -1    0    0  501    0 -0.00000000000E+00 -0.00000000000E+00 -0.49936664552E+03  0.49936664552E+03  0.00000000000E+00 0. -1.
         25    2    1    2    0    0 -0.28584884116E+03  0.50965820348E+02 -0.34326974208E+03  0.46665395386E+03  0.12499888796E+03 0.  0.
          2    1    1    2  501    0  0.57378586228E+02 -0.30953340322E+02 -0.78073477529E+02  0.10171469573E+03  0.00000000000E+00 0. -1.
          1    1    1    2  502    0  0.22847025493E+03 -0.20012480026E+02  0.29107258074E+04  0.29197472292E+04  0.00000000000E+00 0. -1.
         22    1    3    3    0    0 -0.23385537931E+02 -0.26085485059E+02 -0.11969108901E+02  0.37021554302E+02  0.00000000000E+00 0. -1.
         22    1    3    3    0    0 -0.26246330322E+03  0.77051305407E+02 -0.33130063318E+03  0.42963239956E+03  0.00000000000E+00 0. -1.
</event>
<event>
 7    1  0.8792454E-005  0.3374875E+03  0.7818608E-02  0.1225692E+00
          2   -1    0    0  502    0  0.00000000000E+00  0.00000000000E+00  0.96874633022E+02  0.96874633022E+02  0.00000000000E+00 0. -1.
          1   -1    0    0  501    0 -0.00000000000E+00 -0.00000000000E+00 -0.24652910952E+04  0.24652910952E+04  0.00000000000E+00 0. -1.
         25    2    1    2    0    0  0.15919041694E+02 -0.30422373939E+03 -0.11617160052E+04  0.12074828690E+04  0.12500121043E+03 0.  0.
          2    1    1    2  501    0  0.28657987562E+02 -0.42188637440E+02 -0.86353207158E+03  0.86503687784E+03  0.00000000000E+00 0. -1.
          1    1    1    2  502    0 -0.44577029255E+02  0.34641237683E+03 -0.34316838533E+03  0.48964598134E+03  0.00000000000E+00 0. -1.
         22    1    3    3    0    0 -0.68456618487E+01 -0.10090138613E+03 -0.19850195992E+03  0.22278011783E+03  0.00000000000E+00 0. -1.
         22    1    3    3    0    0  0.22764703542E+02 -0.20332235326E+03 -0.96321404532E+03  0.98470275117E+03  0.00000000000E+00 0. -1.
</event>
<event>
 7    1  0.8792454E-005  0.1077288E+03  0.7818608E-02  0.1356736E+00
          2   -1    0    0  502    0  0.00000000000E+00  0.00000000000E+00  0.26014387296E+04  0.26014387296E+04  0.00000000000E+00 0. -1.
          1   -1    0    0  501    0 -0.00000000000E+00 -0.00000000000E+00 -0.38563782179E+03  0.38563782179E+03  0.00000000000E+00 0. -1.
         25    2    1    2    0    0 -0.46917446350E+02  0.83774298446E+02 -0.24340848021E+03  0.28998707920E+03  0.12500175205E+03 0.  0.
          2    1    1    2  501    0  0.26054805089E+02 -0.12565475545E+03 -0.84048109403E+02  0.15340161384E+03  0.00000000000E+00 0. -1.
          1    1    1    2  502    0  0.20862641261E+02  0.41880457003E+02  0.25432574974E+04  0.25436878583E+04  0.00000000000E+00 0. -1.
         22    1    3    3    0    0  0.33288024865E+01 -0.22683183431E+02 -0.40974652095E+01  0.23289417290E+02  0.00000000000E+00 0.  1.
         22    1    3    3    0    0 -0.50246248837E+02  0.10645748188E+03 -0.23931101500E+03  0.26669766191E+03  0.00000000000E+00 0.  1.
</event>
<event>
 7    1  0.8792454E-005  0.6963014E+03  0.7818608E-02  0.1123655E+00
          2   -1    0    0  502    0  0.00000000000E+00  0.00000000000E+00  0.56654918492E+03  0.56654918492E+03  0.00000000000E+00 0. -1.
          1   -1    0    0  501    0 -0.00000000000E+00 -0.00000000000E+00 -0.14041041408E+04  0.14041041408E+04  0.00000000000E+00 0. -1.
         25    2    1    2    0    0 -0.43497293410E+03 -0.49744393682E+03 -0.27003231919E+03  0.72470226264E+03  0.12499596944E+03 0.  0.
          2    1    1    2  501    0  0.43103086481E+03  0.57618013518E+03 -0.75475582854E+03  0.10427979264E+04  0.00000000000E+00 0. -1.
          1    1    1    2  502    0  0.39420692916E+01 -0.78736198351E+02  0.18723319181E+03  0.20315313671E+03  0.00000000000E+00 0. -1.
         22    1    3    3    0    0 -0.41753259481E+03 -0.42130783142E+03 -0.25243021625E+03  0.64463537804E+03  0.00000000000E+00 0. -1.
         22    1    3    3    0    0 -0.17440339292E+02 -0.76136105408E+02 -0.17602102942E+02  0.80066884599E+02  0.00000000000E+00 0. -1.
</event>
<event>
 7    1  0.8792454E-005  0.1151959E+03  0.7818608E-02  0.1349525E+00
          2   -1    0    0  502    0  0.00000000000E+00  0.00000000000E+00  0.10965056228E+03  0.10965056228E+03  0.00000000000E+00 0. -1.
          1   -1    0    0  501    0 -0.00000000000E+00 -0.00000000000E+00 -0.59505584940E+03  0.59505584940E+03  0.00000000000E+00 0. -1.
         25    2    1    2    0    0 -0.97806227455E+02 -0.18004321257E+02 -0.86642750218E+02  0.18172185636E+03  0.12500261277E+03 0.  0.
          2    1    1    2  501    0 -0.96769475865E+01 -0.45501425999E+02 -0.39536877517E+03  0.39809608320E+03  0.00000000000E+00 0. -1.
          1    1    1    2  502    0  0.10748317504E+03  0.63505747256E+02 -0.33937617378E+01  0.12488847213E+03  0.00000000000E+00 0. -1.
         22    1    3    3    0    0 -0.44555412021E+02  0.12760832112E+02  0.26177389516E+02  0.53228557170E+02  0.00000000000E+00 0.  1.
         22    1    3    3    0    0 -0.53250815434E+02 -0.30765153368E+02 -0.11282013973E+03  0.12849329919E+03  0.00000000000E+00 0.  1.
</event>
<event>
 7    1  0.8792454E-005  0.1002386E+03  0.7818608E-02  0.1358424E+00
          2   -1    0    0  502    0  0.00000000000E+00  0.00000000000E+00  0.14010287036E+04  0.14010287036E+04  0.00000000000E+00 0. -1.
          1   -1    0    0  501    0 -0.00000000000E+00 -0.00000000000E+00 -0.21527401606E+02  0.21527401606E+02  0.00000000000E+00 0. -1.
         25    2    1    2    0    0 -0.12509067323E+03  0.35791615935E+02  0.71859156085E+03  0.74089643387E+03  0.12499991238E+03 0.  0.
          2    1    1    2  501    0  0.77412192002E+02 -0.49371617509E+02  0.22607993296E+03  0.24401299181E+03  0.00000000000E+00 0. -1.
          1    1    1    2  502    0  0.47678481225E+02  0.13580001574E+02  0.43482980815E+03  0.43764667950E+03  0.00000000000E+00 0. -1.
         22    1    3    3    0    0 -0.93102590690E+02  0.32721247015E+02  0.21825240851E+03  0.23952637896E+03  0.00000000000E+00 0.  1.
         22    1    3    3    0    0 -0.31988082537E+02  0.30703689199E+01  0.50033915234E+03  0.50137005491E+03  0.00000000000E+00 0.  1.
</event>
<event>
 7    1  0.8792454E-005  0.7444040E+02  0.7818608E-02  0.1482232E+00
          2   -1    0    0  502    0  0.00000000000E+00  0.00000000000E+00  0.11203948996E+04  0.11203948996E+04  0.00000000000E+00 0. -1.
          1   -1    0    0  501    0 -0.00000000000E+00 -0.00000000000E+00 -0.27466112985E+03  0.27466112985E+03  0.00000000000E+00 0. -1.
         25    2    1    2    0    0 -0.51146991141E+02  0.46653810716E+02 -0.25277888639E+03  0.29037246262E+03  0.12500563542E+03 0.  0.
          2    1    1    2  501    0 -0.17832677865E+02 -0.18540942018E+02  0.95352378209E+02  0.98761566213E+02  0.00000000000E+00 0. -1.
          1    1    1    2  502    0  0.68979669006E+02 -0.28112868698E+02  0.10031602779E+04  0.10059220006E+04  0.00000000000E+00 0. -1.
         22    1    3    3    0    0  0.96489229537E+01  0.75050191802E+02 -0.12786348543E+03  0.14857558316E+03  0.00000000000E+00 0.  1.
         22    1    3    3    0    0 -0.60795914095E+02 -0.28396381086E+02 -0.12491540096E+03  0.14179687946E+03  0.00000000000E+00 0.  1.
</event>
<event>
 7    1  0.8792454E-005  0.9614151E+02  0.7818608E-02  0.1323036E+00
          2   -1    0    0  502    0  0.00000000000E+00  0.00000000000E+00  0.31559344419E+03  0.31559344419E+03  0.00000000000E+00 0. -1.
          1   -1    0    0  501    0 -0.00000000000E+00 -0.00000000000E+00 -0.42624253673E+03  0.42624253673E+03  0.00000000000E+00 0. -1.
         25    2    1    2    0    0  0.26554350453E+02  0.81633381204E+02 -0.19572850124E+02  0.15289436635E+03  0.12499779336E+03 0.  0.
          2    1    1    2  501    0 -0.87797174517E+02 -0.47302770412E+02 -0.32748194917E+03  0.34233072163E+03  0.00000000000E+00 0. -1.
          1    1    1    2  502    0  0.61242824063E+02 -0.34330610792E+02  0.23640570675E+03  0.24661089294E+03  0.00000000000E+00 0. -1.
         22    1    3    3    0    0  0.20716208175E+02  0.77088218773E+02  0.42465679901E+02  0.90416197245E+02  0.00000000000E+00 0.  1.
         22    1    3    3    0    0  0.58381422776E+01  0.45451624304E+01 -0.62038530024E+02  0.62478169102E+02  0.00000000000E+00 0.  1.
</event>
<event>
 7    1  0.8792454E-005  0.3588117E+02  0.7818608E-02  0.1546742E+00
          2   -1    0    0  502    0  0.00000000000E+00  0.00000000000E+00  0.22776531719E+03  0.22776531719E+03  0.00000000000E+00 0. -1.
          1   -1    0    0  501    0 -0.00000000000E+00 -0.00000000000E+00 -0.84002347622E+02  0.84002347622E+02  0.00000000000E+00 0. -1.
         25    2    1    2    0    0  0.69415690746E+01 -0.59848572811E+01  0.32176550222E+01  0.12537419329E+03  0.12499732453E+03 0.  0.
          2    1    1    2  501    0 -0.19368152816E+02  0.39645491719E+02  0.29782147427E+01  0.44223976756E+02  0.00000000000E+00 0. -1.
          1    1    1    2  502    0  0.12426583741E+02 -0.33660634437E+02  0.13756709981E+03  0.14216949477E+03  0.00000000000E+00 0. -1.
         22    1    3    3    0    0  0.50891518813E+02 -0.27811410624E+01 -0.39131528401E+02  0.64256968087E+02  0.00000000000E+00 0. -1.
         22    1    3    3    0    0 -0.43949949738E+02 -0.32037162187E+01  0.42349183424E+02  0.61117225201E+02  0.00000000000E+00 0. -1.
</event>
<event>
 7    1  0.8792454E-005  0.5731550E+03  0.7818608E-02  0.1243564E+00
          2   -1    0    0  502    0  0.00000000000E+00  0.00000000000E+00  0.41762426110E+03  0.41762426110E+03  0.00000000000E+00 0. -1.
          1   -1    0    0  501    0 -0.00000000000E+00 -0.00000000000E+00 -0.12793072847E+04  0.12793072847E+04  0.00000000000E+00 0. -1.
         25    2    1    2    0    0  0.40165382406E+03 -0.39953056082E+03 -0.24103989430E+03  0.62823113146E+03  0.12499464181E+03 0.  0.
          2    1    1    2  501    0 -0.39227581465E+03  0.42271130890E+03 -0.74484998354E+03  0.94200141370E+03  0.00000000000E+00 0. -1.
          1    1    1    2  502    0 -0.93780094073E+01 -0.23180748077E+02  0.12420685421E+03  0.12669900068E+03  0.00000000000E+00 0. -1.
         22    1    3    3    0    0  0.33365987605E+03 -0.25340504365E+03 -0.17467263883E+03  0.45393122804E+03  0.00000000000E+00 0. -1.
         22    1    3    3    0    0  0.67993948012E+02 -0.14612551717E+03 -0.66367255470E+02  0.17429990342E+03  0.00000000000E+00 0. -1.
</event>
<event>
 7    1  0.8792454E-005  0.2804487E+03  0.7818608E-02  0.1247361E+00
          2   -1    0    0  502    0  0.00000000000E+00  0.00000000000E+00  0.79685229131E+03  0.79685229131E+03  0.00000000000E+00 0. -1.
          1   -1    0    0  501    0 -0.00000000000E+00 -0.00000000000E+00 -0.18885871264E+03  0.18885871264E+03  0.00000000000E+00 0. -1.
         25    2    1    2    0    0  0.23399424839E+03 -0.15509206575E+03  0.29891248520E+03  0.42869545631E+03  0.12499705321E+03 0.  0.
          2    1    1    2  501    0 -0.20406824107E+03  0.19412994827E+03  0.41197420796E+02  0.28465331775E+03  0.00000000000E+00 0. -1.
          1    1    1    2  502    0 -0.29926007330E+02 -0.39037882520E+02  0.26788367268E+03  0.27236222989E+03  0.00000000000E+00 0. -1.
         22    1    3    3    0    0 -0.10211241274E+02 -0.71948945502E+01  0.44727764453E+02  0.46439303062E+02  0.00000000000E+00 0.  1.
         22    1    3    3    0    0  0.24420548967E+03 -0.14789717120E+03  0.25418472075E+03  0.38225615325E+03  0.00000000000E+00 0.  1.
</event>
<event>
 7    1  0.1782524E-004  0.8381752E+02  0.7818608E-02  0.1388640E+00
          2   -1    0    0  502    0  0.00000000000E+00  0.00000000000E+00  0.16523561051E+04  0.16523561051E+04  0.00000000000E+00 0. -1.
          1   -1    0    0  501    0 -0.00000000000E+00 -0.00000000000E+00 -0.50756852553E+03  0.50756852553E+03  0.00000000000E+00 0. -1.
         25    2    1    2    0    0 -0.77314807381E+02  0.56955039937E+01 -0.13080395168E+03  0.19683403045E+03  0.12499577418E+03 0.  0.
          2    1    1    2  501    0  0.37239511575E+01 -0.46076462026E+02 -0.34110160592E+03  0.34421971722E+03  0.00000000000E+00 0. -1.
          1    1    1    2  502    0  0.73590856224E+02  0.40380958033E+02  0.16166931371E+04  0.16188708829E+04  0.00000000000E+00 0. -1.
         22    1    3    3    0    0 -0.80484794185E+02  0.16240145940E+01 -0.16201328843E+02  0.82115300490E+02  0.00000000000E+00 0.  1.
         22    1    3    3    0    0  0.31699868035E+01  0.40714893997E+01 -0.11460262284E+03  0.11471872996E+03  0.00000000000E+00 0.  1.
</event>
<event>
 7    1  0.8792454E-005  0.3150151E+03  0.7818608E-02  0.1118046E+00
          2   -1    0    0  502    0  0.00000000000E+00  0.00000000000E+00  0.27012387929E+04  0.27012387929E+04  0.00000000000E+00 0. -1.
          1   -1    0    0  501    0 -0.00000000000E+00 -0.00000000000E+00 -0.74227922188E+03  0.74227922188E+03  0.00000000000E+00 0. -1.
         25    2    1    2    0    0  0.11958603580E+03 -0.21537086725E+03  0.20976226207E+04  0.21157341691E+04  0.12499993971E+03 0.  0.
          2    1    1    2  501    0  0.38826723559E+02  0.31454417085E+03 -0.68262496371E+03  0.75261038457E+03  0.00000000000E+00 0. -1.
          1    1    1    2  502    0 -0.15841275936E+03 -0.99173303600E+02  0.54396191404E+03  0.57517346114E+03  0.00000000000E+00 0. -1.
         22    1    3    3    0    0  0.88262720822E+02 -0.22404617594E+03  0.17302326860E+04  0.17469093120E+04  0.00000000000E+00 0. -1.
         22    1    3    3    0    0  0.31323314978E+02  0.86753086861E+01  0.36738993471E+03  0.36882485703E+03  0.00000000000E+00 0. -1.
</event>
<event>
 7    1  0.8792454E-005  0.1436779E+03  0.7818608E-02  0.1271213E+00
          2   -1    0    0  502    0  0.00000000000E+00  0.00000000000E+00  0.45926233790E+03  0.45926233790E+03  0.00000000000E+00 0. -1.
          1   -1    0    0  501    0 -0.00000000000E+00 -0.00000000000E+00 -0.18048873738E+03  0.18048873738E+03  0.00000000000E+00 0. -1.
         25    2    1    2    0    0 -0.90260859248E+02  0.10358804734E+03 -0.87901166332E+02  0.20549772211E+03  0.12500076995E+03 0.  0.
          2    1    1    2  501    0  0.64205233083E+02  0.40531440628E+02  0.69428581194E+02  0.10288555545E+03  0.00000000000E+00 0. -1.
          1    1    1    2  502    0  0.26055626164E+02 -0.14411948797E+03  0.29724618566E+03  0.33136779771E+03  0.00000000000E+00 0. -1.
         22    1    3    3    0    0 -0.21835613144E+02  0.61732212490E+02  0.22319836692E+02  0.69179730920E+02  0.00000000000E+00 0. -1.
         22    1    3    3    0    0 -0.68425246103E+02  0.41855834849E+02 -0.11022100302E+03  0.13631799119E+03  0.00000000000E+00 0. -1.
</event>
<event>
 7    1  0.8792454E-005  0.8274518E+03  0.7818608E-02  0.1151807E+00
          2   -1    0    0  502    0  0.00000000000E+00  0.00000000000E+00  0.24146949040E+04  0.24146949040E+04  0.00000000000E+00 0. -1.
          1   -1    0    0  501    0 -0.00000000000E+00 -0.00000000000E+00 -0.84282917707E+03  0.84282917707E+03  0.00000000000E+00 0. -1.
         25    2    1    2    0    0 -0.39063356562E+03 -0.73880457498E+03  0.17805630616E+04  0.19709024488E+04  0.12499945593E+03 0.  0.
          2    1    1    2  501    0  0.34509144478E+03  0.75110037811E+03 -0.51685529273E+03  0.97487398000E+03  0.00000000000E+00 0. -1.
          1    1    1    2  502    0  0.45542120842E+02 -0.12295803126E+02  0.30815795811E+03  0.31174765227E+03  0.00000000000E+00 0. -1.
         22    1    3    3    0    0 -0.26621246752E+03 -0.37031696380E+03  0.95514752172E+03  0.10584472211E+04  0.00000000000E+00 0.  1.
         22    1    3    3    0    0 -0.12442109810E+03 -0.36848761118E+03  0.82541553987E+03  0.91245522778E+03  0.00000000000E+00 0.  1.
</event>
<event>
 7    1  0.8792454E-005  0.1558052E+03  0.7818608E-02  0.1291262E+00
          2   -1    0    0  502    0  0.00000000000E+00  0.00000000000E+00  0.15077800639E+04  0.15077800639E+04  0.00000000000E+00 0. -1.
          1   -1    0    0  501    0 -0.00000000000E+00 -0.00000000000E+00 -0.19692570351E+04  0.19692570351E+04  0.00000000000E+00 0. -1.
         25    2    1    2    0    0  0.93886312680E+01 -0.20449203495E+03  0.30440419833E+03  0.38754673851E+03  0.12500167923E+03 0.  0.
          2    1    1    2  501    0  0.19244615632E+02  0.15419251319E+03 -0.19238303663E+04  0.19300955843E+04  0.00000000000E+00 0. -1.
          1    1    1    2  502    0 -0.28633246900E+02  0.50299521767E+02  0.11579491968E+04  0.11593947762E+04  0.00000000000E+00 0. -1.
         22    1    3    3    0    0 -0.27175603019E+02 -0.85168886894E+02  0.45900612498E+02  0.10049437259E+03  0.00000000000E+00 0. -1.
         22    1    3    3    0    0  0.36564234287E+02 -0.11932314806E+03  0.25850358584E+03  0.28705236592E+03  0.00000000000E+00 0. -1.
</event>
<event>
 7    1  0.8792454E-005  0.1644880E+03  0.7818608E-02  0.1206560E+00
          2   -1    0    0  502    0  0.00000000000E+00  0.00000000000E+00  0.86036463204E+02  0.86036463204E+02  0.00000000000E+00 0. -1.
          1   -1    0    0  501    0 -0.00000000000E+00 -0.00000000000E+00 -0.10499043673E+04  0.10499043673E+04  0.00000000000E+00 0. -1.
         25    2    1    2    0    0  0.11824189366E+03 -0.17552019317E+03 -0.49558673259E+03  0.55319241039E+03  0.12500859876E+03 0.  0.
          2    1    1    2  501    0  0.80704678660E+01  0.15425779426E+03 -0.41714925647E+03  0.44483041905E+03  0.00000000000E+00 0. -1.
          1    1    1    2  502    0 -0.12631236152E+03  0.21262398909E+02 -0.51131915032E+02  0.13791800106E+03  0.00000000000E+00 0. -1.
         22    1    3    3    0    0  0.10435500551E+03 -0.16502372335E+03 -0.30716702261E+03  0.36397029579E+03  0.00000000000E+00 0.  1.
         22    1    3    3    0    0  0.13886888152E+02 -0.10496469822E+02 -0.18841970999E+03  0.18922211460E+03  0.00000000000E+00 0.  1.
</event>
<event>
 7    1  0.8792454E-005  0.1782285E+03  0.7818608E-02  0.1275815E+00
          2   -1    0    0  502    0  0.00000000000E+00  0.00000000000E+00  0.39601765264E+04  0.39601765264E+04  0.00000000000E+00 0. -1.
          1   -1    0    0  501    0 -0.00000000000E+00 -0.00000000000E+00 -0.94197559285E+03  0.94197559285E+03  0.00000000000E+00 0. -1.
         25    2    1    2    0    0 -0.10340161934E+03  0.70132425025E+02  0.21969812643E+03  0.28196283757E+03  0.12500129236E+03 0.  0.
          2    1    1    2  501    0  0.13472031232E+03 -0.11961343694E+03 -0.90170080726E+03  0.91952231221E+03  0.00000000000E+00 0. -1.
          1    1    1    2  502    0 -0.31318692979E+02  0.49481011916E+02  0.37002036143E+04  0.37006669694E+04  0.00000000000E+00 0. -1.
         22    1    3    3    0    0 -0.96079436527E+02  0.10162272319E+03  0.20019362479E+03  0.24420467522E+03  0.00000000000E+00 0. -1.
         22    1    3    3    0    0 -0.73221828113E+01 -0.31490298166E+02  0.19504501639E+02  0.37758162348E+02  0.00000000000E+00 0. -1.
</event>
<event>
 7    1  0.8792454E-005  0.4603188E+02  0.7818608E-02  0.1513286E+00
          2   -1    0    0  502    0  0.00000000000E+00  0.00000000000E+00  0.30742924924E+04  0.30742924924E+04  0.00000000000E+00 0. -1.
          1   -1    0    0  501    0 -0.00000000000E+00 -0.00000000000E+00 -0.28555505538E+03  0.28555505538E+03  0.00000000000E+00 0. -1.
         25    2    1    2    0    0 -0.25897866957E+02  0.61553878705E+02  0.16167961148E+02  0.14264436350E+03  0.12500572777E+03 0.  0.
          2    1    1    2  501    0  0.29680948918E+02 -0.15714749106E+02 -0.22087081382E+03  0.22340955321E+03  0.00000000000E+00 0. -1.
          1    1    1    2  502    0 -0.37830819611E+01 -0.45839129598E+02  0.29934402897E+04  0.29937936311E+04  0.00000000000E+00 0. -1.
         22    1    3    3    0    0  0.65223800726E+01  0.69122424682E+02 -0.37936346315E+02  0.79117743948E+02  0.00000000000E+00 0. -1.
         22    1    3    3    0    0 -0.32420247029E+02 -0.75685459775E+01  0.54104307463E+02  0.63526619552E+02  0.00000000000E+00 0. -1.
</event>
<event>
 7    1  0.8792454E-005  0.2774680E+03  0.7818608E-02  0.1162321E+00
          2   -1    0    0  502    0  0.00000000000E+00  0.00000000000E+00  0.27712752339E+04  0.27712752339E+04  0.00000000000E+00 0. -1.
          1   -1    0    0  501    0 -0.00000000000E+00 -0.00000000000E+00 -0.28143489585E+03  0.28143489585E+03  0.00000000000E+00 0. -1.
         25    2    1    2    0    0  0.15921077934E+03  0.20801738871E+03  0.13314799017E+03  0.31933125745E+03  0.12499903373E+03 0.  0.
          2    1    1    2  501    0 -0.26072985640E+03 -0.13613117346E+03 -0.70939047526E+02  0.30256256025E+03  0.00000000000E+00 0. -1.
          1    1    1    2  502    0  0.10151907705E+03 -0.71886215250E+02  0.24276313954E+04  0.24308163120E+04  0.00000000000E+00 0. -1.
         22    1    3    3    0    0  0.32592015666E+02  0.17196995658E+02 -0.21811890347E+02  0.42822128688E+02  0.00000000000E+00 0. -1.
         22    1    3    3    0    0  0.12661876367E+03  0.19082039305E+03  0.15495988051E+03  0.27650912876E+03  0.00000000000E+00 0. -1.
</event>
<event>
 7    1  0.8792454E-005  0.2787402E+03  0.7818608E-02  0.1159008E+00
          2   -1    0    0  502    0  0.00000000000E+00  0.00000000000E+00  0.31480320782E+03  0.31480320782E+03  0.00000000000E+00 0. -1.
          1   -1    0    0  501    0 -0.00000000000E+00 -0.00000000000E+00 -0.79433787143E+03  0.79433787143E+03  0.00000000000E+00 0. -1.
         25    2    1    2    0    0  0.27759028785E+02  0.99537844792E+02 -0.77985736300E+01  0.16236903395E+03  0.12499815683E+03 0.  0.
          2    1    1    2  501    0  0.24041375530E+03 -0.17556069183E+03  0.97253474722E+02  0.31317498080E+03  0.00000000000E+00 0. -1.
          1    1    1    2  502    0 -0.26817278409E+03  0.76022847041E+02 -0.56898956470E+03  0.63359706449E+03  0.00000000000E+00 0. -1.
         22    1    3    3    0    0 -0.46008644765E+02  0.58551496562E+02 -0.19994893753E+02  0.77102976071E+02  0.00000000000E+00 0.  1.
         22    1    3    3    0    0  0.73767673550E+02  0.40986348230E+02  0.12196320123E+02  0.85266057882E+02  0.00000000000E+00 0.  1.
</event>
<event>
 7    1  0.8792454E-005  0.5342225E+03  0.7818608E-02  0.1168697E+00
          2   -1    0    0  502    0  0.00000000000E+00  0.00000000000E+00  0.52599659165E+03  0.52599659165E+03  0.00000000000E+00 0. -1.
          1   -1    0    0  501    0 -0.00000000000E+00 -0.00000000000E+00 -0.16977687450E+04  0.16977687450E+04  0.00000000000E+00 0. -1.
         25    2    1    2    0    0  0.58461011588E+03  0.44818331854E+02 -0.13948913062E+04  0.15182631959E+04  0.12499482073E+03 0.  0.
          2    1    1    2  501    0 -0.58891484113E+02  0.11637519030E+02 -0.76912321899E+02  0.97566100722E+02  0.00000000000E+00 0. -1.
          1    1    1    2  502    0 -0.52571863176E+03 -0.56455850885E+02  0.30003147484E+03  0.60793604004E+03  0.00000000000E+00 0. -1.
         22    1    3    3    0    0  0.34716441902E+03  0.64594696695E+02 -0.95139952577E+03  0.10148185386E+04  0.00000000000E+00 0. -1.
         22    1    3    3    0    0  0.23744569686E+03 -0.19776364841E+02 -0.44349178046E+03  0.50344465724E+03  0.00000000000E+00 0. -1.
</event>
<event>
 7    1  0.8792454E-005  0.1586888E+03  0.7818608E-02  0.1235530E+00
          2   -1    0    0  502    0  0.00000000000E+00  0.00000000000E+00  0.13972000961E+04  0.13972000961E+04  0.00000000000E+00 0. -1.
          1   -1    0    0  501    0 -0.00000000000E+00 -0.00000000000E+00 -0.27262290867E+04  0.27262290867E+04  0.00000000000E+00 0. -1.
         25    2    1    2    0    0  0.23483709306E+03 -0.40041264370E+02  0.15602395009E+00  0.26902631767E+03  0.12499348835E+03 0.  0.
          2    1    1    2  501    0 -0.79630596272E+02  0.57122606702E+02 -0.25860348005E+04  0.25878910359E+04  0.00000000000E+00 0. -1.
          1    1    1    2  502    0 -0.15520649678E+03 -0.17081342332E+02  0.12568497860E+04  0.12665118292E+04  0.00000000000E+00 0. -1.
         22    1    3    3    0    0  0.21273163596E+03 -0.75099866009E+02  0.12011647636E+02  0.22591816769E+03  0.00000000000E+00 0.  1.
         22    1    3    3    0    0  0.22105457099E+02  0.35058601639E+02 -0.11855623686E+02  0.43108149988E+02  0.00000000000E+00 0.  1.
</event>
<event>
 7    1  0.8792454E-005  0.5959417E+02  0.7818608E-02  0.1465625E+00
          2   -1    0    0  502    0  0.00000000000E+00  0.00000000000E+00  0.33030127522E+03  0.33030127522E+03  0.00000000000E+00 0. -1.
          1   -1    0    0  501    0 -0.00000000000E+00 -0.00000000000E+00 -0.12629952675E+03  0.12629952675E+03  0.00000000000E+00 0. -1.
         25    2    1    2    0    0  0.51462661691E+02 -0.17272404562E+02  0.26544101747E+03  0.29838000854E+03  0.12499981694E+03 0.  0.
          2    1    1    2  501    0 -0.34483048117E+02  0.49208099729E+02 -0.92662341812E+02  0.11043924699E+03  0.00000000000E+00 0. -1.
          1    1    1    2  502    0 -0.16979613573E+02 -0.31935695167E+02  0.31223072818E+02  0.47781546428E+02  0.00000000000E+00 0. -1.
         22    1    3    3    0    0  0.34263560004E+02 -0.63146303581E+02  0.22045895335E+03  0.23186978525E+03  0.00000000000E+00 0. -1.
         22    1    3    3    0    0  0.17199101686E+02  0.45873899019E+02  0.44982064120E+02  0.66510223293E+02  0.00000000000E+00 0. -1.
</event>
<event>
 7    1  0.8792454E-005  0.5246502E+03  0.7818608E-02  0.1021900E+00
          2   -1    0    0  502    0  0.00000000000E+00  0.00000000000E+00  0.30010615755E+04  0.30010615755E+04  0.00000000000E+00 0. -1.
          1   -1    0    0  501    0 -0.00000000000E+00 -0.00000000000E+00 -0.33759326698E+03  0.33759326698E+03  0.00000000000E+00 0. -1.
         25    2    1    2    0    0 -0.60883466957E+03  0.37913512457E+03  0.18957458798E+04  0.20307391379E+04  0.12500363116E+03 0.  0.
          2    1    1    2  501    0  0.51048861911E+03  0.30394890257E+02  0.10403116576E+03  0.52186680584E+03  0.00000000000E+00 0. -1.
          1    1    1    2  502    0  0.98346050462E+02 -0.40953001483E+03  0.66369126300E+03  0.78604889878E+03  0.00000000000E+00 0. -1.
         22    1    3    3    0    0 -0.26485874581E+02  0.55272212664E+02  0.14166361707E+03  0.15435381254E+03  0.00000000000E+00 0. -1.
         22    1    3    3    0    0 -0.58234879499E+03  0.32386291191E+03  0.17540822627E+04  0.18763853253E+04  0.00000000000E+00 0. -1.
</event>
<event>
 7    1  0.8792454E-005  0.2691656E+03  0.7818608E-02  0.1109385E+00
          2   -1    0    0  502    0  0.00000000000E+00  0.00000000000E+00  0.10714409318E+04  0.10714409318E+04  0.00000000000E+00 0. -1.
          1   -1    0    0  501    0 -0.00000000000E+00 -0.00000000000E+00 -0.12800239096E+04  0.12800239096E+04  0.00000000000E+00 0. -1.
         25    2    1    2    0    0 -0.16499648795E+03 -0.33107872317E+03 -0.77270442340E+02  0.39805198987E+03  0.12505080332E+03 0.  0.
          2    1    1    2  501    0 -0.67932102624E+02  0.25822834560E+03 -0.10083227440E+04  0.10430778519E+04  0.00000000000E+00 0. -1.
          1    1    1    2  502    0  0.23292859057E+03  0.72850377570E+02  0.87701020847E+03  0.91033499965E+03  0.00000000000E+00 0. -1.
         22    1    3    3    0    0 -0.15335401683E+03 -0.17133225697E+03 -0.54058405411E+02  0.23620861109E+03  0.00000000000E+00 0.  1.
         22    1    3    3    0    0 -0.11642471111E+02 -0.15974646620E+03 -0.23212036929E+02  0.16184337878E+03  0.00000000000E+00 0.  1.
</event>
<event>
 7    1  0.8792454E-005  0.7084663E+02  0.7818608E-02  0.1477682E+00
          2   -1    0    0  502    0  0.00000000000E+00  0.00000000000E+00  0.12432567521E+04  0.12432567521E+04  0.00000000000E+00 0. -1.
          1   -1    0    0  501    0 -0.00000000000E+00 -0.00000000000E+00 -0.72950047514E+03  0.72950047514E+03  0.00000000000E+00 0. -1.
         25    2    1    2    0    0 -0.72187520649E+02 -0.12870640211E+02 -0.16114866536E+03  0.21672836643E+03  0.12500240377E+03 0.  0.
          2    1    1    2  501    0  0.29068966462E+01  0.27760993553E+02 -0.53916779315E+03  0.53988983319E+03  0.00000000000E+00 0. -1.
          1    1    1    2  502    0  0.69280624003E+02 -0.14890353342E+02  0.12140727355E+04  0.12161390276E+04  0.00000000000E+00 0. -1.
         22    1    3    3    0    0  0.74520573459E+01  0.36942617768E+02 -0.93963707454E+02  0.10123965866E+03  0.00000000000E+00 0.  1.
         22    1    3    3    0    0 -0.79639577995E+02 -0.49813257978E+02 -0.67184957909E+02  0.11548870777E+03  0.00000000000E+00 0.  1.
</event>
<event>
 7    1  0.8792454E-005  0.1066730E+03  0.7818608E-02  0.1306191E+00
          2   -1    0    0  502    0  0.00000000000E+00  0.00000000000E+00  0.11068331115E+04  0.11068331115E+04  0.00000000000E+00 0. -1.
          1   -1    0    0  501    0 -0.00000000000E+00 -0.00000000000E+00 -0.68743555350E+02  0.68743555350E+02  0.00000000000E+00 0. -1.
         25    2    1    2    0    0  0.26141092972E+02  0.52481218697E+02  0.17986248660E+03  0.22674428762E+03  0.12499929129E+03 0.  0.
          2    1    1    2  501    0 -0.38357792843E+02  0.62870149713E+02 -0.87177941457E+01  0.74161822601E+02  0.00000000000E+00 0. -1.
          1    1    1    2  502    0  0.12216699871E+02 -0.11535136841E+03  0.86694486368E+03  0.87467055661E+03  0.00000000000E+00 0. -1.
         22    1    3    3    0    0  0.73930470832E+02  0.44337929601E+02  0.89913319376E+02  0.12456312263E+03  0.00000000000E+00 0.  1.
         22    1    3    3    0    0 -0.47789377860E+02  0.81432890959E+01  0.89949167221E+02  0.10218116498E+03  0.00000000000E+00 0.  1.
</event>
<event>
 7    1  0.8792454E-005  0.4627472E+03  0.7818608E-02  0.1046929E+00
          2   -1    0    0  502    0  0.00000000000E+00  0.00000000000E+00  0.40765037103E+03  0.40765037103E+03  0.00000000000E+00 0. -1.
          1   -1    0    0  501    0 -0.00000000000E+00 -0.00000000000E+00 -0.13276165605E+04  0.13276165605E+04  0.00000000000E+00 0. -1.
         25    2    1    2    0    0 -0.38651976113E+03 -0.40518849256E+03 -0.86907439559E+03  0.10413884691E+04  0.12499759334E+03 0.  0.
          2    1    1    2  501    0  0.34199157879E+03  0.77769202434E+02 -0.87360001899E+02  0.36143887276E+03  0.00000000000E+00 0. -1.
          1    1    1    2  502    0  0.44528182341E+02  0.32741929013E+03  0.36468208004E+02  0.33243958965E+03  0.00000000000E+00 0. -1.
         22    1    3    3    0    0 -0.27260743264E+03 -0.31094400284E+03 -0.53600456244E+03  0.67697996735E+03  0.00000000000E+00 0. -1.
         22    1    3    3    0    0 -0.11391232849E+03 -0.94244489723E+02 -0.33306983316E+03  0.36440850180E+03  0.00000000000E+00 0. -1.
</event>
<event>
 7    1  0.8792454E-005  0.1584540E+03  0.7818608E-02  0.1234595E+00
          2   -1    0    0  502    0  0.00000000000E+00  0.00000000000E+00  0.17457097432E+04  0.17457097432E+04  0.00000000000E+00 0. -1.
          1   -1    0    0  501    0 -0.00000000000E+00 -0.00000000000E+00 -0.86608044311E+02  0.86608044311E+02  0.00000000000E+00 0. -1.
         25    2    1    2    0    0 -0.85219735444E+02  0.19199834570E+03  0.75492302667E+03  0.79350986242E+03  0.12499342984E+03 0.  0.
          2    1    1    2  501    0 -0.64617057126E+01 -0.15440559151E+03  0.28015809298E+02  0.15705962530E+03  0.00000000000E+00 0. -1.
          1    1    1    2  502    0  0.91681441156E+02 -0.37592754193E+02  0.87616286295E+03  0.88174829982E+03  0.00000000000E+00 0. -1.
         22    1    3    3    0    0 -0.20194225977E+02 -0.16471915640E+02  0.80470484192E+02  0.84585043558E+02  0.00000000000E+00 0.  1.
         22    1    3    3    0    0 -0.65025509467E+02  0.20847026134E+03  0.67445254248E+03  0.70892481886E+03  0.00000000000E+00 0.  1.
</event>
<event>
 7    1  0.1094207E-004  0.3651506E+03  0.7818608E-02  0.1272900E+00
          2   -1    0    0  502    0  0.00000000000E+00  0.00000000000E+00  0.18099500882E+04  0.18099500882E+04  0.00000000000E+00 0. -1.
          1   -1    0    0  501    0 -0.00000000000E+00 -0.00000000000E+00 -0.24551473564E+04  0.24551473564E+04  0.00000000000E+00 0. -1.
         25    2    1    2    0    0  0.60349441153E+02 -0.37328715637E+03 -0.23722034857E+04  0.24054021001E+04  0.12499811744E+03 0.  0.
          2    1    1    2  501    0 -0.27751413235E+02  0.96888164036E+01 -0.43193201003E+02  0.52246212425E+02  0.00000000000E+00 0. -1.
          1    1    1    2  502    0 -0.32598027918E+02  0.36359833997E+03  0.17701994184E+04  0.18074491322E+04  0.00000000000E+00 0. -1.
         22    1    3    3    0    0 -0.10689512301E+02 -0.42483627039E+02 -0.57226152720E+03  0.57393586728E+03  0.00000000000E+00 0. -1.
         22    1    3    3    0    0  0.71038953454E+02 -0.33080352933E+03 -0.17999419585E+04  0.18314662328E+04  0.00000000000E+00 0. -1.
</event>
<event>
 7    1  0.8792454E-005  0.4265130E+03  0.7818608E-02  0.1164839E+00
          2   -1    0    0  502    0  0.00000000000E+00  0.00000000000E+00  0.11702850550E+04  0.11702850550E+04  0.00000000000E+00 0. -1.
          1   -1    0    0  501    0 -0.00000000000E+00 -0.00000000000E+00 -0.19431484331E+04  0.19431484331E+04  0.00000000000E+00 0. -1.
         25    2    1    2    0    0  0.37609520084E+03 -0.23425002698E+03  0.20027974852E+03  0.50205241823E+03  0.12499591092E+03 0.  0.
          2    1    1    2  501    0  0.15846038509E+02  0.76987641644E+02 -0.17368808593E+04  0.17386584809E+04  0.00000000000E+00 0. -1.
          1    1    1    2  502    0 -0.39194123935E+03  0.15726238534E+03  0.76373773270E+03  0.87272258896E+03  0.00000000000E+00 0. -1.
         22    1    3    3    0    0  0.20413144845E+03 -0.13396078346E+03  0.42048975877E+02  0.24775644517E+03  0.00000000000E+00 0.  1.
         22    1    3    3    0    0  0.17196375239E+03 -0.10028924353E+03  0.15823077264E+03  0.25429597306E+03  0.00000000000E+00 0.  1.
</event>
<event>
 7    1  0.8792454E-005  0.1025926E+03  0.7818608E-02  0.1319898E+00
          2   -1    0    0  502    0  0.00000000000E+00  0.00000000000E+00  0.87385622782E+03  0.87385622782E+03  0.00000000000E+00 0. -1.
          1   -1    0    0  501    0 -0.00000000000E+00 -0.00000000000E+00 -0.61946334793E+02  0.61946334793E+02  0.00000000000E+00 0. -1.
         25    2    1    2    0    0  0.13990802228E+02  0.13333480533E+03  0.18767599799E+03  0.26233685874E+03  0.12499773748E+03 0.  0.
          2    1    1    2  501    0 -0.53915474176E+02 -0.40878105307E+02  0.35938392619E+02  0.76612439676E+02  0.00000000000E+00 0. -1.
          1    1    1    2  502    0  0.39924671947E+02 -0.92456700022E+02  0.58829550242E+03  0.59685326419E+03  0.00000000000E+00 0. -1.
         22    1    3    3    0    0  0.23528489157E+02  0.94717035714E+02  0.33613516853E+02  0.10322197039E+03  0.00000000000E+00 0.  1.
         22    1    3    3    0    0 -0.95376869291E+01  0.38617769616E+02  0.15406248113E+03  0.15911488835E+03  0.00000000000E+00 0.  1.
</event>
<event>
 7    1  0.8792454E-005  0.5444499E+02  0.7818608E-02  0.1511996E+00
          2   -1    0    0  502    0  0.00000000000E+00  0.00000000000E+00  0.98140365250E+02  0.98140365250E+02  0.00000000000E+00 0. -1.
          1   -1    0    0  501    0 -0.00000000000E+00 -0.00000000000E+00 -0.19470080542E+04  0.19470080542E+04  0.00000000000E+00 0. -1.
         25    2    1    2    0    0 -0.63566191142E+02  0.17536754854E+02 -0.66094031015E+03  0.67588045121E+03  0.12499636925E+03 0.  0.
          2    1    1    2  501    0  0.53221713357E+02  0.91733969731E+01 -0.12757498657E+04  0.12768924864E+04  0.00000000000E+00 0. -1.
          1    1    1    2  502    0  0.10344477785E+02 -0.26710151828E+02  0.87822486923E+02  0.92375481815E+02  0.00000000000E+00 0. -1.
         22    1    3    3    0    0  0.27983906568E+02  0.36066374612E+02 -0.27733196916E+03  0.28106387801E+03  0.00000000000E+00 0. -1.
         22    1    3    3    0    0 -0.91550097710E+02 -0.18529619758E+02 -0.38360834099E+03  0.39481657320E+03  0.00000000000E+00 0. -1.
</event>
<event>
 7    1  0.8792454E-005  0.2253487E+03  0.7818608E-02  0.1248836E+00
          2   -1    0    0  502    0  0.00000000000E+00  0.00000000000E+00  0.22567774831E+04  0.22567774831E+04  0.00000000000E+00 0. -1.
          1   -1    0    0  501    0 -0.00000000000E+00 -0.00000000000E+00 -0.53254474629E+03  0.53254474629E+03  0.00000000000E+00 0. -1.
         25    2    1    2    0    0  0.18273028373E+03 -0.12657309423E+03  0.16595648955E+04  0.16790448742E+04  0.12499976910E+03 0.  0.
          2    1    1    2  501    0 -0.21290252125E+03  0.74343823028E+02 -0.49679593852E+03  0.54558289206E+03  0.00000000000E+00 0. -1.
          1    1    1    2  502    0  0.30172237514E+02  0.52229271206E+02  0.56146377979E+03  0.56469446314E+03  0.00000000000E+00 0. -1.
         22    1    3    3    0    0  0.19581682617E+03 -0.12332845329E+03  0.16323590636E+04  0.16486813668E+04  0.00000000000E+00 0.  1.
         22    1    3    3    0    0 -0.13086542439E+02 -0.32446409420E+01  0.27205831880E+02  0.30363507309E+02  0.00000000000E+00 0.  1.
</event>
<event>
 7    1  0.8792454E-005  0.7038094E+02  0.7818608E-02  0.1419550E+00
          2   -1    0    0  502    0  0.00000000000E+00  0.00000000000E+00  0.84774017958E+02  0.84774017958E+02  0.00000000000E+00 0. -1.
          1   -1    0    0  501    0 -0.00000000000E+00 -0.00000000000E+00 -0.29871342993E+04  0.29871342993E+04  0.00000000000E+00 0. -1.
         25    2    1    2    0    0  0.13719272300E+02 -0.10166224816E+03 -0.13847374876E+03  0.21289361206E+03  0.12500111930E+03 0.  0.
          2    1    1    2  501    0 -0.31765908354E+02  0.62453999784E+02 -0.28011295958E+04  0.28020058150E+04  0.00000000000E+00 0. -1.
          1    1    1    2  502    0  0.18046636054E+02  0.39208248376E+02  0.37243063148E+02  0.57008890239E+02  0.00000000000E+00 0. -1.
         22    1    3    3    0    0 -0.97924517974E+01 -0.49687598514E+02  0.11934784497E+02  0.52030650960E+02  0.00000000000E+00 0.  1.
         22    1    3    3    0    0  0.23511724097E+02 -0.51974649646E+02 -0.15040853326E+03  0.16086296110E+03  0.00000000000E+00 0.  1.
</event>
<event>
 7    1  0.8792454E-005  0.2427017E+03  0.7818608E-02  0.1355071E+00
          2   -1    0    0  502    0  0.00000000000E+00  0.00000000000E+00  0.86078643498E+03  0.86078643498E+03  0.00000000000E+00 0. -1.
          1   -1    0    0  501    0 -0.00000000000E+00 -0.00000000000E+00 -0.73506061839E+03  0.73506061839E+03  0.00000000000E+00 0. -1.
         25    2    1    2    0    0  0.16056399467E+03  0.19946288724E+03 -0.62413804177E+03  0.68610497145E+03  0.12500198756E+03 0.  0.
          2    1    1    2  501    0 -0.21021913608E+02 -0.13127082558E+01 -0.60422415033E+02  0.63988376234E+02  0.00000000000E+00 0. -1.
          1    1    1    2  502    0 -0.13954208106E+03 -0.19815017898E+03  0.81028627340E+03  0.84575370568E+03  0.00000000000E+00 0. -1.
         22    1    3    3    0    0  0.37793819307E+02  0.29956362697E+02 -0.27376038438E+03  0.27797572646E+03  0.00000000000E+00 0. -1.
         22    1    3    3    0    0  0.12277017536E+03  0.16950652454E+03 -0.35037765739E+03  0.40812924500E+03  0.00000000000E+00 0. -1.
</event>
<event>
 7    1  0.8792454E-005  0.8693207E+02  0.7818608E-02  0.1330938E+00
          2   -1    0    0  502    0  0.00000000000E+00  0.00000000000E+00  0.93007570836E+02  0.93007570836E+02  0.00000000000E+00 0. -1.
          1   -1    0    0  501    0 -0.00000000000E+00 -0.00000000000E+00 -0.39143414179E+03  0.39143414179E+03  0.00000000000E+00 0. -1.
         25    2    1    2    0    0  0.47912730312E+00 -0.38081423528E+02 -0.91648906360E+02  0.15961152123E+03  0.12500356512E+03 0.  0.
          2    1    1    2  501    0 -0.21749959075E+02 -0.69065177351E+02 -0.20299993673E+03  0.21552733877E+03  0.00000000000E+00 0. -1.
          1    1    1    2  502    0  0.21270831772E+02  0.10714660088E+03 -0.37777278597E+01  0.10930285263E+03  0.00000000000E+00 0. -1.
         22    1    3    3    0    0 -0.27195294205E+02 -0.69292662773E+02 -0.91426194096E+02  0.11789743894E+03  0.00000000000E+00 0. -1.
         22    1    3    3    0    0  0.27674421508E+02  0.31211239245E+02 -0.22271226414E+00  0.41714082296E+02  0.00000000000E+00 0. -1.
</event>
<event>
 7    1  0.8792454E-005  0.1401230E+03  0.7818608E-02  0.1280665E+00
          2   -1    0    0  502    0  0.00000000000E+00  0.00000000000E+00  0.45653828502E+03  0.45653828502E+03  0.00000000000E+00 0. -1.
          1   -1    0    0  501    0 -0.00000000000E+00 -0.00000000000E+00 -0.12814564242E+04  0.12814564242E+04  0.00000000000E+00 0. -1.
         25    2    1    2    0    0 -0.15344309995E+03  0.96131010271E+02 -0.50837234002E+03  0.55394353418E+03  0.12500018764E+03 0.  0.
          2    1    1    2  501    0  0.82607100821E+02 -0.10243162210E+03 -0.74155153235E+03  0.75313667116E+03  0.00000000000E+00 0. -1.
          1    1    1    2  502    0  0.70835999126E+02  0.63006118277E+01  0.42500573315E+03  0.43091450392E+03  0.00000000000E+00 0. -1.
         22    1    3    3    0    0 -0.70118776219E+02  0.59186221735E+02 -0.40872134656E+03  0.41889472515E+03  0.00000000000E+00 0. -1.
         22    1    3    3    0    0 -0.83324323728E+02  0.36944788537E+02 -0.99650993458E+02  0.13504880904E+03  0.00000000000E+00 0. -1.
</event>
<event>
 7    1  0.8792454E-005  0.5042670E+03  0.7818608E-02  0.1099432E+00
          2   -1    0    0  502    0  0.00000000000E+00  0.00000000000E+00  0.18136918978E+04  0.18136918978E+04  0.00000000000E+00 0. -1.
          1   -1    0    0  501    0 -0.00000000000E+00 -0.00000000000E+00 -0.33154123374E+03  0.33154123374E+03  0.00000000000E+00 0. -1.
         25    2    1    2    0    0  0.50699233703E+03  0.24188129849E+03  0.41536649089E+03  0.70971929374E+03  0.12499744708E+03 0.  0.
          2    1    1    2  501    0 -0.37081059690E+03 -0.30001615079E+03  0.14017882678E+03  0.49715218292E+03  0.00000000000E+00 0. -1.
          1    1    1    2  502    0 -0.13618174013E+03  0.58134852297E+02  0.92660534638E+03  0.93836165488E+03  0.00000000000E+00 0. -1.
         22    1    3    3    0    0  0.98625066785E+02  0.94896525078E+02  0.62973284888E+02  0.15065818557E+03  0.00000000000E+00 0.  1.
         22    1    3    3    0    0  0.40836727025E+03  0.14698477342E+03  0.35239320600E+03  0.55906110817E+03  0.00000000000E+00 0.  1.
</event>
<event>
 7    1  0.8792454E-005  0.1267569E+03  0.7818608E-02  0.1283485E+00
          2   -1    0    0  502    0  0.00000000000E+00  0.00000000000E+00  0.77005202508E+02  0.77005202508E+02  0.00000000000E+00 0. -1.
          1   -1    0    0  501    0 -0.00000000000E+00 -0.00000000000E+00 -0.14802012471E+04  0.14802012471E+04  0.00000000000E+00 0. -1.
         25    2    1    2    0    0 -0.68780996055E+02 -0.84343741803E+02 -0.12754332041E+04  0.12861575862E+04  0.12500714537E+03 0.  0.
          2    1    1    2  501    0 -0.55957364872E+02  0.52222065741E+02 -0.11958434162E+03  0.14198163823E+03  0.00000000000E+00 0. -1.
          1    1    1    2  502    0  0.12473836093E+03  0.32121676062E+02 -0.81784988959E+01  0.12906722514E+03  0.00000000000E+00 0. -1.
         22    1    3    3    0    0 -0.17213145705E+02 -0.84814750845E+02 -0.10973600776E+04  0.11007674478E+04  0.00000000000E+00 0.  1.
         22    1    3    3    0    0 -0.51567850350E+02  0.47100904174E+00 -0.17807312650E+03  0.18539013841E+03  0.00000000000E+00 0.  1.
</event>
<event>
 7    1  0.8792454E-005  0.8583832E+02  0.7818608E-02  0.1371190E+00
          2   -1    0    0  502    0  0.00000000000E+00  0.00000000000E+00  0.21765335126E+04  0.21765335126E+04  0.00000000000E+00 0. -1.
          1   -1    0    0  501    0 -0.00000000000E+00 -0.00000000000E+00 -0.23388405370E+03  0.23388405370E+03  0.00000000000E+00 0. -1.
         25    2    1    2    0    0  0.63139437200E+02  0.33306863300E+02  0.23043896583E+03  0.27170292468E+03  0.12499770652E+03 0.  0.
          2    1    1    2  501    0 -0.85771977610E+02  0.13556877826E+02 -0.20404408665E+03  0.22175349011E+03  0.00000000000E+00 0. -1.
          1    1    1    2  502    0  0.22632540410E+02 -0.46863741125E+02  0.19162545797E+04  0.19169611515E+04  0.00000000000E+00 0. -1.
         22    1    3    3    0    0  0.67320940307E+02  0.43463367245E+01  0.38759569186E+02  0.77802980985E+02  0.00000000000E+00 0.  1.
         22    1    3    3    0    0 -0.41815031070E+01  0.28960526575E+02  0.19167939664E+03  0.19389994370E+03  0.00000000000E+00 0.  1.
</event>
<event>
 7    1  0.8792454E-005  0.1483565E+04  0.7818608E-02  0.1007983E+00
          2   -1    0    0  502    0  0.00000000000E+00  0.00000000000E+00  0.20688315894E+04  0.20688315894E+04  0.00000000000E+00 0. -1.
          1   -1    0    0  501    0 -0.00000000000E+00 -0.00000000000E+00 -0.16103824733E+04  0.16103824733E+04  0.00000000000E+00 0. -1.
         25    2    1    2    0    0 -0.37862714258E+02 -0.16160426460E+04  0.10612386320E+04  0.19377514025E+04  0.12500258068E+03 0.  0.
          2    1    1    2  501    0  0.74148059245E+02  0.14353904674E+04 -0.46253138318E+03  0.15098937079E+04  0.00000000000E+00 0. -1.
          1    1    1    2  502    0 -0.36285344987E+02  0.18065217857E+03 -0.14025813272E+03  0.23156895232E+03  0.00000000000E+00 0. -1.
         22    1    3    3    0    0 -0.67365261242E+02 -0.46901478203E+03  0.30159561578E+03  0.56166970690E+03  0.00000000000E+00 0. -1.
         22    1    3    3    0    0  0.29502546984E+02 -0.11470278640E+04  0.75964301620E+03  0.13760816956E+04  0.00000000000E+00 0. -1.
</event>
<event>
 7    1  0.8792454E-005  0.6207274E+03  0.7818608E-02  0.1038384E+00
          2   -1    0    0  502    0  0.00000000000E+00  0.00000000000E+00  0.11117696434E+04  0.11117696434E+04  0.00000000000E+00 0. -1.
          1   -1    0    0  501    0 -0.00000000000E+00 -0.00000000000E+00 -0.17922542912E+04  0.17922542912E+04  0.00000000000E+00 0. -1.
         25    2    1    2    0    0  0.21042038528E+03  0.84853897703E+03 -0.13054726662E+04  0.15761294142E+04  0.12501965502E+03 0.  0.
          2    1    1    2  501    0 -0.11813494363E+03 -0.25249431140E+03 -0.17264255333E+03  0.32789433270E+03  0.00000000000E+00 0. -1.
          1    1    1    2  502    0 -0.92285441650E+02 -0.59604466563E+03  0.79763057179E+03  0.10000001876E+04  0.00000000000E+00 0. -1.
         22    1    3    3    0    0  0.40309539022E+02  0.38112036016E+03 -0.62707198729E+03  0.73491282824E+03  0.00000000000E+00 0. -1.
         22    1    3    3    0    0  0.17011084626E+03  0.46741861687E+03 -0.67840067892E+03  0.84121658601E+03  0.00000000000E+00 0. -1.
</event>
<event>
 7    1  0.8792454E-005  0.2580315E+03  0.7818608E-02  0.1118367E+00
          2   -1    0    0  502    0  0.00000000000E+00  0.00000000000E+00  0.15119570671E+04  0.15119570671E+04  0.00000000000E+00 0. -1.
          1   -1    0    0  501    0 -0.00000000000E+00 -0.00000000000E+00 -0.63239592305E+03  0.63239592305E+03  0.00000000000E+00 0. -1.
         25    2    1    2    0    0  0.36528648095E+03  0.14648070519E+03 -0.19239942259E+03  0.45555913407E+03  0.12500310663E+03 0.  0.
          2    1    1    2  501    0 -0.21853933351E+03  0.62317339233E+02 -0.25265359935E+03  0.33981867566E+03  0.00000000000E+00 0. -1.
          1    1    1    2  502    0 -0.14674714744E+03 -0.20879804443E+03  0.13246141660E+04  0.13489751804E+04  0.00000000000E+00 0. -1.
         22    1    3    3    0    0  0.61485956490E+02  0.57230147289E+02  0.19699064062E+01  0.84021980074E+02  0.00000000000E+00 0. -1.
         22    1    3    3    0    0  0.30380052446E+03  0.89250557904E+02 -0.19436932900E+03  0.37153715400E+03  0.00000000000E+00 0. -1.
</event>
<event>
 7    1  0.8792454E-005  0.8938202E+03  0.7818608E-02  0.1142672E+00
          2   -1    0    0  502    0  0.00000000000E+00  0.00000000000E+00  0.18033417152E+04  0.18033417152E+04  0.00000000000E+00 0. -1.
          1   -1    0    0  501    0 -0.00000000000E+00 -0.00000000000E+00 -0.11583047771E+04  0.11583047771E+04  0.00000000000E+00 0. -1.
         25    2    1    2    0    0  0.24324511997E+03  0.83223318451E+03  0.21125564726E+03  0.90112796547E+03  0.12498959904E+03 0.  0.
          2    1    1    2  501    0 -0.16635126584E+02  0.45757537159E+02 -0.64751405302E+03  0.64934191956E+03  0.00000000000E+00 0. -1.
          1    1    1    2  502    0 -0.22660999339E+03 -0.87799072167E+03  0.10812953438E+04  0.14111766073E+04  0.00000000000E+00 0. -1.
         22    1    3    3    0    0  0.17969140436E+03  0.43328573644E+03  0.15040837166E+03  0.49259335001E+03  0.00000000000E+00 0. -1.
         22    1    3    3    0    0  0.63553715612E+02  0.39894744806E+03  0.60847275608E+02  0.40853461546E+03  0.00000000000E+00 0. -1.
</event>
<event>
 7    1  0.8792454E-005  0.2698095E+03  0.7818608E-02  0.1234293E+00
          2   -1    0    0  502    0  0.00000000000E+00  0.00000000000E+00  0.17227359168E+04  0.17227359168E+04  0.00000000000E+00 0. -1.
          1   -1    0    0  501    0 -0.00000000000E+00 -0.00000000000E+00 -0.30635360471E+03  0.30635360471E+03  0.00000000000E+00 0. -1.
         25    2    1    2    0    0 -0.13525449055E+03 -0.17607637825E+03  0.83462152350E+03  0.87264798897E+03  0.12499902787E+03 0.  0.
          2    1    1    2  501    0  0.18971060808E+03  0.19710041799E+03 -0.22092616102E+03  0.35163483646E+03  0.00000000000E+00 0. -1.
          1    1    1    2  502    0 -0.54456117531E+02 -0.21024039737E+02  0.80268694961E+03  0.80480669608E+03  0.00000000000E+00 0. -1.
         22    1    3    3    0    0 -0.21669760505E+02 -0.21931791421E+02  0.22262939219E+02  0.38029205329E+02  0.00000000000E+00 0. -1.
         22    1    3    3    0    0 -0.11358473004E+03 -0.15414458683E+03  0.81235858428E+03  0.83461878364E+03  0.00000000000E+00 0. -1.
</event>
<event>
 7    1  0.8792454E-005  0.1436840E+03  0.7818608E-02  0.1212205E+00
          2   -1    0    0  502    0  0.00000000000E+00  0.00000000000E+00  0.59391517291E+03  0.59391517291E+03  0.00000000000E+00 0. -1.
          1   -1    0    0  501    0 -0.00000000000E+00 -0.00000000000E+00 -0.56269802186E+03  0.56269802186E+03  0.00000000000E+00 0. -1.
         25    2    1    2    0    0 -0.63368277794E+02  0.11703159931E+03 -0.19517278450E+03  0.26726126843E+03  0.12499694365E+03 0.  0.
          2    1    1    2  501    0 -0.77167962592E+02 -0.14694254196E+03 -0.30046355136E+03  0.34325697486E+03  0.00000000000E+00 0. -1.
          1    1    1    2  502    0  0.14053624039E+03  0.29910942657E+02  0.52685348692E+03  0.54609495148E+03  0.00000000000E+00 0. -1.
         22    1    3    3    0    0 -0.45352683765E+02  0.29998905222E+01 -0.12295711846E+03  0.13108897074E+03  0.00000000000E+00 0.  1.
         22    1    3    3    0    0 -0.18015594029E+02  0.11403170878E+03 -0.72215666039E+02  0.13617229769E+03  0.00000000000E+00 0.  1.
</event>
<event>
 7    1  0.8792454E-005  0.1118854E+03  0.7818608E-02  0.1265270E+00
          2   -1    0    0  502    0  0.00000000000E+00  0.00000000000E+00  0.12553773962E+03  0.12553773962E+03  0.00000000000E+00 0. -1.
          1   -1    0    0  501    0 -0.00000000000E+00 -0.00000000000E+00 -0.30471488812E+04  0.30471488812E+04  0.00000000000E+00 0. -1.
         25    2    1    2    0    0  0.35964753394E+02 -0.17297006046E+03 -0.38731715599E+03  0.44367745504E+03  0.12499199768E+03 0.  0.
          2    1    1    2  501    0 -0.77566166460E+02  0.78431554834E+02 -0.26027562385E+04  0.26050927154E+04  0.00000000000E+00 0. -1.
          1    1    1    2  502    0  0.41601413066E+02  0.94538505625E+02  0.68462252851E+02  0.12391645040E+03  0.00000000000E+00 0. -1.
         22    1    3    3    0    0  0.21937209322E+02 -0.24268807928E+02 -0.48389716504E+01  0.33070104894E+02  0.00000000000E+00 0. -1.
         22    1    3    3    0    0  0.14027544072E+02 -0.14870125253E+03 -0.38247818434E+03  0.41060735015E+03  0.00000000000E+00 0. -1.
</event>
<event>
 7    1  0.8792454E-005  0.3157177E+02  0.7818608E-02  0.1602880E+00
          2   -1    0    0  502    0  0.00000000000E+00  0.00000000000E+00  0.10536243705E+03  0.10536243705E+03  0.00000000000E+00 0. -1.
          1   -1    0    0  501    0 -0.00000000000E+00 -0.00000000000E+00 -0.87200339221E+02  0.87200339221E+02  0.00000000000E+00 0. -1.
         25    2    1    2    0    0  0.33018693550E+02 -0.15654458940E+02  0.32166139715E+01  0.13027415895E+03  0.12500285468E+03 0.  0.
          2    1    1    2  501    0 -0.30522404667E+02 -0.11929755902E+02  0.82896509010E+01  0.33803174032E+02  0.00000000000E+00 0. -1.
          1    1    1    2  502    0 -0.24962888823E+01  0.27584214842E+02  0.66558329530E+01  0.28485443281E+02  0.00000000000E+00 0. -1.
         22    1    3    3    0    0 -0.34882932608E+02  0.23429919436E+02  0.25076683799E+02  0.48934856518E+02  0.00000000000E+00 0. -1.
         22    1    3    3    0    0  0.67901626157E+02 -0.39084378376E+02 -0.21860069828E+02  0.81339302436E+02  0.00000000000E+00 0. -1.
</event>
<event>
 7    1  0.8792454E-005  0.6511158E+02  0.7818608E-02  0.1381209E+00
          2   -1    0    0  502    0  0.00000000000E+00  0.00000000000E+00  0.15053017777E+03  0.15053017777E+03  0.00000000000E+00 0. -1.
          1   -1    0    0  501    0 -0.00000000000E+00 -0.00000000000E+00 -0.58125906770E+03  0.58125906770E+03  0.00000000000E+00 0. -1.
         25    2    1    2    0    0 -0.66774576219E+02 -0.20768230533E+02  0.14234748894E+02  0.14393834811E+03  0.12500182619E+03 0.  0.
          2    1    1    2  501    0  0.51749764758E+02 -0.40616501827E+02 -0.49984183148E+03  0.50415235283E+03  0.00000000000E+00 0. -1.
          1    1    1    2  502    0  0.15024811461E+02  0.61384732359E+02  0.54878192657E+02  0.83698544525E+02  0.00000000000E+00 0. -1.
         22    1    3    3    0    0 -0.27602553499E+02 -0.72109705855E+02  0.17885821405E+02  0.79256629032E+02  0.00000000000E+00 0.  1.
         22    1    3    3    0    0 -0.39172022721E+02  0.51341475322E+02 -0.36510725118E+01  0.64681719077E+02  0.00000000000E+00 0.  1.
</event>
<event>
 7    1  0.8792454E-005  0.2745812E+03  0.7818608E-02  0.1187856E+00
          2   -1    0    0  502    0  0.00000000000E+00  0.00000000000E+00  0.34255768902E+03  0.34255768902E+03  0.00000000000E+00 0. -1.
          1   -1    0    0  501    0 -0.00000000000E+00 -0.00000000000E+00 -0.70146780278E+03  0.70146780278E+03  0.00000000000E+00 0. -1.
         25    2    1    2    0    0  0.22561099870E+03  0.97255926955E+02 -0.73839135983E+02  0.28537069577E+03  0.12500071176E+03 0.  0.
          2    1    1    2  501    0 -0.28805063283E+03 -0.26848643326E+02 -0.46957436224E+03  0.55153793922E+03  0.00000000000E+00 0. -1.
          1    1    1    2  502    0  0.62439634123E+02 -0.70407283629E+02  0.18450338446E+03  0.20711685681E+03  0.00000000000E+00 0. -1.
         22    1    3    3    0    0  0.96797915478E+02  0.50554208757E+02  0.30230801306E+02  0.11331136665E+03  0.00000000000E+00 0.  1.
         22    1    3    3    0    0  0.12881308322E+03  0.46701718198E+02 -0.10406993729E+03  0.17205932913E+03  0.00000000000E+00 0.  1.
</event>
<event>
 7    1  0.8792454E-005  0.5186548E+02  0.7818608E-02  0.1540606E+00
          2   -1    0    0  502    0  0.00000000000E+00  0.00000000000E+00  0.49206712498E+02  0.49206712498E+02  0.00000000000E+00 0. -1.
          1   -1    0    0  501    0 -0.00000000000E+00 -0.00000000000E+00 -0.28888833635E+03  0.28888833635E+03  0.00000000000E+00 0. -1.
         25    2    1    2    0    0 -0.57987635452E+02 -0.11927152787E+02 -0.88035885661E+02  0.16395058029E+03  0.12499861109E+03 0.  0.
          2    1    1    2  501    0  0.20399907131E+02 -0.14229765825E+02 -0.12862876279E+02  0.28001714815E+02  0.00000000000E+00 0. -1.
          1    1    1    2  502    0  0.37587728320E+02  0.26156918612E+02 -0.13878286191E+03  0.14614275374E+03  0.00000000000E+00 0. -1.
         22    1    3    3    0    0  0.23130789668E+02 -0.59167208444E+00  0.18460091851E+02  0.29599974623E+02  0.00000000000E+00 0.  1.
         22    1    3    3    0    0 -0.81118425120E+02 -0.11335480703E+02 -0.10649597751E+03  0.13435060567E+03  0.00000000000E+00 0.  1.
</event>
<event>
 7    1  0.8792454E-005  0.1204085E+03  0.7818608E-02  0.1302300E+00
          2   -1    0    0  502    0  0.00000000000E+00  0.00000000000E+00  0.14811242078E+04  0.14811242078E+04  0.00000000000E+00 0. -1.
          1   -1    0    0  501    0 -0.00000000000E+00 -0.00000000000E+00 -0.35584296911E+03  0.35584296911E+03  0.00000000000E+00 0. -1.
         25    2    1    2    0    0  0.87806919737E+02 -0.77843508370E+02  0.33803849572E+03  0.37904410270E+03  0.12503895495E+03 0.  0.
          2    1    1    2  501    0  0.34218416701E+02  0.58314250026E+02 -0.32848561431E+03  0.33537180950E+03  0.00000000000E+00 0. -1.
          1    1    1    2  502    0 -0.12202533644E+03  0.19529258344E+02  0.11157283573E+04  0.11225512647E+04  0.00000000000E+00 0. -1.
         22    1    3    3    0    0  0.92499860348E+02 -0.95924839223E+02  0.20372124669E+03  0.24343406766E+03  0.00000000000E+00 0. -1.
         22    1    3    3    0    0 -0.46929406110E+01  0.18081330853E+02  0.13431724903E+03  0.13561003504E+03  0.00000000000E+00 0. -1.
</event>
<event>
 7    1  0.8792454E-005  0.1360024E+03  0.7818608E-02  0.1337765E+00
          2   -1    0    0  502    0  0.00000000000E+00  0.00000000000E+00  0.33633626450E+04  0.33633626450E+04  0.00000000000E+00 0. -1.
          1   -1    0    0  501    0 -0.00000000000E+00 -0.00000000000E+00 -0.11343064849E+03  0.11343064849E+03  0.00000000000E+00 0. -1.
         25    2    1    2    0    0 -0.11888961502E+03 -0.22265122409E+02  0.16478107702E+04  0.16569658154E+04  0.12499961138E+03 0.  0.
          2    1    1    2  501    0 -0.15377639752E+02 -0.40801765977E+02 -0.10112952706E+03  0.11012918393E+03  0.00000000000E+00 0. -1.
          1    1    1    2  502    0  0.13426725477E+03  0.63066888386E+02  0.17032507534E+04  0.17096982941E+04  0.00000000000E+00 0. -1.
         22    1    3    3    0    0 -0.11488850945E+03  0.16853819428E+02  0.81536924822E+03  0.82359603677E+03  0.00000000000E+00 0. -1.
         22    1    3    3    0    0 -0.40011055683E+01 -0.39118941837E+02  0.83244152198E+03  0.83336977866E+03  0.00000000000E+00 0. -1.
</event>
<event>
 7    1  0.8792454E-005  0.3567644E+03  0.7818608E-02  0.1131499E+00
          2   -1    0    0  502    0  0.00000000000E+00  0.00000000000E+00  0.21277417834E+04  0.21277417834E+04  0.00000000000E+00 0. -1.
          1   -1    0    0  501    0 -0.00000000000E+00 -0.00000000000E+00 -0.22082125506E+03  0.22082125506E+03  0.00000000000E+00 0. -1.
         25    2    1    2    0    0  0.35442881109E+03  0.19978306798E+03  0.13440326150E+04  0.14098165862E+04  0.12500432017E+03 0.  0.
          2    1    1    2  501    0 -0.49629358622E+02 -0.13055974049E+03 -0.12228986361E+03  0.18564409449E+03  0.00000000000E+00 0. -1.
          1    1    1    2  502    0 -0.30479945247E+03 -0.69223327481E+02  0.68517777693E+03  0.75310235778E+03  0.00000000000E+00 0. -1.
         22    1    3    3    0    0  0.87155747643E+02  0.11658641202E+02  0.17351840172E+03  0.19452682077E+03  0.00000000000E+00 0.  1.
         22    1    3    3    0    0  0.26727306345E+03  0.18812442677E+03  0.11705142133E+04  0.12152897654E+04  0.00000000000E+00 0.  1.
</event>
<event>
 7    1  0.8792454E-005  0.1102773E+03  0.7818608E-02  0.1426767E+00
          2   -1    0    0  502    0  0.00000000000E+00  0.00000000000E+00  0.29572279803E+03  0.29572279803E+03  0.00000000000E+00 0. -1.
          1   -1    0    0  501    0 -0.00000000000E+00 -0.00000000000E+00 -0.16711475831E+03  0.16711475831E+03  0.00000000000E+00 0. -1.
         25    2    1    2    0    0  0.11955713841E+03  0.49198115601E+01  0.23010540111E+03  0.28790919795E+03  0.12500038701E+03 0.  0.
          2    1    1    2  501    0 -0.10806041228E+03  0.18473986047E+02 -0.10068696513E+03  0.14884960803E+03  0.00000000000E+00 0. -1.
          1    1    1    2  502    0 -0.11496726128E+02 -0.23393797607E+02 -0.81039626463E+00  0.26078750358E+02  0.00000000000E+00 0. -1.
         22    1    3    3    0    0 -0.67767445912E+00 -0.23816968779E+02  0.12006590022E+03  0.12240722054E+03  0.00000000000E+00 0.  1.
         22    1    3    3    0    0  0.12023481287E+03  0.28736780339E+02  0.11003950088E+03  0.16550197741E+03  0.00000000000E+00 0.  1.
</event>
<event>
 7    1  0.8792454E-005  0.5388627E+03  0.7818608E-02  0.1096349E+00
          2   -1    0    0  502    0  0.00000000000E+00  0.00000000000E+00  0.20535078406E+03  0.20535078406E+03  0.00000000000E+00 0. -1.
          1   -1    0    0  501    0 -0.00000000000E+00 -0.00000000000E+00 -0.23982202589E+04  0.23982202589E+04  0.00000000000E+00 0. -1.
         25    2    1    2    0    0  0.18580528329E+03  0.54072489040E+03 -0.10541775991E+04  0.12057454825E+04  0.12499899042E+03 0.  0.
          2    1    1    2  501    0 -0.43109277461E+02 -0.51965952439E+03 -0.11399787969E+04  0.12535773165E+04  0.00000000000E+00 0. -1.
          1    1    1    2  502    0 -0.14269600583E+03 -0.21065366006E+02  0.12869211705E+01  0.14424824398E+03  0.00000000000E+00 0. -1.
         22    1    3    3    0    0  0.11112502453E+03  0.29716327063E+03 -0.70892225818E+03  0.77667596115E+03  0.00000000000E+00 0.  1.
         22    1    3    3    0    0  0.74680258760E+02  0.24356161977E+03 -0.34525534094E+03  0.42906952131E+03  0.00000000000E+00 0.  1.
</event>
<event>
 7    1  0.8792454E-005  0.6497258E+03  0.7818608E-02  0.1217831E+00
          2   -1    0    0  502    0  0.00000000000E+00  0.00000000000E+00  0.90641285042E+03  0.90641285042E+03  0.00000000000E+00 0. -1.
          1   -1    0    0  501    0 -0.00000000000E+00 -0.00000000000E+00 -0.27048893362E+04  0.27048893362E+04  0.00000000000E+00 0. -1.
         25    2    1    2    0    0  0.41049829497E+02  0.66067965762E+03 -0.29698264615E+02  0.67430680211E+03  0.12499991181E+03 0.  0.
          2    1    1    2  501    0 -0.15275053007E+02 -0.64791179297E+03 -0.23078676421E+04  0.23971391432E+04  0.00000000000E+00 0. -1.
          1    1    1    2  502    0 -0.25774776490E+02 -0.12767864655E+02  0.53908942092E+03  0.53985624125E+03  0.00000000000E+00 0. -1.
         22    1    3    3    0    0 -0.34627646311E+02  0.26243209812E+03  0.22142666741E+02  0.26563128149E+03  0.00000000000E+00 0.  1.
         22    1    3    3    0    0  0.75677475808E+02  0.39824755950E+03 -0.51840931355E+02  0.40867552062E+03  0.00000000000E+00 0.  1.
</event>
<event>
 7    1  0.8792454E-005  0.9693298E+03  0.7818608E-02  0.1029307E+00
          2   -1    0    0  502    0  0.00000000000E+00  0.00000000000E+00  0.27306151291E+04  0.27306151291E+04  0.00000000000E+00 0. -1.
          1   -1    0    0  501    0 -0.00000000000E+00 -0.00000000000E+00 -0.21494997012E+04  0.21494997012E+04  0.00000000000E+00 0. -1.
         25    2    1    2    0    0 -0.75650055447E+03 -0.48453761325E+03 -0.59526387891E+03  0.10849119701E+04  0.12500043905E+03 0.  0.
          2    1    1    2  501    0  0.94783073024E+03  0.41365188218E+03 -0.10999415354E+04  0.15097557267E+04  0.00000000000E+00 0. -1.
          1    1    1    2  502    0 -0.19133017577E+03  0.70885731070E+02  0.22763208423E+04  0.22854471335E+04  0.00000000000E+00 0. -1.
         22    1    3    3    0    0 -0.48939918858E+03 -0.36846476770E+03 -0.36018064359E+03  0.71063911153E+03  0.00000000000E+00 0.  1.
         22    1    3    3    0    0 -0.26710136588E+03 -0.11607284555E+03 -0.23508323531E+03  0.37427285856E+03  0.00000000000E+00 0.  1.
</event>
<event>
 7    1  0.8792454E-005  0.7321981E+02  0.7818608E-02  0.1438064E+00
          2   -1    0    0  502    0  0.00000000000E+00  0.00000000000E+00  0.10733384416E+03  0.10733384416E+03  0.00000000000E+00 0. -1.
          1   -1    0    0  501    0 -0.00000000000E+00 -0.00000000000E+00 -0.26517512021E+04  0.26517512021E+04  0.00000000000E+00 0. -1.
         25    2    1    2    0    0  0.85502534585E+02  0.22861802296E+02 -0.36443636776E+03  0.39530989298E+03  0.12499079931E+03 0.  0.
          2    1    1    2  501    0 -0.72126445479E+02  0.10611821169E+02 -0.22677346858E+04  0.22689062210E+04  0.00000000000E+00 0. -1.
          1    1    1    2  502    0 -0.13376089106E+02 -0.33473623465E+02  0.87753695548E+02  0.94868932270E+02  0.00000000000E+00 0. -1.
         22    1    3    3    0    0  0.73348177383E+02  0.21580938638E+02 -0.37276174848E+03  0.38052202718E+03  0.00000000000E+00 0. -1.
         22    1    3    3    0    0  0.12154357203E+02  0.12808636577E+01  0.83253807190E+01  0.14787865797E+02  0.00000000000E+00 0. -1.
</event>
<event>
 7    1  0.8792454E-005  0.8231954E+02  0.7818608E-02  0.1356771E+00
          2   -1    0    0  502    0  0.00000000000E+00  0.00000000000E+00  0.17483351735E+03  0.17483351735E+03  0.00000000000E+00 0. -1.
          1   -1    0    0  501    0 -0.00000000000E+00 -0.00000000000E+00 -0.26225642751E+03  0.26225642751E+03  0.00000000000E+00 0. -1.
         25    2    1    2    0    0  0.30541367226E+02  0.63966687334E+02 -0.17141036580E+03  0.22368473958E+03  0.12501534712E+03 0.  0.
          2    1    1    2  501    0 -0.50387923754E+02 -0.12187318472E+03  0.74482724106E+02  0.15145854946E+03  0.00000000000E+00 0. -1.
          1    1    1    2  502    0  0.19846556528E+02  0.57906497386E+02  0.95047315407E+01  0.61946655819E+02  0.00000000000E+00 0. -1.
         22    1    3    3    0    0  0.47464176329E+02 -0.18853279461E+02 -0.30854995492E+02  0.59668458400E+02  0.00000000000E+00 0. -1.
         22    1    3    3    0    0 -0.16922809103E+02  0.82819966795E+02 -0.14055537031E+03  0.16401628118E+03  0.00000000000E+00 0. -1.
</event>
<event>
 7    1  0.8792454E-005  0.2573923E+03  0.7818608E-02  0.1132257E+00
          2   -1    0    0  502    0  0.00000000000E+00  0.00000000000E+00  0.80367047531E+03  0.80367047531E+03  0.00000000000E+00 0. -1.
          1   -1    0    0  501    0 -0.00000000000E+00 -0.00000000000E+00 -0.58258880345E+03  0.58258880345E+03  0.00000000000E+00 0. -1.
         25    2    1    2    0    0 -0.33978464572E+03  0.10138672562E+03 -0.28687223203E+03  0.47292027989E+03  0.12500016010E+03 0.  0.
          2    1    1    2  501    0  0.15239125788E+03 -0.14231173916E+03 -0.13098029344E+03  0.24623477384E+03  0.00000000000E+00 0. -1.
          1    1    1    2  502    0  0.18739338785E+03  0.40925013546E+02  0.63893419732E+03  0.66710422502E+03  0.00000000000E+00 0. -1.
         22    1    3    3    0    0 -0.31501909865E+03  0.50497152892E+02 -0.23627611584E+03  0.39700553885E+03  0.00000000000E+00 0. -1.
         22    1    3    3    0    0 -0.24765547076E+02  0.50889572725E+02 -0.50596116189E+02  0.75914741043E+02  0.00000000000E+00 0. -1.
</event>
<event>
 7    1  0.8792454E-005  0.1090931E+03  0.7818608E-02  0.1294529E+00
          2   -1    0    0  502    0  0.00000000000E+00  0.00000000000E+00  0.68650974307E+03  0.68650974307E+03  0.00000000000E+00 0. -1.
          1   -1    0    0  501    0 -0.00000000000E+00 -0.00000000000E+00 -0.19069579574E+03  0.19069579574E+03  0.00000000000E+00 0. -1.
         25    2    1    2    0    0  0.13682314154E+03  0.97316909247E+02  0.20241780525E+03  0.29118756607E+03  0.12500431138E+03 0.  0.
          2    1    1    2  501    0 -0.79122660841E+02 -0.12988593393E+02 -0.12875304945E+03  0.15167876173E+03  0.00000000000E+00 0. -1.
          1    1    1    2  502    0 -0.57700480697E+02 -0.84328315854E+02  0.42214919152E+03  0.43433921101E+03  0.00000000000E+00 0. -1.
         22    1    3    3    0    0  0.56411492585E+02  0.45268754634E+02  0.17829915003E+03  0.19241128746E+03  0.00000000000E+00 0.  1.
         22    1    3    3    0    0  0.80411648952E+02  0.52048154613E+02  0.24118655229E+02  0.98776278609E+02  0.00000000000E+00 0.  1.
</event>
<event>
 7    1  0.8792454E-005  0.1523449E+03  0.7818608E-02  0.1329636E+00
          2   -1    0    0  502    0  0.00000000000E+00  0.00000000000E+00  0.96208154291E+03  0.96208154291E+03  0.00000000000E+00 0. -1.
          1   -1    0    0  501    0 -0.00000000000E+00 -0.00000000000E+00 -0.13072567944E+03  0.13072567944E+03  0.00000000000E+00 0. -1.
         25    2    1    2    0    0  0.12362588128E+03 -0.11856104150E+02 -0.51629948208E+02  0.18361724084E+03  0.12500285538E+03 0.  0.
          2    1    1    2  501    0  0.29598717328E+02  0.29507330240E+02  0.68613347483E+02  0.80340264240E+02  0.00000000000E+00 0. -1.
          1    1    1    2  502    0 -0.15322459860E+03 -0.17651226090E+02  0.81437246419E+03  0.82884971728E+03  0.00000000000E+00 0. -1.
         22    1    3    3    0    0  0.21547601307E+01 -0.48965248280E+02 -0.10644973992E+02  0.50155298839E+02  0.00000000000E+00 0.  1.
         22    1    3    3    0    0  0.12147112115E+03  0.37109144130E+02 -0.40984974216E+02  0.13346194200E+03  0.00000000000E+00 0.  1.
</event>
<event>
 7    1  0.8792454E-005  0.4477891E+03  0.7818608E-02  0.1031366E+00
          2   -1    0    0  502    0  0.00000000000E+00  0.00000000000E+00  0.78297294148E+03  0.78297294148E+03  0.00000000000E+00 0. -1.
          1   -1    0    0  501    0 -0.00000000000E+00 -0.00000000000E+00 -0.21901039059E+04  0.21901039059E+04  0.00000000000E+00 0. -1.
         25    2    1    2    0    0 -0.42178636362E+03 -0.42252744958E+02 -0.34257327796E+03  0.55916884345E+03  0.12499725485E+03 0.  0.
          2    1    1    2  501    0  0.33664583223E+03 -0.37760229131E+03 -0.16287490034E+04  0.17055020442E+04  0.00000000000E+00 0. -1.
          1    1    1    2  502    0  0.85140531387E+02  0.41985503627E+03  0.56419131698E+03  0.70840595968E+03  0.00000000000E+00 0. -1.
         22    1    3    3    0    0 -0.42192492648E+03 -0.24213136687E+02 -0.33620489818E+03  0.54003764047E+03  0.00000000000E+00 0.  1.
         22    1    3    3    0    0  0.13856285594E+00 -0.18039608271E+02 -0.63683797860E+01  0.19131202977E+02  0.00000000000E+00 0.  1.
</event>
<event>
 7    1  0.8792454E-005  0.1937174E+03  0.7818608E-02  0.1300085E+00
          2   -1    0    0  502    0  0.00000000000E+00  0.00000000000E+00  0.29066735525E+04  0.29066735525E+04  0.00000000000E+00 0. -1.
          1   -1    0    0  501    0 -0.00000000000E+00 -0.00000000000E+00 -0.59268894172E+03  0.59268894172E+03  0.00000000000E+00 0. -1.
         25    2    1    2    0    0 -0.90313917091E+02  0.15539103354E+03  0.28291535077E+04  0.28376104149E+04  0.12498127774E+03 0.  0.
          2    1    1    2  501    0  0.58944019094E+02 -0.18464102642E+03 -0.56422634719E+03  0.59658869993E+03  0.00000000000E+00 0. -1.
          1    1    1    2  502    0  0.31369897997E+02  0.29249992886E+02  0.49057450263E+02  0.65163379367E+02  0.00000000000E+00 0. -1.
         22    1    3    3    0    0  0.84704627828E+01  0.36655439188E+02  0.13277905363E+04  0.13283234087E+04  0.00000000000E+00 0. -1.
         22    1    3    3    0    0 -0.98784379874E+02  0.11873559435E+03  0.15013629714E+04  0.15092870062E+04  0.00000000000E+00 0. -1.
</event>
<event>
 7    1  0.8792454E-005  0.1278870E+04  0.7818608E-02  0.1054464E+00
          2   -1    0    0  502    0  0.00000000000E+00  0.00000000000E+00  0.36781564707E+04  0.36781564707E+04  0.00000000000E+00 0. -1.
          1   -1    0    0  501    0 -0.00000000000E+00 -0.00000000000E+00 -0.17827704820E+04  0.17827704820E+04  0.00000000000E+00 0. -1.
         25    2    1    2    0    0  0.12856837392E+04 -0.10765071595E+03  0.31760173459E+04  0.34303471961E+04  0.12499740223E+03 0.  0.
          2    1    1    2  501    0 -0.92734971163E+02  0.54163564683E+02 -0.69008000394E+03  0.69838662534E+03  0.00000000000E+00 0. -1.
          1    1    1    2  502    0 -0.11929487680E+04  0.53487151265E+02 -0.59055135321E+03  0.13321931314E+04  0.00000000000E+00 0. -1.
         22    1    3    3    0    0  0.27348015292E+03 -0.27385997130E+02  0.82020384733E+03  0.86502932785E+03  0.00000000000E+00 0.  1.
         22    1    3    3    0    0  0.10122035863E+04 -0.80264718817E+02  0.23558134985E+04  0.25653178682E+04  0.00000000000E+00 0.  1.
</event>
<event>
 7    1  0.8792454E-005  0.4392436E+03  0.7818608E-02  0.1140644E+00
          2   -1    0    0  502    0  0.00000000000E+00  0.00000000000E+00  0.14348651248E+04  0.14348651248E+04  0.00000000000E+00 0. -1.
          1   -1    0    0  501    0 -0.00000000000E+00 -0.00000000000E+00 -0.99894421525E+03  0.99894421525E+03  0.00000000000E+00 0. -1.
         25    2    1    2    0    0 -0.43336736428E+03 -0.29628408968E+03  0.10865818926E+03  0.55047537482E+03  0.12500000788E+03 0.  0.
          2    1    1    2  501    0  0.83163585241E+02  0.58225925470E+02 -0.73385465438E+03  0.74084350173E+03  0.00000000000E+00 0. -1.
          1    1    1    2  502    0  0.35020377903E+03  0.23805816421E+03  0.10611173747E+04  0.11424904635E+04  0.00000000000E+00 0. -1.
         22    1    3    3    0    0 -0.14256841985E+03 -0.15183673693E+03  0.84869793913E+02  0.22490671608E+03  0.00000000000E+00 0.  1.
         22    1    3    3    0    0 -0.29079894443E+03 -0.14444735275E+03  0.23788395345E+02  0.32556865873E+03  0.00000000000E+00 0.  1.
</event>
<event>
 7    1  0.8792454E-005  0.3651855E+03  0.7818608E-02  0.1104572E+00
          2   -1    0    0  502    0  0.00000000000E+00  0.00000000000E+00  0.62901813323E+03  0.62901813323E+03  0.00000000000E+00 0. -1.
          1   -1    0    0  501    0 -0.00000000000E+00 -0.00000000000E+00 -0.10384512198E+04  0.10384512198E+04  0.00000000000E+00 0. -1.
         25    2    1    2    0    0 -0.13960766589E+03  0.37333214504E+03  0.67982912654E+02  0.42321620917E+03  0.12499236935E+03 0.  0.
          2    1    1    2  501    0  0.19090929232E+03 -0.12570531493E+02 -0.75963225577E+03  0.78335530902E+03  0.00000000000E+00 0. -1.
          1    1    1    2  502    0 -0.51301626426E+02 -0.36076161355E+03  0.28221625655E+03  0.46089783483E+03  0.00000000000E+00 0. -1.
         22    1    3    3    0    0 -0.77493261932E+02  0.32489718258E+03  0.80208679714E+02  0.34350664796E+03  0.00000000000E+00 0. -1.
         22    1    3    3    0    0 -0.62114403960E+02  0.48434962467E+02 -0.12225767060E+02  0.79709561213E+02  0.00000000000E+00 0. -1.
</event>
<event>
 7    1  0.8792454E-005  0.8044245E+02  0.7818608E-02  0.1378067E+00
          2   -1    0    0  502    0  0.00000000000E+00  0.00000000000E+00  0.11720220198E+04  0.11720220198E+04  0.00000000000E+00 0. -1.
          1   -1    0    0  501    0 -0.00000000000E+00 -0.00000000000E+00 -0.36416543158E+02  0.36416543158E+02  0.00000000000E+00 0. -1.
         25    2    1    2    0    0  0.52877018107E+02  0.39935271658E+02  0.22255127629E+03  0.26370643116E+03  0.12498482425E+03 0.  0.
          2    1    1    2  501    0 -0.33028668861E+02  0.40784450287E+02  0.35754311630E+02  0.63503032621E+02  0.00000000000E+00 0. -1.
          1    1    1    2  502    0 -0.19848349246E+02 -0.80719721945E+02  0.87729988873E+03  0.88122909918E+03  0.00000000000E+00 0. -1.
         22    1    3    3    0    0  0.62824024320E+02 -0.23361047963E+02  0.16295616445E+03  0.17620246345E+03  0.00000000000E+00 0. -1.
         22    1    3    3    0    0 -0.99470062125E+01  0.63296319621E+02  0.59595111834E+02  0.87503967708E+02  0.00000000000E+00 0. -1.
</event>
<event>
 7    1  0.8792454E-005  0.3613786E+03  0.7818608E-02  0.1141600E+00
          2   -1    0    0  502    0  0.00000000000E+00  0.00000000000E+00  0.19072676471E+04  0.19072676471E+04  0.00000000000E+00 0. -1.
          1   -1    0    0  501    0 -0.00000000000E+00 -0.00000000000E+00 -0.27415157492E+03  0.27415157492E+03  0.00000000000E+00 0. -1.
         25    2    1    2    0    0 -0.22985460490E+03  0.22635922145E+03  0.34699691097E+03  0.49000324742E+03  0.12499875889E+03 0.  0.
          2    1    1    2  501    0 -0.10839016841E+03 -0.55958745771E+02 -0.15734480024E+03  0.19909092395E+03  0.00000000000E+00 0. -1.
          1    1    1    2  502    0  0.33824477331E+03 -0.17040047568E+03  0.14434639615E+04  0.14923250507E+04  0.00000000000E+00 0. -1.
         22    1    3    3    0    0 -0.69774748726E+02  0.14972840629E+01  0.76072507037E+02  0.10323654269E+03  0.00000000000E+00 0. -1.
         22    1    3    3    0    0 -0.16007985618E+03  0.22486193739E+03  0.27092440393E+03  0.38676670473E+03  0.00000000000E+00 0. -1.
</event>
<event>
 7    1  0.8792454E-005  0.1990305E+03  0.7818608E-02  0.1330115E+00
          2   -1    0    0  502    0  0.00000000000E+00  0.00000000000E+00  0.80591344187E+03  0.80591344187E+03  0.00000000000E+00 0. -1.
          1   -1    0    0  501    0 -0.00000000000E+00 -0.00000000000E+00 -0.93179355914E+03  0.93179355914E+03  0.00000000000E+00 0. -1.
         25    2    1    2    0    0 -0.21452117071E+03 -0.59839452552E+02  0.32406389173E+03  0.41260412275E+03  0.12499865367E+03 0.  0.
          2    1    1    2  501    0  0.19534202012E+03  0.34403795190E+02 -0.87583915168E+03  0.89801800960E+03  0.00000000000E+00 0. -1.
          1    1    1    2  502    0  0.19179150589E+02  0.25435657362E+02  0.42589514268E+03  0.42708486866E+03  0.00000000000E+00 0. -1.
         22    1    3    3    0    0 -0.90668212051E+01 -0.11058342461E+02 -0.99617991883E+01  0.17427897975E+02  0.00000000000E+00 0. -1.
         22    1    3    3    0    0 -0.20545434950E+03 -0.48781110091E+02  0.33402569092E+03  0.39517622477E+03  0.00000000000E+00 0. -1.
</event>
<event>
 7    1  0.8792454E-005  0.1093961E+03  0.7818608E-02  0.1280985E+00
          2   -1    0    0  502    0  0.00000000000E+00  0.00000000000E+00  0.73126969700E+03  0.73126969700E+03  0.00000000000E+00 0. -1.
          1   -1    0    0  501    0 -0.00000000000E+00 -0.00000000000E+00 -0.14472552592E+03  0.14472552592E+03  0.00000000000E+00 0. -1.
         25    2    1    2    0    0 -0.15896262581E+03  0.10174326562E+03  0.15486461796E+03  0.27427926565E+03  0.12500102866E+03 0.  0.
          2    1    1    2  501    0  0.86176921879E+02 -0.47433963673E+02 -0.50836301599E+02  0.11072837186E+03  0.00000000000E+00 0. -1.
          1    1    1    2  502    0  0.72785703928E+02 -0.54309301946E+02  0.48251585472E+03  0.49098758541E+03  0.00000000000E+00 0. -1.
         22    1    3    3    0    0 -0.53507331931E+02  0.21999265610E+02 -0.14284137277E+02  0.59590593515E+02  0.00000000000E+00 0.  1.
         22    1    3    3    0    0 -0.10545529388E+03  0.79744000009E+02  0.16914875524E+03  0.21468867213E+03  0.00000000000E+00 0.  1.
</event>
<event>
 7    1  0.1155949E-004  0.2277469E+03  0.7818608E-02  0.1169294E+00
          2   -1    0    0  502    0  0.00000000000E+00  0.00000000000E+00  0.24942548801E+04  0.24942548801E+04  0.00000000000E+00 0. -1.
          1   -1    0    0  501    0 -0.00000000000E+00 -0.00000000000E+00 -0.87125162297E+03  0.87125162297E+03  0.00000000000E+00 0. -1.
         25    2    1    2    0    0 -0.87712493145E+02 -0.20552499555E+03 -0.22784598554E+03  0.34274311602E+03  0.12500018082E+03 0.  0.
          2    1    1    2  501    0  0.20488427812E+03  0.12917638226E+03 -0.55881353538E+03  0.60904570640E+03  0.00000000000E+00 0. -1.
          1    1    1    2  502    0 -0.11717178497E+03  0.76348613295E+02  0.24096627781E+04  0.24137176807E+04  0.00000000000E+00 0. -1.
         22    1    3    3    0    0 -0.29243324579E+02 -0.11901483364E+03 -0.20019347478E+03  0.23472777851E+03  0.00000000000E+00 0. -1.
         22    1    3    3    0    0 -0.58469168566E+02 -0.86510161917E+02 -0.27652510755E+02  0.10801533752E+03  0.00000000000E+00 0. -1.
</event>
<event>
 7    1  0.1295949E-004  0.1476851E+03  0.7818608E-02  0.1225476E+00
          2   -1    0    0  502    0  0.00000000000E+00  0.00000000000E+00  0.20873263545E+04  0.20873263545E+04  0.00000000000E+00 0. -1.
          1   -1    0    0  501    0 -0.00000000000E+00 -0.00000000000E+00 -0.66094843616E+03  0.66094843616E+03  0.00000000000E+00 0. -1.
         25    2    1    2    0    0 -0.93566389139E+02 -0.92941811150E+02 -0.36641524181E+03  0.40899300752E+03  0.12498920486E+03 0.  0.
          2    1    1    2  501    0  0.10312937205E+03 -0.54852679287E+02 -0.25796683341E+03  0.28318080963E+03  0.00000000000E+00 0. -1.
          1    1    1    2  502    0 -0.95629829141E+01  0.14779449044E+03  0.20507599936E+04  0.20561009735E+04  0.00000000000E+00 0. -1.
         22    1    3    3    0    0  0.25050597700E+02 -0.29636923974E+02 -0.38865038714E+02  0.54921497995E+02  0.00000000000E+00 0.  1.
         22    1    3    3    0    0 -0.11861698684E+03 -0.63304887176E+02 -0.32755020309E+03  0.35407150952E+03  0.00000000000E+00 0.  1.
</event>
<event>
 7    1  0.8792454E-005  0.1265861E+03  0.7818608E-02  0.1274424E+00
          2   -1    0    0  502    0  0.00000000000E+00  0.00000000000E+00  0.10071537859E+04  0.10071537859E+04  0.00000000000E+00 0. -1.
          1   -1    0    0  501    0 -0.00000000000E+00 -0.00000000000E+00 -0.55591304977E+02  0.55591304977E+02  0.00000000000E+00 0. -1.
         25    2    1    2    0    0 -0.83314082643E+02  0.60478143736E+01  0.62624383285E+03  0.64403915374E+03  0.12500912342E+03 0.  0.
          2    1    1    2  501    0  0.36816262081E+02  0.12111402793E+03  0.13414614596E+03  0.18444303563E+03  0.00000000000E+00 0. -1.
          1    1    1    2  502    0  0.46497820561E+02 -0.12716184231E+03  0.19117250206E+03  0.23426290146E+03  0.00000000000E+00 0. -1.
         22    1    3    3    0    0  0.53541437112E+01  0.49161855289E+02  0.26540652276E+03  0.26997440100E+03  0.00000000000E+00 0.  1.
         22    1    3    3    0    0 -0.88668226354E+02 -0.43114040915E+02  0.36083731009E+03  0.37406475274E+03  0.00000000000E+00 0.  1.
</event>
<event>
 7    1  0.8792454E-005  0.4371720E+03  0.7818608E-02  0.1205013E+00
          2   -1    0    0  502    0  0.00000000000E+00  0.00000000000E+00  0.26309912012E+03  0.26309912012E+03  0.00000000000E+00 0. -1.
          1   -1    0    0  501    0 -0.00000000000E+00 -0.00000000000E+00 -0.13103316185E+04  0.13103316185E+04  0.00000000000E+00 0. -1.
         25    2    1    2    0    0  0.39056182195E+03 -0.15310921008E+03 -0.41918938633E+03  0.60607366820E+03  0.12499833075E+03 0.  0.
          2    1    1    2  501    0 -0.40276515748E+03  0.20056786274E+03 -0.72812177074E+03  0.85592555323E+03  0.00000000000E+00 0. -1.
          1    1    1    2  502    0  0.12203335521E+02 -0.47458652658E+02  0.10007865867E+03  0.11143151722E+03  0.00000000000E+00 0. -1.
         22    1    3    3    0    0  0.17967552434E+03 -0.71006563042E+02 -0.10811733401E+03  0.22139237556E+03  0.00000000000E+00 0. -1.
         22    1    3    3    0    0  0.21088629762E+03 -0.82102647036E+02 -0.31107205232E+03  0.38468129264E+03  0.00000000000E+00 0. -1.
</event>
<event>
 7    1  0.8792454E-005  0.1744259E+03  0.7818608E-02  0.1232911E+00
          2   -1    0    0  502    0  0.00000000000E+00  0.00000000000E+00  0.13402948591E+04  0.13402948591E+04  0.00000000000E+00 0. -1.
          1   -1    0    0  501    0 -0.00000000000E+00 -0.00000000000E+00 -0.83962662336E+02  0.83962662336E+02  0.00000000000E+00 0. -1.
         25    2    1    2    0    0 -0.75813871486E+02 -0.14914600798E+03  0.30077925980E+03  0.36617694789E+03  0.12500047694E+03 0.  0.
          2    1    1    2  501    0  0.15496177167E+03  0.10306609619E+03  0.12894005912E+03  0.22640960604E+03  0.00000000000E+00 0. -1.
          1    1    1    2  502    0 -0.79147900181E+02  0.46079911796E+02  0.82661287781E+03  0.83167096747E+03  0.00000000000E+00 0. -1.
         22    1    3    3    0    0 -0.47782472736E+02  0.58585529894E+01  0.99980555861E+02  0.11096665668E+03  0.00000000000E+00 0.  1.
         22    1    3    3    0    0 -0.28031398750E+02 -0.15500456097E+03  0.20079870394E+03  0.25521029121E+03  0.00000000000E+00 0.  1.
</event>
<event>
 7    1  0.8792454E-005  0.1238276E+03  0.7818608E-02  0.1331939E+00
          2   -1    0    0  502    0  0.00000000000E+00  0.00000000000E+00  0.37120415446E+03  0.37120415446E+03  0.00000000000E+00 0. -1.
          1   -1    0    0  501    0 -0.00000000000E+00 -0.00000000000E+00 -0.73852791194E+03  0.73852791194E+03  0.00000000000E+00 0. -1.
         25    2    1    2    0    0  0.11993030529E+03  0.12222646228E+03  0.22340880560E+03  0.30798993505E+03  0.12499487777E+03 0.  0.
          2    1    1    2  501    0 -0.94172488309E+02 -0.78917779767E+02 -0.68442115389E+03  0.69536234397E+03  0.00000000000E+00 0. -1.
          1    1    1    2  502    0 -0.25757816982E+02 -0.43308682509E+02  0.93688590808E+02  0.10637978738E+03  0.00000000000E+00 0. -1.
         22    1    3    3    0    0 -0.70983858802E+01  0.68160046064E+02  0.43320546867E+02  0.81073107393E+02  0.00000000000E+00 0. -1.
         22    1    3    3    0    0  0.12702869117E+03  0.54066416212E+02  0.18008825873E+03  0.22691682766E+03  0.00000000000E+00 0. -1.
</event>
<event>
 7    1  0.8792454E-005  0.2696413E+03  0.7818608E-02  0.1163098E+00
          2   -1    0    0  502    0  0.00000000000E+00  0.00000000000E+00  0.17811463271E+04  0.17811463271E+04  0.00000000000E+00 0. -1.
          1   -1    0    0  501    0 -0.00000000000E+00 -0.00000000000E+00 -0.58767535635E+03  0.58767535635E+03  0.00000000000E+00 0. -1.
         25    2    1    2    0    0  0.15301671561E+03 -0.19813127904E+03 -0.21523432765E+03  0.35301608991E+03  0.12499769978E+03 0.  0.
          2    1    1    2  501    0 -0.71535569855E+02  0.29536036134E+03 -0.22440649562E+03  0.37777421310E+03  0.00000000000E+00 0. -1.
          1    1    1    2  502    0 -0.81481145752E+02 -0.97229082308E+02  0.16331117940E+04  0.16380313804E+04  0.00000000000E+00 0. -1.
         22    1    3    3    0    0  0.10428470516E+03 -0.64517667768E+02 -0.43682864427E+02  0.13017688669E+03  0.00000000000E+00 0. -1.
         22    1    3    3    0    0  0.48732010449E+02 -0.13361361127E+03 -0.17155146322E+03  0.22283920322E+03  0.00000000000E+00 0. -1.
</event>
<event>
 7    1  0.8792454E-005  0.2017105E+03  0.7818608E-02  0.1179351E+00
          2   -1    0    0  502    0  0.00000000000E+00  0.00000000000E+00  0.25437433826E+03  0.25437433826E+03  0.00000000000E+00 0. -1.
          1   -1    0    0  501    0 -0.00000000000E+00 -0.00000000000E+00 -0.54427493107E+03  0.54427493107E+03  0.00000000000E+00 0. -1.
         25    2    1    2    0    0 -0.20834831193E+03  0.43974002529E+02  0.10744169940E+03  0.26927882141E+03  0.12499853161E+03 0.  0.
          2    1    1    2  501    0  0.13032513386E+03 -0.16126211136E+03 -0.26091868134E+03  0.33326966161E+03  0.00000000000E+00 0. -1.
          1    1    1    2  502    0  0.78023178074E+02  0.11728810883E+03 -0.13642361087E+03  0.19610078631E+03  0.00000000000E+00 0. -1.
         22    1    3    3    0    0 -0.13604280292E+03 -0.29983266396E+02  0.36993029074E+02  0.14413578560E+03  0.00000000000E+00 0.  1.
         22    1    3    3    0    0 -0.72305509009E+02  0.73957268925E+02  0.70448670324E+02  0.12514303580E+03  0.00000000000E+00 0.  1.
</event>
<event>
 7    1  0.8792454E-005  0.1479788E+03  0.7818608E-02  0.1309113E+00
          2   -1    0    0  502    0  0.00000000000E+00  0.00000000000E+00  0.21655234905E+04  0.21655234905E+04  0.00000000000E+00 0. -1.
          1   -1    0    0  501    0 -0.00000000000E+00 -0.00000000000E+00 -0.16688131760E+03  0.16688131760E+03  0.00000000000E+00 0. -1.
         25    2    1    2    0    0  0.74325272526E+02 -0.17683988231E+03 -0.36822479504E+02  0.23190228930E+03  0.12500474659E+03 0.  0.
          2    1    1    2  501    0  0.29635103903E+01  0.51610823702E+02 -0.75066280341E+01  0.52238003230E+02  0.00000000000E+00 0. -1.
          1    1    1    2  502    0 -0.77288782916E+02  0.12522905861E+03  0.20429712804E+04  0.20482645156E+04  0.00000000000E+00 0. -1.
         22    1    3    3    0    0  0.45749048524E+02 -0.95326551740E+02 -0.82571913558E+02  0.13415754849E+03  0.00000000000E+00 0.  1.
         22    1    3    3    0    0  0.28576224002E+02 -0.81513330574E+02  0.45749434054E+02  0.97744740808E+02  0.00000000000E+00 0.  1.
</event>
<event>
 7    1  0.8792454E-005  0.1406353E+04  0.7818608E-02  0.1109246E+00
          2   -1    0    0  502    0  0.00000000000E+00  0.00000000000E+00  0.29496057710E+04  0.29496057710E+04  0.00000000000E+00 0. -1.
          1   -1    0    0  501    0 -0.00000000000E+00 -0.00000000000E+00 -0.15337564460E+04  0.15337564460E+04  0.00000000000E+00 0. -1.
         25    2    1    2    0    0 -0.73775693653E+03  0.12068282636E+04  0.12963402668E+04  0.19227176289E+04  0.12500095174E+03 0.  0.
          2    1    1    2  501    0  0.69329614626E+03 -0.12214169671E+04 -0.81577247015E+03  0.16241932388E+04  0.00000000000E+00 0. -1.
          1    1    1    2  502    0  0.44460790272E+02  0.14588703555E+02  0.93528152836E+03  0.93645134921E+03  0.00000000000E+00 0. -1.
         22    1    3    3    0    0 -0.23166244372E+03  0.32243878995E+03  0.42982638890E+03  0.58513672393E+03  0.00000000000E+00 0.  1.
         22    1    3    3    0    0 -0.50609449281E+03  0.88438947363E+03  0.86651387791E+03  0.13375809050E+04  0.00000000000E+00 0.  1.
</event>
<event>
 7    1  0.8792454E-005  0.7559859E+02  0.7818608E-02  0.1358266E+00
          2   -1    0    0  502    0  0.00000000000E+00  0.00000000000E+00  0.16525221076E+04  0.16525221076E+04  0.00000000000E+00 0. -1.
          1   -1    0    0  501    0 -0.00000000000E+00 -0.00000000000E+00 -0.40475762391E+03  0.40475762391E+03  0.00000000000E+00 0. -1.
         25    2    1    2    0    0 -0.69859578457E+02  0.27674599783E+02 -0.31999713620E+03  0.35166624036E+03  0.12499893303E+03 0.  0.
          2    1    1    2  501    0  0.38234507414E+02 -0.85399496666E+02 -0.36181992468E+02  0.10031992906E+03  0.00000000000E+00 0. -1.
          1    1    1    2  502    0  0.31625071042E+02  0.57724896883E+02  0.16039436124E+04  0.16052935621E+04  0.00000000000E+00 0. -1.
         22    1    3    3    0    0  0.31418588996E+02 -0.51456707498E+01 -0.34404126785E+02  0.46874829086E+02  0.00000000000E+00 0.  1.
         22    1    3    3    0    0 -0.10127816745E+03  0.32820270533E+02 -0.28559300942E+03  0.30479141128E+03  0.00000000000E+00 0.  1.
</event>
<event>
 7    1  0.8792454E-005  0.6640007E+03  0.7818608E-02  0.1140940E+00
          2   -1    0    0  502    0  0.00000000000E+00  0.00000000000E+00  0.97911178574E+03  0.97911178574E+03  0.00000000000E+00 0. -1.
          1   -1    0    0  501    0 -0.00000000000E+00 -0.00000000000E+00 -0.29459524755E+04  0.29459524755E+04  0.00000000000E+00 0. -1.
         25    2    1    2    0    0  0.60424454088E+03  0.39766567076E+03  0.75202972561E+03  0.10509108391E+04  0.12496172467E+03 0.  0.
          2    1    1    2  501    0 -0.53882278021E+03 -0.38359405668E+03 -0.27276180500E+04  0.28066661033E+04  0.00000000000E+00 0. -1.
          1    1    1    2  502    0 -0.65421760669E+02 -0.14071614076E+02  0.87476346323E+01  0.67487318834E+02  0.00000000000E+00 0. -1.
         22    1    3    3    0    0  0.11646563133E+03  0.80987637031E+02  0.22548953199E+03  0.26639964277E+03  0.00000000000E+00 0.  1.
         22    1    3    3    0    0  0.48777890955E+03  0.31667803373E+03  0.52654019362E+03  0.78451119631E+03  0.00000000000E+00 0.  1.
</event>
<event>
 7    1  0.8792454E-005  0.1876683E+04  0.7818608E-02  0.1029382E+00
          2   -1    0    0  502    0  0.00000000000E+00  0.00000000000E+00  0.33965340637E+04  0.33965340637E+04  0.00000000000E+00 0. -1.
          1   -1    0    0  501    0 -0.00000000000E+00 -0.00000000000E+00 -0.20077110577E+04  0.20077110577E+04  0.00000000000E+00 0. -1.
         25    2    1    2    0    0 -0.55997491163E+03  0.18376137467E+04  0.12381652825E+04  0.22889027814E+04  0.12500596846E+03 0.  0.
          2    1    1    2  501    0  0.45996242261E+03 -0.18047587453E+04 -0.89364334100E+03  0.20657487698E+04  0.00000000000E+00 0. -1.
          1    1    1    2  502    0  0.10001248902E+03 -0.32855001437E+02  0.10443010646E+04  0.10495935702E+04  0.00000000000E+00 0. -1.
         22    1    3    3    0    0 -0.27214902915E+03  0.79309643465E+03  0.60549355723E+03  0.10342579449E+04  0.00000000000E+00 0. -1.
         22    1    3    3    0    0 -0.28782588249E+03  0.10445173121E+04  0.63267172528E+03  0.12546448365E+04  0.00000000000E+00 0. -1.
</event>
<event>
 7    1  0.8792454E-005  0.1608176E+03  0.7818608E-02  0.1244690E+00
          2   -1    0    0  502    0  0.00000000000E+00  0.00000000000E+00  0.26856433912E+02  0.26856433912E+02  0.00000000000E+00 0. -1.
          1   -1    0    0  501    0 -0.00000000000E+00 -0.00000000000E+00 -0.26267202674E+04  0.26267202674E+04  0.00000000000E+00 0. -1.
         25    2    1    2    0    0  0.63267634262E+02 -0.94688350235E+02 -0.10398404329E+04  0.10534996703E+04  0.12499900873E+03 0.  0.
          2    1    1    2  501    0  0.87358276961E+02 -0.11523624024E+02 -0.11139205629E+04  0.11174002339E+04  0.00000000000E+00 0. -1.
          1    1    1    2  502    0 -0.15062591122E+03  0.10621197426E+03 -0.44610283772E+03  0.48267679707E+03  0.00000000000E+00 0. -1.
         22    1    3    3    0    0  0.20051753602E+02  0.10430504830E+02 -0.31477855139E+02  0.38752078882E+02  0.00000000000E+00 0.  1.
         22    1    3    3    0    0  0.43215880660E+02 -0.10511885507E+03 -0.10083625778E+04  0.10147475914E+04  0.00000000000E+00 0.  1.
</event>
<event>
 7    1  0.8792454E-005  0.9147273E+02  0.7818608E-02  0.1319400E+00
          2   -1    0    0  502    0  0.00000000000E+00  0.00000000000E+00  0.38489886035E+02  0.38489886035E+02  0.00000000000E+00 0. -1.
          1   -1    0    0  501    0 -0.00000000000E+00 -0.00000000000E+00 -0.24757880926E+04  0.24757880926E+04  0.00000000000E+00 0. -1.
         25    2    1    2    0    0  0.80694134834E+02  0.72958952320E+02 -0.53449125828E+03  0.55957820378E+03  0.12494922509E+03 0.  0.
          2    1    1    2  501    0 -0.92361857895E+02  0.23667419404E+01 -0.18690552958E+04  0.18713374931E+04  0.00000000000E+00 0. -1.
          1    1    1    2  502    0  0.11667723060E+02 -0.75325694261E+02 -0.33751652496E+02  0.83362281780E+02  0.00000000000E+00 0. -1.
         22    1    3    3    0    0 -0.24071345453E+02  0.53839978389E+02 -0.17754420257E+03  0.18708318153E+03  0.00000000000E+00 0.  1.
         22    1    3    3    0    0  0.10476548029E+03  0.19118973932E+02 -0.35694705571E+03  0.37249502226E+03  0.00000000000E+00 0.  1.
</event>
<event>
 7    1  0.8792454E-005  0.2010771E+03  0.7818608E-02  0.1167742E+00
          2   -1    0    0  502    0  0.00000000000E+00  0.00000000000E+00  0.35395335722E+04  0.35395335722E+04  0.00000000000E+00 0. -1.
          1   -1    0    0  501    0 -0.00000000000E+00 -0.00000000000E+00 -0.15682994883E+04  0.15682994883E+04  0.00000000000E+00 0. -1.
         25    2    1    2    0    0 -0.23433953082E+03 -0.92702996819E+02 -0.21920152681E+03  0.35663227750E+03  0.12501364197E+03 0.  0.
          2    1    1    2  501    0  0.96552954499E+02  0.17645672785E+03 -0.12705940895E+04  0.12864170359E+04  0.00000000000E+00 0. -1.
          1    1    1    2  502    0  0.13778657632E+03 -0.83753731034E+02  0.34610297002E+04  0.34647837471E+04  0.00000000000E+00 0. -1.
         22    1    3    3    0    0 -0.23694714026E+01 -0.63148744909E+01 -0.64242898693E+02  0.64595991107E+02  0.00000000000E+00 0. -1.
         22    1    3    3    0    0 -0.23197005942E+03 -0.86388122328E+02 -0.15495862811E+03  0.29203628640E+03  0.00000000000E+00 0. -1.
</event>
<event>
 7    1  0.8792454E-005  0.7369773E+03  0.7818608E-02  0.1061818E+00
          2   -1    0    0  502    0  0.00000000000E+00  0.00000000000E+00  0.13937270354E+04  0.13937270354E+04  0.00000000000E+00 0. -1.
          1   -1    0    0  501    0 -0.00000000000E+00 -0.00000000000E+00 -0.74537434065E+03  0.74537434065E+03  0.00000000000E+00 0. -1.
         25    2    1    2    0    0  0.16039668526E+03  0.66644116125E+03  0.10899558126E+03  0.70524887514E+03  0.12500008439E+03 0.  0.
          2    1    1    2  501    0 -0.13397504507E+03  0.10148871119E+03 -0.26987612237E+03  0.31793457287E+03  0.00000000000E+00 0. -1.
          1    1    1    2  502    0 -0.26421640183E+02 -0.76792987244E+03  0.80923323581E+03  0.11159179280E+04  0.00000000000E+00 0. -1.
         22    1    3    3    0    0  0.43629372828E+02  0.41822598012E+03  0.39985294781E+02  0.42239237259E+03  0.00000000000E+00 0.  1.
         22    1    3    3    0    0  0.11676731243E+03  0.24821518113E+03  0.69010286479E+02  0.28285650255E+03  0.00000000000E+00 0.  1.
</event>
<event>
 7    1  0.8792454E-005  0.2029079E+03  0.7818608E-02  0.1309185E+00
          2   -1    0    0  502    0  0.00000000000E+00  0.00000000000E+00  0.20387490663E+04  0.20387490663E+04  0.00000000000E+00 0. -1.
          1   -1    0    0  501    0 -0.00000000000E+00 -0.00000000000E+00 -0.20528233726E+04  0.20528233726E+04  0.00000000000E+00 0. -1.
         25    2    1    2    0    0 -0.93706409092E+01  0.22498988407E+03 -0.11498362452E+03  0.28205219206E+03  0.12499579310E+03 0.  0.
          2    1    1    2  501    0 -0.19382997660E+02 -0.20064342185E+03 -0.18486446501E+04  0.18596022493E+04  0.00000000000E+00 0. -1.
          1    1    1    2  502    0  0.28753638569E+02 -0.24346462216E+02  0.19495539683E+04  0.19499179975E+04  0.00000000000E+00 0. -1.
         22    1    3    3    0    0 -0.46787306299E+02  0.20887577969E+03 -0.11099511403E+03  0.24111835001E+03  0.00000000000E+00 0. -1.
         22    1    3    3    0    0  0.37416665390E+02  0.16114104377E+02 -0.39885104867E+01  0.40933842047E+02  0.00000000000E+00 0. -1.
</event>
<event>
 7    1  0.8792454E-005  0.3617674E+03  0.7818608E-02  0.1071562E+00
          2   -1    0    0  502    0  0.00000000000E+00  0.00000000000E+00  0.24420326046E+04  0.24420326046E+04  0.00000000000E+00 0. -1.
          1   -1    0    0  501    0 -0.00000000000E+00 -0.00000000000E+00 -0.13205522201E+04  0.13205522201E+04  0.00000000000E+00 0. -1.
         25    2    1    2    0    0  0.39399167314E+03 -0.44563275370E+03 -0.65803963564E+03  0.89580116413E+03  0.12500229561E+03 0.  0.
          2    1    1    2  501    0 -0.70802572050E+02  0.29078124085E+03 -0.48727095290E+03  0.57183888970E+03  0.00000000000E+00 0. -1.
          1    1    1    2  502    0 -0.32318910109E+03  0.15485151285E+03  0.22667909730E+04  0.22949447709E+04  0.00000000000E+00 0. -1.
         22    1    3    3    0    0  0.34995215022E+02 -0.26916476675E+01 -0.60117846478E+02  0.69613687640E+02  0.00000000000E+00 0. -1.
         22    1    3    3    0    0  0.35899645812E+03 -0.44294110603E+03 -0.59792178916E+03  0.82618747649E+03  0.00000000000E+00 0. -1.
</event>
<event>
 7    1  0.8792454E-005  0.2828868E+03  0.7818608E-02  0.1176079E+00
          2   -1    0    0  502    0  0.00000000000E+00  0.00000000000E+00  0.62933511968E+03  0.62933511968E+03  0.00000000000E+00 0. -1.
          1   -1    0    0  501    0 -0.00000000000E+00 -0.00000000000E+00 -0.69533656971E+03  0.69533656971E+03  0.00000000000E+00 0. -1.
         25    2    1    2    0    0 -0.21518373496E+03 -0.22036269044E+03 -0.52855944349E+03  0.62439051783E+03  0.12499871327E+03 0.  0.
          2    1    1    2  501    0  0.19520738314E+03  0.11807179209E+03  0.20713254670E+01  0.22814723515E+03  0.00000000000E+00 0. -1.
          1    1    1    2  502    0  0.19976351821E+02  0.10229089835E+03  0.46048666798E+03  0.47213393641E+03  0.00000000000E+00 0. -1.
         22    1    3    3    0    0 -0.76777387089E+02 -0.74975772962E+01 -0.10050588745E+03  0.12669812250E+03  0.00000000000E+00 0.  1.
         22    1    3    3    0    0 -0.13840634787E+03 -0.21286511314E+03 -0.42805355604E+03  0.49769239532E+03  0.00000000000E+00 0.  1.
</event>
<event>
 7    1  0.8792454E-005  0.6115644E+02  0.7818608E-02  0.1456673E+00
          2   -1    0    0  502    0  0.00000000000E+00  0.00000000000E+00  0.14647083184E+04  0.14647083184E+04  0.00000000000E+00 0. -1.
          1   -1    0    0  501    0 -0.00000000000E+00 -0.00000000000E+00 -0.25110457734E+04  0.25110457734E+04  0.00000000000E+00 0. -1.
         25    2    1    2    0    0  0.25351758372E+02  0.89230642447E+02  0.58561677234E+03  0.60595064374E+03  0.12499743759E+03 0.  0.
          2    1    1    2  501    0 -0.31850324692E+02 -0.52187179651E+02 -0.25000979846E+04  0.25008454325E+04  0.00000000000E+00 0. -1.
          1    1    1    2  502    0  0.64985663198E+01 -0.37043462795E+02  0.86814375721E+03  0.86895801549E+03  0.00000000000E+00 0. -1.
         22    1    3    3    0    0  0.73735874433E+02  0.34655597827E+02  0.34698577575E+03  0.35642266793E+03  0.00000000000E+00 0.  1.
         22    1    3    3    0    0 -0.48384116061E+02  0.54575044620E+02  0.23863099658E+03  0.24952797581E+03  0.00000000000E+00 0.  1.
</event>
<event>
 7    1  0.8792454E-005  0.1038447E+03  0.7818608E-02  0.1364229E+00
          2   -1    0    0  502    0  0.00000000000E+00  0.00000000000E+00  0.11133403544E+04  0.11133403544E+04  0.00000000000E+00 0. -1.
          1   -1    0    0  501    0 -0.00000000000E+00 -0.00000000000E+00 -0.20997267816E+03  0.20997267816E+03  0.00000000000E+00 0. -1.
         25    2    1    2    0    0 -0.10268950223E+03  0.37882210484E+01  0.12875563540E+03  0.20679126177E+03  0.12500051125E+03 0.  0.
          2    1    1    2  501    0  0.93014550191E+02 -0.48328822388E+02 -0.15427571650E+03  0.18651642909E+03  0.00000000000E+00 0. -1.
          1    1    1    2  502    0  0.96749520370E+01  0.44540601339E+02  0.92888775737E+03  0.93000534173E+03  0.00000000000E+00 0. -1.
         22    1    3    3    0    0 -0.97324965334E+02  0.54004221400E+02  0.87461157140E+02  0.14155585051E+03  0.00000000000E+00 0. -1.
         22    1    3    3    0    0 -0.53645368944E+01 -0.50216000351E+02  0.41294478261E+02  0.65235411260E+02  0.00000000000E+00 0. -1.
</event>
<event>
 7    1  0.8792454E-005  0.2740083E+03  0.7818608E-02  0.1192913E+00
          2   -1    0    0  502    0  0.00000000000E+00  0.00000000000E+00  0.52240894935E+03  0.52240894935E+03  0.00000000000E+00 0. -1.
          1   -1    0    0  501    0 -0.00000000000E+00 -0.00000000000E+00 -0.59149130343E+03  0.59149130343E+03  0.00000000000E+00 0. -1.
         25    2    1    2    0    0 -0.29442881395E+03  0.19817538547E+03 -0.39636117553E+03  0.54652446719E+03  0.12500000750E+03 0.  0.
          2    1    1    2  501    0  0.79978168891E+02 -0.39457502470E+02 -0.52321057281E+02  0.10339678445E+03  0.00000000000E+00 0. -1.
          1    1    1    2  502    0  0.21445064506E+03 -0.15871788300E+03  0.37959987874E+03  0.46397900113E+03  0.00000000000E+00 0. -1.
         22    1    3    3    0    0 -0.24745122726E+03  0.19362700854E+03 -0.27963607510E+03  0.42061842899E+03  0.00000000000E+00 0. -1.
         22    1    3    3    0    0 -0.46977586685E+02  0.45483769361E+01 -0.11672510044E+03  0.12590603820E+03  0.00000000000E+00 0. -1.
</event>
<event>
 7    1  0.8792454E-005  0.3775381E+03  0.7818608E-02  0.1221878E+00
          2   -1    0    0  502    0  0.00000000000E+00  0.00000000000E+00  0.58802126840E+03  0.58802126840E+03  0.00000000000E+00 0. -1.
          1   -1    0    0  501    0 -0.00000000000E+00 -0.00000000000E+00 -0.32775357815E+03  0.32775357815E+03  0.00000000000E+00 0. -1.
         25    2    1    2    0    0 -0.12029930135E+03  0.36512362614E+03 -0.16616953046E+02  0.40458648902E+03  0.12500767856E+03 0.  0.
          2    1    1    2  501    0  0.15414104893E+03 -0.33187545491E+03  0.28401759860E+03  0.46321353267E+03  0.00000000000E+00 0. -1.
          1    1    1    2  502    0 -0.33841747578E+02 -0.33248171223E+02 -0.71329553057E+01  0.47974824858E+02  0.00000000000E+00 0. -1.
         22    1    3    3    0    0 -0.14158972445E+03  0.30875842551E+03  0.73183123181E+01  0.33975428340E+03  0.00000000000E+00 0. -1.
         22    1    3    3    0    0  0.21290423097E+02  0.56365200622E+02 -0.23935265364E+02  0.64832205615E+02  0.00000000000E+00 0. -1.
</event>
<event>
 7    1  0.8792454E-005  0.7049598E+03  0.7818608E-02  0.1063567E+00
          2   -1    0    0  502    0  0.00000000000E+00  0.00000000000E+00  0.20402195665E+04  0.20402195665E+04  0.00000000000E+00 0. -1.
          1   -1    0    0  501    0 -0.00000000000E+00 -0.00000000000E+00 -0.32327678401E+04  0.32327678401E+04  0.00000000000E+00 0. -1.
         25    2    1    2    0    0  0.60409947394E+03 -0.48320603120E+03 -0.47444416524E+03  0.91604944447E+03  0.12500030314E+03 0.  0.
          2    1    1    2  501    0 -0.44062664730E+03  0.53500643779E+03 -0.24859667079E+04  0.25807778292E+04  0.00000000000E+00 0. -1.
          1    1    1    2  502    0 -0.16347282664E+03 -0.51800406587E+02  0.17678625995E+04  0.17761601330E+04  0.00000000000E+00 0. -1.
         22    1    3    3    0    0  0.14436783582E+03 -0.18010358521E+03 -0.10984107139E+03  0.25562557460E+03  0.00000000000E+00 0. -1.
         22    1    3    3    0    0  0.45973163811E+03 -0.30310244599E+03 -0.36460309385E+03  0.66042386987E+03  0.00000000000E+00 0. -1.
</event>
<event>
 7    1  0.1793314E-004  0.7471683E+02  0.7818608E-02  0.1402560E+00
          2   -1    0    0  502    0  0.00000000000E+00  0.00000000000E+00  0.91335185145E+03  0.91335185145E+03  0.00000000000E+00 0. -1.
          1   -1    0    0  501    0 -0.00000000000E+00 -0.00000000000E+00 -0.27203081554E+04  0.27203081554E+04  0.00000000000E+00 0. -1.
         25    2    1    2    0    0  0.10441068391E+03  0.72321160172E+00 -0.77981451081E+03  0.79664168936E+03  0.12500078401E+03 0.  0.
          2    1    1    2  501    0 -0.67514229750E+02  0.27432219250E+02 -0.19307971281E+04  0.19321718991E+04  0.00000000000E+00 0. -1.
          1    1    1    2  502    0 -0.36896454165E+02 -0.28155430852E+02  0.90365533491E+03  0.90484641842E+03  0.00000000000E+00 0. -1.
         22    1    3    3    0    0 -0.26219501015E+02  0.45587714813E+01 -0.22874697701E+03  0.23028986977E+03  0.00000000000E+00 0.  1.
         22    1    3    3    0    0  0.13063018493E+03 -0.38355598796E+01 -0.55106753380E+03  0.56635181958E+03  0.00000000000E+00 0.  1.
</event>
<event>
 7    1  0.8792454E-005  0.3142382E+02  0.7818608E-02  0.1623013E+00
          2   -1    0    0  502    0  0.00000000000E+00  0.00000000000E+00  0.55891879936E+03  0.55891879936E+03  0.00000000000E+00 0. -1.
          1   -1    0    0  501    0 -0.00000000000E+00 -0.00000000000E+00 -0.12637746590E+04  0.12637746590E+04  0.00000000000E+00 0. -1.
         25    2    1    2    0    0 -0.38650051526E+02  0.28514958326E+02  0.18149319296E+02  0.13513596658E+03  0.12500160936E+03 0.  0.
          2    1    1    2  501    0  0.30987826262E+02 -0.50313484381E+01 -0.12047604151E+04  0.12051693730E+04  0.00000000000E+00 0. -1.
          1    1    1    2  502    0  0.76622252641E+01 -0.23483609888E+02  0.48175523613E+03  0.48238811881E+03  0.00000000000E+00 0. -1.
         22    1    3    3    0    0  0.11374096622E+02  0.33434919793E+02 -0.43216405865E+02  0.55811483329E+02  0.00000000000E+00 0. -1.
         22    1    3    3    0    0 -0.50024148148E+02 -0.49199614664E+01  0.61365725161E+02  0.79324483253E+02  0.00000000000E+00 0. -1.
</event>
<event>
 7    1  0.8792454E-005  0.7820015E+03  0.7818608E-02  0.1186187E+00
          2   -1    0    0  502    0  0.00000000000E+00  0.00000000000E+00  0.15889081681E+04  0.15889081681E+04  0.00000000000E+00 0. -1.
          1   -1    0    0  501    0 -0.00000000000E+00 -0.00000000000E+00 -0.18250592937E+04  0.18250592937E+04  0.00000000000E+00 0. -1.
         25    2    1    2    0    0  0.59485424971E+03 -0.52028640626E+03  0.83188404120E+03  0.11542140759E+04  0.12501820668E+03 0.  0.
          2    1    1    2  501    0  0.12212473380E+01  0.33638939081E+02 -0.14151745252E+04  0.14155747972E+04  0.00000000000E+00 0. -1.
          1    1    1    2  502    0 -0.59607549705E+03  0.48664746718E+03  0.34713935835E+03  0.84417858870E+03  0.00000000000E+00 0. -1.
         22    1    3    3    0    0  0.34155765842E+02 -0.27127446242E+02  0.11972802585E+02  0.45231213577E+02  0.00000000000E+00 0.  1.
         22    1    3    3    0    0  0.56069848387E+03 -0.49315896002E+03  0.81991123861E+03  0.11089828623E+04  0.00000000000E+00 0.  1.
</event>
<event>
 7    1  0.8792454E-005  0.2206257E+03  0.7818608E-02  0.1207228E+00
          2   -1    0    0  502    0  0.00000000000E+00  0.00000000000E+00  0.27132963933E+03  0.27132963933E+03  0.00000000000E+00 0. -1.
          1   -1    0    0  501    0 -0.00000000000E+00 -0.00000000000E+00 -0.49606763112E+03  0.49606763112E+03  0.00000000000E+00 0. -1.
         25    2    1    2    0    0  0.18285845251E+03 -0.17366411728E+03 -0.11657908204E+03  0.30465100510E+03  0.12500045302E+03 0.  0.
          2    1    1    2  501    0  0.16074975358E+02  0.93442673722E+02 -0.20616105558E+03  0.22691919033E+03  0.00000000000E+00 0. -1.
          1    1    1    2  502    0 -0.19893342787E+03  0.80221443556E+02  0.98002145817E+02  0.23582707502E+03  0.00000000000E+00 0. -1.
         22    1    3    3    0    0  0.10739794848E+03 -0.12402077420E+03 -0.13500371805E+03  0.21246523400E+03  0.00000000000E+00 0. -1.
         22    1    3    3    0    0  0.75460504033E+02 -0.49643343072E+02  0.18424636017E+02  0.92185771096E+02  0.00000000000E+00 0. -1.
</event>
<event>
 7    1  0.8792454E-005  0.1936668E+03  0.7818608E-02  0.1185061E+00
          2   -1    0    0  502    0  0.00000000000E+00  0.00000000000E+00  0.11845990507E+04  0.11845990507E+04  0.00000000000E+00 0. -1.
          1   -1    0    0  501    0 -0.00000000000E+00 -0.00000000000E+00 -0.19878168662E+03  0.19878168662E+03  0.00000000000E+00 0. -1.
         25    2    1    2    0    0  0.14419556096E+03 -0.26815017386E+03  0.95916530382E+03  0.10140605752E+04  0.12499557821E+03 0.  0.
          2    1    1    2  501    0 -0.35384168451E+02  0.18387051329E+03 -0.71331558734E+02  0.20037114639E+03  0.00000000000E+00 0. -1.
          1    1    1    2  502    0 -0.10881139251E+03  0.84279660565E+02  0.97983618986E+02  0.16894901572E+03  0.00000000000E+00 0. -1.
         22    1    3    3    0    0  0.14841730218E+03 -0.21038295522E+03  0.87348059502E+03  0.91063551068E+03  0.00000000000E+00 0.  1.
         22    1    3    3    0    0 -0.42217412162E+01 -0.57767218638E+02  0.85684708798E+02  0.10342506451E+03  0.00000000000E+00 0.  1.
</event>
<event>
 7    1  0.8792454E-005  0.9884094E+02  0.7818608E-02  0.1308796E+00
          2   -1    0    0  502    0  0.00000000000E+00  0.00000000000E+00  0.77315888003E+03  0.77315888003E+03  0.00000000000E+00 0. -1.
          1   -1    0    0  501    0 -0.00000000000E+00 -0.00000000000E+00 -0.15547726145E+03  0.15547726145E+03  0.00000000000E+00 0. -1.
         25    2    1    2    0    0  0.11399669909E+02  0.94021973837E+02  0.66603584419E+03  0.68425041408E+03  0.12499919759E+03 0.  0.
          2    1    1    2  501    0 -0.67066520870E+02  0.39073982260E+02 -0.62183813847E+02  0.99456126085E+02  0.00000000000E+00 0. -1.
          1    1    1    2  502    0  0.55666850961E+02 -0.13309595610E+03  0.13829588238E+02  0.14492960131E+03  0.00000000000E+00 0. -1.
         22    1    3    3    0    0  0.65615191240E+02  0.45869135245E+02  0.42768805868E+03  0.43511654350E+03  0.00000000000E+00 0. -1.
         22    1    3    3    0    0 -0.54215521330E+02  0.48152838591E+02  0.23834778550E+03  0.24913387058E+03  0.00000000000E+00 0. -1.
</event>
<event>
 7    1  0.8792454E-005  0.3547194E+03  0.7818608E-02  0.1302960E+00
          2   -1    0    0  502    0  0.00000000000E+00  0.00000000000E+00  0.25702105551E+04  0.25702105551E+04  0.00000000000E+00 0. -1.
          1   -1    0    0  501    0 -0.00000000000E+00 -0.00000000000E+00 -0.67243255059E+02  0.67243255059E+02  0.00000000000E+00 0. -1.
         25    2    1    2    0    0 -0.28045290102E+03  0.20915639309E+03  0.14882866320E+04  0.15339563125E+04  0.12499857395E+03 0.  0.
          2    1    1    2  501    0 -0.20888468055E+02 -0.91691484824E+01 -0.34195935452E+01  0.23067184518E+02  0.00000000000E+00 0. -1.
          1    1    1    2  502    0  0.30134136907E+03 -0.19998724461E+03  0.10181002617E+04  0.10804303131E+04  0.00000000000E+00 0. -1.
         22    1    3    3    0    0 -0.80339860722E+02  0.10840877120E+03  0.76350826439E+03  0.77533981240E+03  0.00000000000E+00 0.  1.
         22    1    3    3    0    0 -0.20011304030E+03  0.10074762189E+03  0.72477836756E+03  0.75861650015E+03  0.00000000000E+00 0.  1.
</event>
<event>
 7    1  0.8792454E-005  0.3191853E+03  0.7818608E-02  0.1241840E+00
          2   -1    0    0  502    0  0.00000000000E+00  0.00000000000E+00  0.34887231843E+04  0.34887231843E+04  0.00000000000E+00 0. -1.
          1   -1    0    0  501    0 -0.00000000000E+00 -0.00000000000E+00 -0.90919615399E+02  0.90919615399E+02  0.00000000000E+00 0. -1.
         25    2    1    2    0    0  0.83700245319E+01 -0.31560093859E+03  0.19861485330E+04  0.20149658096E+04  0.12500883532E+03 0.  0.
          2    1    1    2  501    0  0.37255639341E+02  0.31806277791E+03  0.26102906240E+03  0.41314414527E+03  0.00000000000E+00 0. -1.
          1    1    1    2  502    0 -0.45625663873E+02 -0.24618393223E+01  0.11506259735E+04  0.11515328449E+04  0.00000000000E+00 0. -1.
         22    1    3    3    0    0 -0.32657311518E+02 -0.33541527077E+02  0.46444798872E+03  0.46680131562E+03  0.00000000000E+00 0.  1.
         22    1    3    3    0    0  0.41027336050E+02 -0.28205941151E+03  0.15217005443E+04  0.15481644940E+04  0.00000000000E+00 0.  1.
</event>
<event>
 7    1  0.8792454E-005  0.2597694E+03  0.7818608E-02  0.1298509E+00
          2   -1    0    0  502    0  0.00000000000E+00  0.00000000000E+00  0.14178026665E+04  0.14178026665E+04  0.00000000000E+00 0. -1.
          1   -1    0    0  501    0 -0.00000000000E+00 -0.00000000000E+00 -0.76350061804E+03  0.76350061804E+03  0.00000000000E+00 0. -1.
         25    2    1    2    0    0 -0.89568927515E+02 -0.23298686077E+03 -0.68072451448E+03  0.73574198899E+03  0.12499975876E+03 0.  0.
          2    1    1    2  501    0  0.26202844798E+02 -0.19147895214E+02 -0.36945411720E+02  0.49175140201E+02  0.00000000000E+00 0. -1.
          1    1    1    2  502    0  0.63366082717E+02  0.25213475598E+03  0.13719719747E+04  0.13963861554E+04  0.00000000000E+00 0. -1.
         22    1    3    3    0    0 -0.62656752861E+02 -0.50757255739E+02 -0.11256162895E+03  0.13846403143E+03  0.00000000000E+00 0.  1.
         22    1    3    3    0    0 -0.26912174654E+02 -0.18222960503E+03 -0.56816288553E+03  0.59727795756E+03  0.00000000000E+00 0.  1.
</event>
<event>
 7    1  0.8792454E-005  0.1768062E+03  0.7818608E-02  0.1191536E+00
          2   -1    0    0  502    0  0.00000000000E+00  0.00000000000E+00  0.13150281612E+03  0.13150281612E+03  0.00000000000E+00 0. -1.
          1   -1    0    0  501    0 -0.00000000000E+00 -0.00000000000E+00 -0.81996149552E+03  0.81996149552E+03  0.00000000000E+00 0. -1.
         25    2    1    2    0    0  0.10536277125E+03 -0.13877187300E+03 -0.56080287806E+02  0.22165290334E+03  0.12500425824E+03 0.  0.
          2    1    1    2  501    0  0.10757325315E+03  0.90101139096E+02 -0.31147434143E+03  0.34162330926E+03  0.00000000000E+00 0. -1.
          1    1    1    2  502    0 -0.21293602439E+03  0.48670733906E+02 -0.32090405017E+03  0.38818809904E+03  0.00000000000E+00 0. -1.
         22    1    3    3    0    0  0.36443938177E+02 -0.61158686833E+01 -0.61852852428E+02  0.72050953033E+02  0.00000000000E+00 0. -1.
         22    1    3    3    0    0  0.68918833069E+02 -0.13265600432E+03  0.57725646215E+01  0.14960195031E+03  0.00000000000E+00 0. -1.
</event>
<event>
 7    1  0.8792454E-005  0.2779294E+03  0.7818608E-02  0.1128669E+00
          2   -1    0    0  502    0  0.00000000000E+00  0.00000000000E+00  0.89963865832E+03  0.89963865832E+03  0.00000000000E+00 0. -1.
          1   -1    0    0  501    0 -0.00000000000E+00 -0.00000000000E+00 -0.14066055396E+04  0.14066055396E+04  0.00000000000E+00 0. -1.
         25    2    1    2    0    0 -0.35457003203E+03 -0.12466762077E+03 -0.55787322396E+03  0.68418537773E+03  0.12500069519E+03 0.  0.
          2    1    1    2  501    0  0.16813865453E+03 -0.78667000143E+02 -0.75122253867E+03  0.77381807078E+03  0.00000000000E+00 0. -1.
          1    1    1    2  502    0  0.18643137751E+03  0.20333462091E+03  0.80212888138E+03  0.84824074939E+03  0.00000000000E+00 0. -1.
         22    1    3    3    0    0 -0.26674429482E+03 -0.32640125211E+02 -0.36989789490E+03  0.45721149290E+03  0.00000000000E+00 0. -1.
         22    1    3    3    0    0 -0.87825737211E+02 -0.92027495558E+02 -0.18797532906E+03  0.22697388482E+03  0.00000000000E+00 0. -1.
</event>
<event>
 7    1  0.8792454E-005  0.5341378E+03  0.7818608E-02  0.1231020E+00
          2   -1    0    0  502    0  0.00000000000E+00  0.00000000000E+00  0.17142123837E+04  0.17142123837E+04  0.00000000000E+00 0. -1.
          1   -1    0    0  501    0 -0.00000000000E+00 -0.00000000000E+00 -0.83299408581E+03  0.83299408581E+03  0.00000000000E+00 0. -1.
         25    2    1    2    0    0  0.44389416167E+03  0.26538996340E+03 -0.11052823457E+03  0.54342920520E+03  0.12499980395E+03 0.  0.
          2    1    1    2  501    0  0.40533073827E+01  0.30224603320E+02 -0.45741213395E+03  0.45842754742E+03  0.00000000000E+00 0. -1.
          1    1    1    2  502    0 -0.44794746905E+03 -0.29561456672E+03  0.14491586664E+04  0.15453497169E+04  0.00000000000E+00 0. -1.
         22    1    3    3    0    0  0.21090942541E+03  0.57066945138E+02 -0.62213600892E+02  0.22717824299E+03  0.00000000000E+00 0. -1.
         22    1    3    3    0    0  0.23298473626E+03  0.20832301826E+03 -0.48314633678E+02  0.31625096220E+03  0.00000000000E+00 0. -1.
</event>
<event>
 7    1  0.8792454E-005  0.3052732E+03  0.7818608E-02  0.1209074E+00
          2   -1    0    0  502    0  0.00000000000E+00  0.00000000000E+00  0.71261441720E+03  0.71261441720E+03  0.00000000000E+00 0. -1.
          1   -1    0    0  501    0 -0.00000000000E+00 -0.00000000000E+00 -0.10539866404E+04  0.10539866404E+04  0.00000000000E+00 0. -1.
         25    2    1    2    0    0  0.12358983236E+03  0.23082718356E+03  0.57462352459E+03  0.64371782680E+03  0.12499924078E+03 0.  0.
          2    1    1    2  501    0 -0.95516107222E+02 -0.29186330116E+03 -0.98188144586E+03  0.10287850538E+04  0.00000000000E+00 0. -1.
          1    1    1    2  502    0 -0.28073725135E+02  0.61036117594E+02  0.65885698079E+02  0.94098176950E+02  0.00000000000E+00 0. -1.
         22    1    3    3    0    0  0.24266838712E+02  0.17341563118E+03  0.36162307315E+03  0.40178739108E+03  0.00000000000E+00 0.  1.
         22    1    3    3    0    0  0.99322993645E+02  0.57411552384E+02  0.21300045144E+03  0.24193043572E+03  0.00000000000E+00 0.  1.
</event>
<event>
 7    1  0.8792454E-005  0.1676676E+03  0.7818608E-02  0.1302169E+00
          2   -1    0    0  502    0  0.00000000000E+00  0.00000000000E+00  0.33363803971E+03  0.33363803971E+03  0.00000000000E+00 0. -1.
          1   -1    0    0  501    0 -0.00000000000E+00 -0.00000000000E+00 -0.35920477613E+03  0.35920477613E+03  0.00000000000E+00 0. -1.
         25    2    1    2    0    0  0.16186260441E+03  0.16487528348E+02  0.98023450147E+02  0.22738903652E+03  0.12500334338E+03 0.  0.
          2    1    1    2  501    0 -0.16629316865E+03  0.31923963105E+02 -0.26580560826E+03  0.31515897377E+03  0.00000000000E+00 0. -1.
          1    1    1    2  502    0  0.44305642401E+01 -0.48411491453E+02  0.14221542170E+03  0.15029480554E+03  0.00000000000E+00 0. -1.
         22    1    3    3    0    0  0.34334004726E+02 -0.33291495998E+02 -0.14722190809E+02  0.50038889761E+02  0.00000000000E+00 0. -1.
         22    1    3    3    0    0  0.12752859969E+03  0.49779024346E+02  0.11274564096E+03  0.17735014676E+03  0.00000000000E+00 0. -1.
</event>
<event>
 7    1  0.8792454E-005  0.4435422E+03  0.7818608E-02  0.1167812E+00
          2   -1    0    0  502    0  0.00000000000E+00  0.00000000000E+00  0.39867931509E+03  0.39867931509E+03  0.00000000000E+00 0. -1.
          1   -1    0    0  501    0 -0.00000000000E+00 -0.00000000000E+00 -0.13572785388E+04  0.13572785388E+04  0.00000000000E+00 0. -1.
         25    2    1    2    0    0 -0.44141907006E+03 -0.20985898225E+03 -0.39420780822E+03  0.64024710727E+03  0.12499989787E+03 0.  0.
          2    1    1    2  501    0  0.39555445238E+03  0.15301381829E+03 -0.78011880080E+03  0.88795376949E+03  0.00000000000E+00 0. -1.
          1    1    1    2  502    0  0.45864617677E+02  0.56845163962E+02  0.21572738535E+03  0.22775697709E+03  0.00000000000E+00 0. -1.
         22    1    3    3    0    0 -0.43479954249E+03 -0.18333207732E+03 -0.34710382909E+03  0.58578354440E+03  0.00000000000E+00 0. -1.
         22    1    3    3    0    0 -0.66195275660E+01 -0.26526904927E+02 -0.47103979133E+02  0.54463562869E+02  0.00000000000E+00 0. -1.
</event>
<event>
 7    1  0.8792454E-005  0.7515778E+02  0.7818608E-02  0.1437921E+00
          2   -1    0    0  502    0  0.00000000000E+00  0.00000000000E+00  0.68851539968E+03  0.68851539968E+03  0.00000000000E+00 0. -1.
          1   -1    0    0  501    0 -0.00000000000E+00 -0.00000000000E+00 -0.32979516135E+02  0.32979516135E+02  0.00000000000E+00 0. -1.
         25    2    1    2    0    0 -0.59560892375E+02 -0.35026221222E+02  0.17931434548E+03  0.22924488741E+03  0.12500099134E+03 0.  0.
          2    1    1    2  501    0  0.86846379630E+02  0.12858312551E+02  0.30126979735E+03  0.31380108453E+03  0.00000000000E+00 0. -1.
          1    1    1    2  502    0 -0.27285487255E+02  0.22167908671E+02  0.17495174072E+03  0.17844894387E+03  0.00000000000E+00 0. -1.
         22    1    3    3    0    0 -0.65366385685E+02 -0.10616856431E+02  0.19056795291E+03  0.20174644159E+03  0.00000000000E+00 0.  1.
         22    1    3    3    0    0  0.58054933104E+01 -0.24409364791E+02 -0.11253607437E+02  0.27498445818E+02  0.00000000000E+00 0.  1.
</event>
<event>
 7    1  0.8792454E-005  0.3438988E+03  0.7818608E-02  0.1111239E+00
          2   -1    0    0  502    0  0.00000000000E+00  0.00000000000E+00  0.27932524388E+04  0.27932524388E+04  0.00000000000E+00 0. -1.
          1   -1    0    0  501    0 -0.00000000000E+00 -0.00000000000E+00 -0.25444230591E+03  0.25444230591E+03  0.00000000000E+00 0. -1.
         25    2    1    2    0    0  0.13245302958E+03 -0.28167555928E+03  0.29867111440E+03  0.44912586869E+03  0.12499874244E+03 0.  0.
          2    1    1    2  501    0 -0.30771161745E+03  0.21772043435E+03  0.27358954331E+02  0.37793801003E+03  0.00000000000E+00 0. -1.
          1    1    1    2  502    0  0.17525858787E+03  0.63955124929E+02  0.22127800642E+04  0.22206308660E+04  0.00000000000E+00 0. -1.
         22    1    3    3    0    0  0.14662959231E+03 -0.18116547407E+03  0.22246259612E+03  0.32219679236E+03  0.00000000000E+00 0.  1.
         22    1    3    3    0    0 -0.14176562730E+02 -0.10051008521E+03  0.76208518280E+02  0.12692907633E+03  0.00000000000E+00 0.  1.
</event>
<event>
 7    1  0.8792454E-005  0.9714728E+02  0.7818608E-02  0.1423520E+00
          2   -1    0    0  502    0  0.00000000000E+00  0.00000000000E+00  0.80688655683E+02  0.80688655683E+02  0.00000000000E+00 0. -1.
          1   -1    0    0  501    0 -0.00000000000E+00 -0.00000000000E+00 -0.76668881230E+03  0.76668881230E+03  0.00000000000E+00 0. -1.
         25    2    1    2    0    0  0.11745364038E+03 -0.63331197776E+01 -0.99029070009E+02  0.19816295841E+03  0.12500534122E+03 0.  0.
          2    1    1    2  501    0 -0.92724415912E+02  0.23896855551E+02 -0.60592714993E+03  0.61344648343E+03  0.00000000000E+00 0. -1.
          1    1    1    2  502    0 -0.24729224472E+02 -0.17563735774E+02  0.18956063325E+02  0.35768026142E+02  0.00000000000E+00 0. -1.
         22    1    3    3    0    0  0.10225563689E+02 -0.53081655825E+02 -0.39201830258E+02  0.66775802754E+02  0.00000000000E+00 0.  1.
         22    1    3    3    0    0  0.10722807670E+03  0.46748536048E+02 -0.59827239751E+02  0.13138715565E+03  0.00000000000E+00 0.  1.
</event>
<event>
 7    1  0.8792454E-005  0.4064426E+03  0.7818608E-02  0.1114311E+00
          2   -1    0    0  502    0  0.00000000000E+00  0.00000000000E+00  0.23626668020E+04  0.23626668020E+04  0.00000000000E+00 0. -1.
          1   -1    0    0  501    0 -0.00000000000E+00 -0.00000000000E+00 -0.55288525112E+03  0.55288525112E+03  0.00000000000E+00 0. -1.
         25    2    1    2    0    0  0.22221055805E+03 -0.24369210810E+03  0.44376967090E+03  0.56685100574E+03  0.12500066497E+03 0.  0.
          2    1    1    2  501    0 -0.17141074498E+03  0.38677073100E+03 -0.39640872154E+03  0.57975263377E+03  0.00000000000E+00 0. -1.
          1    1    1    2  502    0 -0.50799813077E+02 -0.14307862290E+03  0.17624206015E+04  0.17689484136E+04  0.00000000000E+00 0. -1.
         22    1    3    3    0    0  0.19612969040E+03 -0.22139314560E+03  0.30883776744E+03  0.42762430587E+03  0.00000000000E+00 0.  1.
         22    1    3    3    0    0  0.26080867650E+02 -0.22298962498E+02  0.13493190346E+03  0.13922669987E+03  0.00000000000E+00 0.  1.
</event>
<event>
 7    1  0.8792454E-005  0.1712757E+03  0.7818608E-02  0.1215567E+00
          2   -1    0    0  502    0  0.00000000000E+00  0.00000000000E+00  0.24160848658E+03  0.24160848658E+03  0.00000000000E+00 0. -1.
          1   -1    0    0  501    0 -0.00000000000E+00 -0.00000000000E+00 -0.49957844523E+03  0.49957844523E+03  0.00000000000E+00 0. -1.
         25    2    1    2    0    0 -0.29605134630E+02  0.73268254371E+02  0.92005924855E+02  0.17416965781E+03  0.12500111359E+03 0.  0.
          2    1    1    2  501    0  0.20796133854E+02 -0.18467348346E+03 -0.40265350754E+03  0.44347110595E+03  0.00000000000E+00 0. -1.
          1    1    1    2  502    0  0.88090007765E+01  0.11140522909E+03  0.52677624042E+02  0.12354616805E+03  0.00000000000E+00 0. -1.
         22    1    3    3    0    0 -0.12691349469E+01  0.67035216628E+02 -0.10295939824E+02  0.67833158180E+02  0.00000000000E+00 0. -1.
         22    1    3    3    0    0 -0.28335999683E+02  0.62330377439E+01  0.10230186468E+03  0.10633649963E+03  0.00000000000E+00 0. -1.
</event>
<event>
 7    1  0.8792454E-005  0.2059355E+03  0.7818608E-02  0.1170890E+00
          2   -1    0    0  502    0  0.00000000000E+00  0.00000000000E+00  0.20872315588E+04  0.20872315588E+04  0.00000000000E+00 0. -1.
          1   -1    0    0  501    0 -0.00000000000E+00 -0.00000000000E+00 -0.17390121658E+04  0.17390121658E+04  0.00000000000E+00 0. -1.
         25    2    1    2    0    0  0.52361539568E+02  0.93544400083E+02 -0.19142787898E+03  0.25250977935E+03  0.12499708077E+03 0.  0.
          2    1    1    2  501    0 -0.19868629262E+03 -0.13419724871E+03 -0.15047360160E+04  0.15237176977E+04  0.00000000000E+00 0. -1.
          1    1    1    2  502    0  0.14632475305E+03  0.40652848629E+02  0.20443832880E+04  0.20500162476E+04  0.00000000000E+00 0. -1.
         22    1    3    3    0    0  0.53423138745E+02  0.11475768659E+03 -0.19343865255E+03  0.23117497850E+03  0.00000000000E+00 0.  1.
         22    1    3    3    0    0 -0.10615991769E+01 -0.21213286502E+02  0.20107735642E+01  0.21334800851E+02  0.00000000000E+00 0.  1.
</event>
<event>
 7    1  0.8792454E-005  0.3159152E+03  0.7818608E-02  0.1135897E+00
          2   -1    0    0  502    0  0.00000000000E+00  0.00000000000E+00  0.32533130410E+03  0.32533130410E+03  0.00000000000E+00 0. -1.
          1   -1    0    0  501    0 -0.00000000000E+00 -0.00000000000E+00 -0.93413763130E+03  0.93413763130E+03  0.00000000000E+00 0. -1.
         25    2    1    2    0    0 -0.24478758816E+02  0.40458785336E+03 -0.14679138428E+03  0.44884671086E+03  0.12500047450E+03 0.  0.
          2    1    1    2  501    0  0.10448743110E+03 -0.27830360429E+03 -0.55850492696E+03  0.63269129349E+03  0.00000000000E+00 0. -1.
          1    1    1    2  502    0 -0.80008672284E+02 -0.12628424907E+03  0.96489984042E+02  0.17793093105E+03  0.00000000000E+00 0. -1.
         22    1    3    3    0    0  0.48817498878E+02  0.10606300453E+03 -0.38724550737E+02  0.12301260081E+03  0.00000000000E+00 0.  1.
         22    1    3    3    0    0 -0.73296257694E+02  0.29852484883E+03 -0.10806683355E+03  0.32583411005E+03  0.00000000000E+00 0.  1.
</event>
<event>
 7    1  0.8792454E-005  0.3596695E+03  0.7818608E-02  0.1143270E+00
          2   -1    0    0  502    0  0.00000000000E+00  0.00000000000E+00  0.35878467398E+04  0.35878467398E+04  0.00000000000E+00 0. -1.
          1   -1    0    0  501    0 -0.00000000000E+00 -0.00000000000E+00 -0.24812205922E+03  0.24812205922E+03  0.00000000000E+00 0. -1.
         25    2    1    2    0    0 -0.33320798777E+03  0.89902514750E+02  0.24308387599E+03  0.44025577193E+03  0.12500139472E+03 0.  0.
          2    1    1    2  501    0  0.31466884392E+03 -0.20859221601E+03  0.91874264067E+02  0.38854610320E+03  0.00000000000E+00 0. -1.
          1    1    1    2  502    0  0.18539143845E+02  0.11868970126E+03  0.30047665405E+04  0.30071669239E+04  0.00000000000E+00 0. -1.
         22    1    3    3    0    0 -0.18445242142E+03  0.88952384073E+02  0.80901138200E+02  0.22018223490E+03  0.00000000000E+00 0. -1.
         22    1    3    3    0    0 -0.14875556634E+03  0.95013067660E+00  0.16218273779E+03  0.22007353704E+03  0.00000000000E+00 0. -1.
</event>
<event>
 7    1  0.8792454E-005  0.5446539E+03  0.7818608E-02  0.1046883E+00
          2   -1    0    0  502    0  0.00000000000E+00  0.00000000000E+00  0.10242882745E+04  0.10242882745E+04  0.00000000000E+00 0. -1.
          1   -1    0    0  501    0 -0.00000000000E+00 -0.00000000000E+00 -0.74414216424E+03  0.74414216424E+03  0.00000000000E+00 0. -1.
         25    2    1    2    0    0 -0.70697811604E+02 -0.56642258596E+03  0.65299951991E+03  0.87627969866E+03  0.12500004335E+03 0.  0.
          2    1    1    2  501    0  0.26614434375E+03  0.89930632474E+02 -0.21412306076E+03  0.35322657816E+03  0.00000000000E+00 0. -1.
          1    1    1    2  502    0 -0.19544653215E+03  0.47649195349E+03 -0.15873034886E+03  0.53892416194E+03  0.00000000000E+00 0. -1.
         22    1    3    3    0    0 -0.90968190950E+01 -0.18518594776E+02 -0.12725684896E+01  0.20671475532E+02  0.00000000000E+00 0.  1.
         22    1    3    3    0    0 -0.61600992509E+02 -0.54790399119E+03  0.65427208839E+03  0.85560822313E+03  0.00000000000E+00 0.  1.
</event>
