<event>
 7    1  0.6253338E-006  0.1144243E+03  0.7818608E-02  0.1286039E+00
          2   -1    0    0  502    0  0.00000000000E+00  0.00000000000E+00  0.10124417934E+04  0.10124417934E+04  0.00000000000E+00 0. -1.
          1   -1    0    0  501    0 -0.00000000000E+00 -0.00000000000E+00 -0.80447984286E+03  0.80447984286E+03  0.00000000000E+00 0. -1.
         25    2    1    2    0    0 -0.16636168597E+03  0.23855243118E+02  0.32265715471E+03  0.38468838256E+03  0.12502891269E+03 0.  0.
          2    1    1    2  501    0  0.94134968935E+02 -0.64277922699E+02 -0.76663380236E+03  0.77506156571E+03  0.00000000000E+00 0. -1.
          1    1    1    2  502    0  0.72226717037E+02  0.40422679581E+02  0.65193859820E+03  0.65717168799E+03  0.00000000000E+00 0. -1.
         22    1    3    3    0    0 -0.13915966237E+03  0.56578014935E+02  0.30219096911E+03  0.33746979897E+03  0.00000000000E+00 0.  1.
         22    1    3    3    0    0 -0.27202023598E+02 -0.32722771818E+02  0.20466185603E+02  0.47218583592E+02  0.00000000000E+00 0.  1.
</event>
<event>
 7    1  0.6253338E-006  0.3952347E+02  0.7818608E-02  0.1517870E+00
          2   -1    0    0  502    0  0.00000000000E+00  0.00000000000E+00  0.43047619790E+03  0.43047619790E+03  0.00000000000E+00 0. -1.
          1   -1    0    0  501    0 -0.00000000000E+00 -0.00000000000E+00 -0.40103002819E+03  0.40103002819E+03  0.00000000000E+00 0. -1.
         25    2    1    2    0    0  0.11188160542E+02 -0.56991818145E+02  0.20038618406E+03  0.24321384006E+03  0.12500042785E+03 0.  0.
          2    1    1    2  501    0 -0.30199172388E+02  0.22945382213E+02 -0.37683424145E+03  0.37873807058E+03  0.00000000000E+00 0. -1.
          1    1    1    2  502    0  0.19011011846E+02  0.34046435932E+02  0.20589422710E+03  0.20955431545E+03  0.00000000000E+00 0. -1.
         22    1    3    3    0    0  0.39336979781E+02 -0.61604513874E+02  0.20182547972E+03  0.21465329807E+03  0.00000000000E+00 0. -1.
         22    1    3    3    0    0 -0.28148819239E+02  0.46126957294E+01 -0.14392956645E+01  0.28560541985E+02  0.00000000000E+00 0. -1.
</event>
<event>
 7    1  0.6253338E-006  0.8174992E+02  0.7818608E-02  0.1387020E+00
          2   -1    0    0  502    0  0.00000000000E+00  0.00000000000E+00  0.14158600815E+04  0.14158600815E+04  0.00000000000E+00 0. -1.
          1   -1    0    0  501    0 -0.00000000000E+00 -0.00000000000E+00 -0.28620499896E+02  0.28620499896E+02  0.00000000000E+00 0. -1.
         25    2    1    2    0    0  0.45067891001E+02 -0.11226635029E+03  0.50908078672E+03  0.53798048060E+03  0.12499960760E+03 0.  0.
          2    1    1    2  501    0 -0.31500613113E+02  0.36242063124E+02  0.34049227452E+02  0.58865317939E+02  0.00000000000E+00 0. -1.
          1    1    1    2  502    0 -0.13567277888E+02  0.76024287162E+02  0.84410956742E+03  0.84763478284E+03  0.00000000000E+00 0. -1.
         22    1    3    3    0    0 -0.26000819639E+02 -0.96274031070E+02  0.26009681687E+03  0.27855894497E+03  0.00000000000E+00 0.  1.
         22    1    3    3    0    0  0.71068710640E+02 -0.15992319216E+02  0.24898396985E+03  0.25942153563E+03  0.00000000000E+00 0.  1.
</event>
<event>
 7    1  0.6253338E-006  0.9603022E+02  0.7818608E-02  0.1301870E+00
          2   -1    0    0  502    0  0.00000000000E+00  0.00000000000E+00  0.25698253912E+04  0.25698253912E+04  0.00000000000E+00 0. -1.
          1   -1    0    0  501    0 -0.00000000000E+00 -0.00000000000E+00 -0.17319382576E+02  0.17319382576E+02  0.00000000000E+00 0. -1.
         25    2    1    2    0    0  0.20718015358E+02  0.40940656183E+02  0.15665363585E+04  0.15721852967E+04  0.12500028501E+03 0.  0.
          2    1    1    2  501    0 -0.10358904664E+03 -0.21537347606E+02  0.21833223585E+03  0.24261803959E+03  0.00000000000E+00 0. -1.
          1    1    1    2  502    0  0.82871031287E+02 -0.19403308577E+02  0.76763741424E+03  0.77234143742E+03  0.00000000000E+00 0. -1.
         22    1    3    3    0    0  0.10365783320E+01  0.62706079191E+02  0.36914708045E+03  0.37443650179E+03  0.00000000000E+00 0. -1.
         22    1    3    3    0    0  0.19681437026E+02 -0.21765423008E+02  0.11973892780E+04  0.11977487949E+04  0.00000000000E+00 0. -1.
</event>
<event>
 7    1  0.6253338E-006  0.6561272E+02  0.7818608E-02  0.1426604E+00
          2   -1    0    0  502    0  0.00000000000E+00  0.00000000000E+00  0.65348272707E+03  0.65348272707E+03  0.00000000000E+00 0. -1.
          1   -1    0    0  501    0 -0.00000000000E+00 -0.00000000000E+00 -0.20537440709E+03  0.20537440709E+03  0.00000000000E+00 0. -1.
         25    2    1    2    0    0  0.43053658847E+02  0.12254909590E+02  0.23097733610E+03  0.26641882487E+03  0.12499864041E+03 0.  0.
          2    1    1    2  501    0  0.23021959448E+02 -0.37337639191E+02 -0.18194210589E+03  0.18715512233E+03  0.00000000000E+00 0. -1.
          1    1    1    2  502    0 -0.66075618296E+02  0.25082729601E+02  0.39907308977E+03  0.40528318696E+03  0.00000000000E+00 0. -1.
         22    1    3    3    0    0  0.41100682396E+01 -0.47309052121E+02  0.38262831575E+02  0.60984287760E+02  0.00000000000E+00 0. -1.
         22    1    3    3    0    0  0.38943590608E+02  0.59563961711E+02  0.19271450453E+03  0.20543453711E+03  0.00000000000E+00 0. -1.
</event>
<event>
 7    1  0.6253338E-006  0.9917650E+02  0.7818608E-02  0.1424787E+00
          2   -1    0    0  502    0  0.00000000000E+00  0.00000000000E+00  0.24033964141E+03  0.24033964141E+03  0.00000000000E+00 0. -1.
          1   -1    0    0  501    0 -0.00000000000E+00 -0.00000000000E+00 -0.22224499048E+03  0.22224499048E+03  0.00000000000E+00 0. -1.
         25    2    1    2    0    0  0.11834313118E+03 -0.27495798640E+02  0.35027647935E+02  0.17779980835E+03  0.12499888035E+03 0.  0.
          2    1    1    2  501    0 -0.89724275354E+02  0.34335654634E+02 -0.13354913351E+03  0.16451368888E+03  0.00000000000E+00 0. -1.
          1    1    1    2  502    0 -0.28618855823E+02 -0.68398559943E+01  0.11661613651E+03  0.12027113466E+03  0.00000000000E+00 0. -1.
         22    1    3    3    0    0 -0.69299676423E+01 -0.88888375172E+01 -0.32411971289E+02  0.34315765572E+02  0.00000000000E+00 0.  1.
         22    1    3    3    0    0  0.12527309882E+03 -0.18606961123E+02  0.67439619224E+02  0.14348404277E+03  0.00000000000E+00 0.  1.
</event>
<event>
 7    1  0.6253338E-006  0.7185037E+02  0.7818608E-02  0.1371418E+00
          2   -1    0    0  502    0  0.00000000000E+00  0.00000000000E+00  0.41185867746E+03  0.41185867746E+03  0.00000000000E+00 0. -1.
          1   -1    0    0  501    0 -0.00000000000E+00 -0.00000000000E+00 -0.19489661910E+03  0.19489661910E+03  0.00000000000E+00 0. -1.
         25    2    1    2    0    0  0.80432631504E+02  0.10073647047E+03  0.37161369772E+02  0.18336622459E+03  0.12499984089E+03 0.  0.
          2    1    1    2  501    0 -0.46841322556E+02 -0.40706174338E+02 -0.10958683202E+03  0.12593798426E+03  0.00000000000E+00 0. -1.
          1    1    1    2  502    0 -0.33591308947E+02 -0.60030296136E+02  0.28938752061E+03  0.29745108770E+03  0.00000000000E+00 0. -1.
         22    1    3    3    0    0  0.92063837065E+02  0.11615888502E+03  0.80597847367E+01  0.14843718130E+03  0.00000000000E+00 0. -1.
         22    1    3    3    0    0 -0.11631205561E+02 -0.15422414544E+02  0.29101585035E+02  0.34929043284E+02  0.00000000000E+00 0. -1.
</event>
<event>
 7    1  0.6253338E-006  0.4621116E+02  0.7818608E-02  0.1506391E+00
          2   -1    0    0  502    0  0.00000000000E+00  0.00000000000E+00  0.48367383317E+03  0.48367383317E+03  0.00000000000E+00 0. -1.
          1   -1    0    0  501    0 -0.00000000000E+00 -0.00000000000E+00 -0.48555908924E+02  0.48555908924E+02  0.00000000000E+00 0. -1.
         25    2    1    2    0    0  0.19779332342E+02  0.16047805708E+02  0.28764929876E+03  0.31466823876E+03  0.12500090940E+03 0.  0.
          2    1    1    2  501    0 -0.47518456699E+02  0.53860736420E+01 -0.15959905788E+02  0.50415593907E+02  0.00000000000E+00 0. -1.
          1    1    1    2  502    0  0.27739124357E+02 -0.21433879350E+02  0.16342853127E+03  0.16714590943E+03  0.00000000000E+00 0. -1.
         22    1    3    3    0    0  0.16159395748E+02 -0.50362483235E+02  0.74374572803E+02  0.91263809192E+02  0.00000000000E+00 0.  1.
         22    1    3    3    0    0  0.36199365934E+01  0.66410288943E+02  0.21327472596E+03  0.22340442957E+03  0.00000000000E+00 0.  1.
</event>
<event>
 7    1  0.6253338E-006  0.5667373E+02  0.7818608E-02  0.1432501E+00
          2   -1    0    0  502    0  0.00000000000E+00  0.00000000000E+00  0.16124484564E+04  0.16124484564E+04  0.00000000000E+00 0. -1.
          1   -1    0    0  501    0 -0.00000000000E+00 -0.00000000000E+00 -0.39147733262E+03  0.39147733262E+03  0.00000000000E+00 0. -1.
         25    2    1    2    0    0  0.54143866642E+02 -0.60161882879E+02  0.36705911964E+03  0.39611646320E+03  0.12499937862E+03 0.  0.
          2    1    1    2  501    0 -0.55420380186E+02  0.11616663363E+02 -0.37433960635E+03  0.37859808015E+03  0.00000000000E+00 0. -1.
          1    1    1    2  502    0  0.12765135441E+01  0.48545219516E+02  0.12282516105E+04  0.12292112457E+04  0.00000000000E+00 0. -1.
         22    1    3    3    0    0  0.76783964936E+02  0.71328863709E+01  0.21150721994E+03  0.22512654092E+03  0.00000000000E+00 0.  1.
         22    1    3    3    0    0 -0.22640098294E+02 -0.67294769250E+02  0.15555189970E+03  0.17098992227E+03  0.00000000000E+00 0.  1.
</event>
<event>
 7    1  0.6253338E-006  0.9484669E+02  0.7818608E-02  0.1294866E+00
          2   -1    0    0  502    0  0.00000000000E+00  0.00000000000E+00  0.15348516621E+04  0.15348516621E+04  0.00000000000E+00 0. -1.
          1   -1    0    0  501    0 -0.00000000000E+00 -0.00000000000E+00 -0.25867913433E+03  0.25867913433E+03  0.00000000000E+00 0. -1.
         25    2    1    2    0    0  0.19250968960E+02 -0.35318839478E+01 -0.69634955483E+00  0.12652454016E+03  0.12499960140E+03 0.  0.
          2    1    1    2  501    0 -0.10332651405E+03 -0.40367961210E+02 -0.17762694000E+03  0.20942127545E+03  0.00000000000E+00 0. -1.
          1    1    1    2  502    0  0.84075545094E+02  0.43899845158E+02  0.14544958174E+04  0.14575849808E+04  0.00000000000E+00 0. -1.
         22    1    3    3    0    0 -0.35642090569E+02  0.32895126767E+02  0.26479537645E+02  0.55259514104E+02  0.00000000000E+00 0.  1.
         22    1    3    3    0    0  0.54893059529E+02 -0.36427010715E+02 -0.27175887200E+02  0.71265026059E+02  0.00000000000E+00 0.  1.
</event>
<event>
 7    1  0.6253338E-006  0.1052662E+03  0.7818608E-02  0.1310487E+00
          2   -1    0    0  502    0  0.00000000000E+00  0.00000000000E+00  0.61653386147E+02  0.61653386147E+02  0.00000000000E+00 0. -1.
          1   -1    0    0  501    0 -0.00000000000E+00 -0.00000000000E+00 -0.22673549920E+04  0.22673549920E+04  0.00000000000E+00 0. -1.
         25    2    1    2    0    0  0.13237134843E+03  0.75181837930E+01 -0.30877661662E+03  0.35853399806E+03  0.12499972729E+03 0.  0.
          2    1    1    2  501    0 -0.91358010317E+02  0.51379421925E+02 -0.18957996567E+04  0.18986949385E+04  0.00000000000E+00 0. -1.
          1    1    1    2  502    0 -0.41013338117E+02 -0.58897605718E+02 -0.11253325207E+01  0.71779441598E+02  0.00000000000E+00 0. -1.
         22    1    3    3    0    0  0.15417488047E+03  0.25625580457E+01 -0.23200662891E+03  0.27857411281E+03  0.00000000000E+00 0. -1.
         22    1    3    3    0    0 -0.21803532038E+02  0.49556257474E+01 -0.76769987715E+02  0.79959885253E+02  0.00000000000E+00 0. -1.
</event>
<event>
 7    1  0.6253338E-006  0.1129775E+03  0.7818608E-02  0.1301239E+00
          2   -1    0    0  502    0  0.00000000000E+00  0.00000000000E+00  0.74431143051E+02  0.74431143051E+02  0.00000000000E+00 0. -1.
          1   -1    0    0  501    0 -0.00000000000E+00 -0.00000000000E+00 -0.68153152416E+03  0.68153152416E+03  0.00000000000E+00 0. -1.
         25    2    1    2    0    0  0.19456449003E+02 -0.62234086207E+02 -0.12036407483E+03  0.18537194722E+03  0.12499445354E+03 0.  0.
          2    1    1    2  501    0  0.17052722287E+02  0.12517847382E+03 -0.48131944801E+03  0.49762320753E+03  0.00000000000E+00 0. -1.
          1    1    1    2  502    0 -0.36509171289E+02 -0.62944387609E+02 -0.54168582711E+01  0.72967512451E+02  0.00000000000E+00 0. -1.
         22    1    3    3    0    0  0.27589808243E+01 -0.33549144691E+02  0.21324118300E+02  0.39848150597E+02  0.00000000000E+00 0. -1.
         22    1    3    3    0    0  0.16697468178E+02 -0.28684941516E+02 -0.14168819313E+03  0.14552379663E+03  0.00000000000E+00 0. -1.
</event>
<event>
 7    1  0.6253338E-006  0.7057701E+02  0.7818608E-02  0.1382979E+00
          2   -1    0    0  502    0  0.00000000000E+00  0.00000000000E+00  0.21669527886E+04  0.21669527886E+04  0.00000000000E+00 0. -1.
          1   -1    0    0  501    0 -0.00000000000E+00 -0.00000000000E+00 -0.46353316636E+03  0.46353316636E+03  0.00000000000E+00 0. -1.
         25    2    1    2    0    0 -0.11098499827E+03 -0.66429834147E+01  0.43750094147E+03  0.46839476828E+03  0.12499914437E+03 0.  0.
          2    1    1    2  501    0  0.50619864676E+02 -0.27210325713E+02 -0.44554125336E+03  0.44923243535E+03  0.00000000000E+00 0. -1.
          1    1    1    2  502    0  0.60365133592E+02  0.33853309128E+02  0.17114599341E+04  0.17128587513E+04  0.00000000000E+00 0. -1.
         22    1    3    3    0    0 -0.13103106167E+03  0.15258181812E+02  0.29995939029E+03  0.32768519506E+03  0.00000000000E+00 0.  1.
         22    1    3    3    0    0  0.20046063397E+02 -0.21901165227E+02  0.13754155118E+03  0.14070957322E+03  0.00000000000E+00 0.  1.
</event>
<event>
 7    1  0.6253338E-006  0.1196727E+03  0.7818608E-02  0.1271831E+00
          2   -1    0    0  502    0  0.00000000000E+00  0.00000000000E+00  0.25632319326E+03  0.25632319326E+03  0.00000000000E+00 0. -1.
          1   -1    0    0  501    0 -0.00000000000E+00 -0.00000000000E+00 -0.14834359284E+04  0.14834359284E+04  0.00000000000E+00 0. -1.
         25    2    1    2    0    0  0.15630958325E+03  0.91803993939E+02 -0.48381115604E+03  0.53156259549E+03  0.12499959635E+03 0.  0.
          2    1    1    2  501    0 -0.65692912381E+02 -0.91876770724E+02 -0.96349169850E+03  0.97008924993E+03  0.00000000000E+00 0. -1.
          1    1    1    2  502    0 -0.90616670870E+02  0.72776784714E-01  0.22019011939E+03  0.23810727627E+03  0.00000000000E+00 0. -1.
         22    1    3    3    0    0  0.15825857414E+02 -0.25541651458E+02 -0.12739476191E+03  0.13089025587E+03  0.00000000000E+00 0. -1.
         22    1    3    3    0    0  0.14048372584E+03  0.11734564540E+03 -0.35641639414E+03  0.40067233961E+03  0.00000000000E+00 0. -1.
</event>
<event>
 7    1  0.6253338E-006  0.8731333E+02  0.7818608E-02  0.1346933E+00
          2   -1    0    0  502    0  0.00000000000E+00  0.00000000000E+00  0.54117693825E+03  0.54117693825E+03  0.00000000000E+00 0. -1.
          1   -1    0    0  501    0 -0.00000000000E+00 -0.00000000000E+00 -0.66069979635E+03  0.66069979635E+03  0.00000000000E+00 0. -1.
         25    2    1    2    0    0 -0.10380006699E+03 -0.64520133727E+00  0.35195767679E+03  0.38765158601E+03  0.12499870277E+03 0.  0.
          2    1    1    2  501    0  0.36423198805E+02 -0.51098016375E+02 -0.63067100006E+03  0.63378511106E+03  0.00000000000E+00 0. -1.
          1    1    1    2  502    0  0.67376868188E+02  0.51743217712E+02  0.15919046517E+03  0.18044003753E+03  0.00000000000E+00 0. -1.
         22    1    3    3    0    0 -0.81622735121E+02  0.37565814743E+02  0.32192669078E+03  0.33423084173E+03  0.00000000000E+00 0.  1.
         22    1    3    3    0    0 -0.22177331872E+02 -0.38211016081E+02  0.30030986006E+02  0.53420744279E+02  0.00000000000E+00 0.  1.
</event>
<event>
 7    1  0.6253338E-006  0.7316062E+02  0.7818608E-02  0.1423930E+00
          2   -1    0    0  502    0  0.00000000000E+00  0.00000000000E+00  0.55589748308E+03  0.55589748308E+03  0.00000000000E+00 0. -1.
          1   -1    0    0  501    0 -0.00000000000E+00 -0.00000000000E+00 -0.42254995496E+03  0.42254995496E+03  0.00000000000E+00 0. -1.
         25    2    1    2    0    0  0.16827805830E+02 -0.95958344923E+02 -0.27892625041E+03  0.32080469268E+03  0.12499847467E+03 0.  0.
          2    1    1    2  501    0  0.73675141034E+01  0.63917151817E+02 -0.11343038959E+03  0.13040757587E+03  0.00000000000E+00 0. -1.
          1    1    1    2  502    0 -0.24195319933E+02  0.32041193106E+02  0.52570416812E+03  0.52723516949E+03  0.00000000000E+00 0. -1.
         22    1    3    3    0    0 -0.72169908581E+01 -0.61395887615E+02 -0.27100009701E+03  0.27796149473E+03  0.00000000000E+00 0.  1.
         22    1    3    3    0    0  0.24044796688E+02 -0.34562457308E+02 -0.79261533998E+01  0.42843197951E+02  0.00000000000E+00 0.  1.
</event>
<event>
 7    1  0.6253338E-006  0.8644090E+02  0.7818608E-02  0.1469548E+00
          2   -1    0    0  502    0  0.00000000000E+00  0.00000000000E+00  0.13383036243E+04  0.13383036243E+04  0.00000000000E+00 0. -1.
          1   -1    0    0  501    0 -0.00000000000E+00 -0.00000000000E+00 -0.15760575715E+04  0.15760575715E+04  0.00000000000E+00 0. -1.
         25    2    1    2    0    0 -0.67104692224E+02 -0.75932522499E+01 -0.12703017053E+03  0.19058115323E+03  0.12499525809E+03 0.  0.
          2    1    1    2  501    0  0.87069535969E+02 -0.61581045698E+01 -0.14157952547E+04  0.14184834259E+04  0.00000000000E+00 0. -1.
          1    1    1    2  502    0 -0.19964843745E+02  0.13751356820E+02  0.13050714780E+04  0.13052966167E+04  0.00000000000E+00 0. -1.
         22    1    3    3    0    0 -0.53665866942E+02 -0.41568772996E+02 -0.10790382502E+02  0.68734420180E+02  0.00000000000E+00 0. -1.
         22    1    3    3    0    0 -0.13438825282E+02  0.33975520746E+02 -0.11623978803E+03  0.12184673305E+03  0.00000000000E+00 0. -1.
</event>
<event>
 7    1  0.6253338E-006  0.1504008E+03  0.7818608E-02  0.1253089E+00
          2   -1    0    0  502    0  0.00000000000E+00  0.00000000000E+00  0.97561145112E+03  0.97561145112E+03  0.00000000000E+00 0. -1.
          1   -1    0    0  501    0 -0.00000000000E+00 -0.00000000000E+00 -0.25269412219E+03  0.25269412219E+03  0.00000000000E+00 0. -1.
         25    2    1    2    0    0 -0.19322877462E+03  0.54284178797E+02  0.76618317091E+03  0.80183858701E+03  0.12499734724E+03 0.  0.
          2    1    1    2  501    0  0.14800703322E+03  0.19596478384E+02 -0.19869180221E+03  0.24853276668E+03  0.00000000000E+00 0. -1.
          1    1    1    2  502    0  0.45221741403E+02 -0.73880657181E+02  0.15542596023E+03  0.17793421963E+03  0.00000000000E+00 0. -1.
         22    1    3    3    0    0 -0.78965512096E+02 -0.18410467673E+02  0.14564394182E+03  0.16669329684E+03  0.00000000000E+00 0. -1.
         22    1    3    3    0    0 -0.11426326252E+03  0.72694646471E+02  0.62053922909E+03  0.63514529017E+03  0.00000000000E+00 0. -1.
</event>
<event>
 7    1  0.6253338E-006  0.8301312E+02  0.7818608E-02  0.1397859E+00
          2   -1    0    0  502    0  0.00000000000E+00  0.00000000000E+00  0.27451358902E+03  0.27451358902E+03  0.00000000000E+00 0. -1.
          1   -1    0    0  501    0 -0.00000000000E+00 -0.00000000000E+00 -0.15429278288E+04  0.15429278288E+04  0.00000000000E+00 0. -1.
         25    2    1    2    0    0 -0.36583886003E+01  0.62707264741E+01  0.16800557456E+03  0.20953195251E+03  0.12500024089E+03 0.  0.
          2    1    1    2  501    0 -0.80517549443E+02 -0.20201543629E+02 -0.14995038075E+04  0.15017998692E+04  0.00000000000E+00 0. -1.
          1    1    1    2  502    0  0.84175938044E+02  0.13930817155E+02  0.63083993157E+02  0.10610959620E+03  0.00000000000E+00 0. -1.
         22    1    3    3    0    0  0.29017083165E+02 -0.47759170946E+02  0.11184073531E+03  0.12502511587E+03  0.00000000000E+00 0.  1.
         22    1    3    3    0    0 -0.32675471765E+02  0.54029897420E+02  0.56164839254E+02  0.84506836638E+02  0.00000000000E+00 0.  1.
</event>
<event>
 7    1  0.6253338E-006  0.9455357E+02  0.7818608E-02  0.1435347E+00
          2   -1    0    0  502    0  0.00000000000E+00  0.00000000000E+00  0.40155475718E+03  0.40155475718E+03  0.00000000000E+00 0. -1.
          1   -1    0    0  501    0 -0.00000000000E+00 -0.00000000000E+00 -0.57950920451E+03  0.57950920451E+03  0.00000000000E+00 0. -1.
         25    2    1    2    0    0  0.43531204543E+02  0.59074933961E+02 -0.10358090941E+03  0.17813231333E+03  0.12496920687E+03 0.  0.
          2    1    1    2  501    0  0.28195388339E+02  0.40814010026E+01 -0.43190706617E+03  0.43284564404E+03  0.00000000000E+00 0. -1.
          1    1    1    2  502    0 -0.71726592882E+02 -0.63156334964E+02  0.35753352825E+03  0.37008600432E+03  0.00000000000E+00 0. -1.
         22    1    3    3    0    0 -0.14204085476E+02 -0.30815853868E+02 -0.81855412814E+01  0.34905242871E+02  0.00000000000E+00 0.  1.
         22    1    3    3    0    0  0.57735290019E+02  0.89890787830E+02 -0.95395368130E+02  0.14322707045E+03  0.00000000000E+00 0.  1.
</event>
<event>
 7    1  0.6253338E-006  0.8331470E+02  0.7818608E-02  0.1346408E+00
          2   -1    0    0  502    0  0.00000000000E+00  0.00000000000E+00  0.11100258293E+04  0.11100258293E+04  0.00000000000E+00 0. -1.
          1   -1    0    0  501    0 -0.00000000000E+00 -0.00000000000E+00 -0.17777401888E+03  0.17777401888E+03  0.00000000000E+00 0. -1.
         25    2    1    2    0    0  0.31392967038E+02  0.36936060263E+02  0.22516889747E+02  0.13594888318E+03  0.12500119034E+03 0.  0.
          2    1    1    2  501    0  0.19775491437E+01 -0.93946729384E+02 -0.10158180301E+03  0.13837904959E+03  0.00000000000E+00 0. -1.
          1    1    1    2  502    0 -0.33370516182E+02  0.57010669121E+02  0.10113167236E+04  0.10134719154E+04  0.00000000000E+00 0. -1.
         22    1    3    3    0    0  0.51706747652E+02  0.68621726658E+02  0.39608694892E+02  0.94611721437E+02  0.00000000000E+00 0. -1.
         22    1    3    3    0    0 -0.20313780614E+02 -0.31685666394E+02 -0.17091805145E+02  0.41337161741E+02  0.00000000000E+00 0. -1.
</event>
<event>
 7    1  0.6253338E-006  0.7149178E+02  0.7818608E-02  0.1369378E+00
          2   -1    0    0  502    0  0.00000000000E+00  0.00000000000E+00  0.82995697716E+03  0.82995697716E+03  0.00000000000E+00 0. -1.
          1   -1    0    0  501    0 -0.00000000000E+00 -0.00000000000E+00 -0.27368633900E+03  0.27368633900E+03  0.00000000000E+00 0. -1.
         25    2    1    2    0    0  0.64319579268E+01 -0.11952611227E+03  0.42149796382E+03  0.45564628448E+03  0.12500056583E+03 0.  0.
          2    1    1    2  501    0  0.19787325390E+02  0.60264629390E+02 -0.24994084237E+03  0.25786389528E+03  0.00000000000E+00 0. -1.
          1    1    1    2  502    0 -0.26219283317E+02  0.59261482884E+02  0.38471351672E+03  0.39013313640E+03  0.00000000000E+00 0. -1.
         22    1    3    3    0    0 -0.43531769575E+02 -0.10130232397E+02  0.18503772871E+03  0.19035912801E+03  0.00000000000E+00 0. -1.
         22    1    3    3    0    0  0.49963727502E+02 -0.10939587988E+03  0.23646023511E+03  0.26528715647E+03  0.00000000000E+00 0. -1.
</event>
<event>
 7    1  0.6253338E-006  0.1621710E+03  0.7818608E-02  0.1205272E+00
          2   -1    0    0  502    0  0.00000000000E+00  0.00000000000E+00  0.96071250891E+03  0.96071250891E+03  0.00000000000E+00 0. -1.
          1   -1    0    0  501    0 -0.00000000000E+00 -0.00000000000E+00 -0.37429259641E+03  0.37429259641E+03  0.00000000000E+00 0. -1.
         25    2    1    2    0    0  0.38933980620E+02 -0.15790596989E+03  0.47683933498E+02  0.21061070722E+03  0.12503184517E+03 0.  0.
          2    1    1    2  501    0 -0.14827353374E+03  0.84436116781E+02 -0.26212690602E+03  0.31276990501E+03  0.00000000000E+00 0. -1.
          1    1    1    2  502    0  0.10933955312E+03  0.73469853111E+02  0.80086288501E+03  0.81162449309E+03  0.00000000000E+00 0. -1.
         22    1    3    3    0    0  0.75328301969E+02 -0.93882879625E+02 -0.43374972599E+01  0.12044568090E+03  0.00000000000E+00 0. -1.
         22    1    3    3    0    0 -0.36394321349E+02 -0.64023090267E+02  0.52021430758E+02  0.90165026323E+02  0.00000000000E+00 0. -1.
</event>
<event>
 7    1  0.6253338E-006  0.1162993E+03  0.7818608E-02  0.1318328E+00
          2   -1    0    0  502    0  0.00000000000E+00  0.00000000000E+00  0.10274856270E+04  0.10274856270E+04  0.00000000000E+00 0. -1.
          1   -1    0    0  501    0 -0.00000000000E+00 -0.00000000000E+00 -0.42968144736E+02  0.42968144736E+02  0.00000000000E+00 0. -1.
         25    2    1    2    0    0  0.12299517943E+03 -0.62821946268E+02  0.31062060748E+03  0.36219463729E+03  0.12500152958E+03 0.  0.
          2    1    1    2  501    0 -0.66737956795E+02  0.85160216711E+02  0.17529458024E+03  0.20599613406E+03  0.00000000000E+00 0. -1.
          1    1    1    2  502    0 -0.56257222637E+02 -0.22338270444E+02  0.49860229455E+03  0.50226300038E+03  0.00000000000E+00 0. -1.
         22    1    3    3    0    0  0.94769551954E+02 -0.89081939671E+02  0.29141568123E+03  0.31912373653E+03  0.00000000000E+00 0.  1.
         22    1    3    3    0    0  0.28225627478E+02  0.26259993403E+02  0.19204926255E+02  0.43070900763E+02  0.00000000000E+00 0.  1.
</event>
<event>
 7    1  0.6253338E-006  0.5113436E+02  0.7818608E-02  0.1555416E+00
          2   -1    0    0  502    0  0.00000000000E+00  0.00000000000E+00  0.80551552388E+03  0.80551552388E+03  0.00000000000E+00 0. -1.
          1   -1    0    0  501    0 -0.00000000000E+00 -0.00000000000E+00 -0.86899993840E+02  0.86899993840E+02  0.00000000000E+00 0. -1.
         25    2    1    2    0    0  0.12661337633E+02 -0.67867113672E+02  0.92696226128E+02  0.17024297382E+03  0.12499530075E+03 0.  0.
          2    1    1    2  501    0  0.79566702682E+01  0.21508603317E+02 -0.44380358120E+02  0.49955428186E+02  0.00000000000E+00 0. -1.
          1    1    1    2  502    0 -0.20618007901E+02  0.46358510355E+02  0.67029966203E+03  0.67221711570E+03  0.00000000000E+00 0. -1.
         22    1    3    3    0    0  0.11519233517E+02 -0.82053493410E+02  0.67569501055E+01  0.83133175666E+02  0.00000000000E+00 0.  1.
         22    1    3    3    0    0  0.11421041154E+01  0.14186379738E+02  0.85939276023E+02  0.87109798158E+02  0.00000000000E+00 0.  1.
</event>
<event>
 7    1  0.6253338E-006  0.4147490E+03  0.7818608E-02  0.1084675E+00
          2   -1    0    0  502    0  0.00000000000E+00  0.00000000000E+00  0.20723107778E+04  0.20723107778E+04  0.00000000000E+00 0. -1.
          1   -1    0    0  501    0 -0.00000000000E+00 -0.00000000000E+00 -0.43396923182E+03  0.43396923182E+03  0.00000000000E+00 0. -1.
         25    2    1    2    0    0  0.88076894822E+02 -0.90259583240E+02  0.42376688284E+03  0.45946456051E+03  0.12499991843E+03 0.  0.
          2    1    1    2  501    0 -0.13637167791E+03 -0.39168799358E+03 -0.26351854572E+03  0.49138451623E+03  0.00000000000E+00 0. -1.
          1    1    1    2  502    0  0.48294783092E+02  0.48194757682E+03  0.14780932088E+04  0.15554309329E+04  0.00000000000E+00 0. -1.
         22    1    3    3    0    0  0.72003069272E+01 -0.54834237241E+02  0.31282294746E+03  0.31767410101E+03  0.00000000000E+00 0. -1.
         22    1    3    3    0    0  0.80876587895E+02 -0.35425345999E+02  0.11094393538E+03  0.14179045950E+03  0.00000000000E+00 0. -1.
</event>
<event>
 7    1  0.6253338E-006  0.1117744E+03  0.7818608E-02  0.1333672E+00
          2   -1    0    0  502    0  0.00000000000E+00  0.00000000000E+00  0.34198639320E+03  0.34198639320E+03  0.00000000000E+00 0. -1.
          1   -1    0    0  501    0 -0.00000000000E+00 -0.00000000000E+00 -0.72411721605E+03  0.72411721605E+03  0.00000000000E+00 0. -1.
         25    2    1    2    0    0 -0.35190332279E+02  0.55423092930E+02 -0.12118376448E+00  0.14119766235E+03  0.12500674562E+03 0.  0.
          2    1    1    2  501    0 -0.26059352389E+02  0.48414382944E+02 -0.63883308086E+03  0.64119478126E+03  0.00000000000E+00 0. -1.
          1    1    1    2  502    0  0.61249684668E+02 -0.10383747587E+03  0.25682344177E+03  0.28371116564E+03  0.00000000000E+00 0. -1.
         22    1    3    3    0    0  0.26463922539E+02  0.15012313497E+02 -0.45424143811E+02  0.54672311033E+02  0.00000000000E+00 0.  1.
         22    1    3    3    0    0 -0.61654254818E+02  0.40410779433E+02  0.45302960047E+02  0.86525351317E+02  0.00000000000E+00 0.  1.
</event>
<event>
 7    1  0.6253338E-006  0.9834536E+02  0.7818608E-02  0.1439824E+00
          2   -1    0    0  502    0  0.00000000000E+00  0.00000000000E+00  0.88047356468E+03  0.88047356468E+03  0.00000000000E+00 0. -1.
          1   -1    0    0  501    0 -0.00000000000E+00 -0.00000000000E+00 -0.39784351207E+03  0.39784351207E+03  0.00000000000E+00 0. -1.
         25    2    1    2    0    0 -0.97476466502E+02  0.77376429579E+02  0.43704407329E+03  0.47129722111E+03  0.12499910102E+03 0.  0.
          2    1    1    2  501    0  0.77238224935E+02 -0.60289696054E+02 -0.37398813833E+03  0.38661055140E+03  0.00000000000E+00 0. -1.
          1    1    1    2  502    0  0.20238241567E+02 -0.17086733525E+02  0.41957411765E+03  0.42040930424E+03  0.00000000000E+00 0. -1.
         22    1    3    3    0    0  0.52022090675E+01 -0.27999310098E+02  0.88592721708E+02  0.93057480542E+02  0.00000000000E+00 0. -1.
         22    1    3    3    0    0 -0.10267867557E+03  0.10537573968E+03  0.34845135158E+03  0.37823974057E+03  0.00000000000E+00 0. -1.
</event>
<event>
 7    1  0.6253338E-006  0.4570388E+02  0.7818608E-02  0.1514287E+00
          2   -1    0    0  502    0  0.00000000000E+00  0.00000000000E+00  0.51087820547E+02  0.51087820547E+02  0.00000000000E+00 0. -1.
          1   -1    0    0  501    0 -0.00000000000E+00 -0.00000000000E+00 -0.15059856708E+04  0.15059856708E+04  0.00000000000E+00 0. -1.
         25    2    1    2    0    0  0.30224333760E+02 -0.70438644180E+02 -0.72442719831E+03  0.73911769664E+03  0.12500036356E+03 0.  0.
          2    1    1    2  501    0 -0.15183534501E+02  0.40395258170E+02 -0.76706447679E+03  0.76827744218E+03  0.00000000000E+00 0. -1.
          1    1    1    2  502    0 -0.15040799259E+02  0.30043386010E+02  0.36593824894E+02  0.49678352485E+02  0.00000000000E+00 0. -1.
         22    1    3    3    0    0 -0.15092552123E+02  0.31432177110E+02 -0.15429739346E+03  0.15818802899E+03  0.00000000000E+00 0.  1.
         22    1    3    3    0    0  0.45316885883E+02 -0.10187082129E+03 -0.57012980485E+03  0.58092966765E+03  0.00000000000E+00 0.  1.
</event>
<event>
 7    1  0.6253338E-006  0.7184994E+02  0.7818608E-02  0.1388457E+00
          2   -1    0    0  502    0  0.00000000000E+00  0.00000000000E+00  0.21202796579E+04  0.21202796579E+04  0.00000000000E+00 0. -1.
          1   -1    0    0  501    0 -0.00000000000E+00 -0.00000000000E+00 -0.12325689097E+04  0.12325689097E+04  0.00000000000E+00 0. -1.
         25    2    1    2    0    0  0.17947820131E+02  0.10617516235E+03 -0.14467695399E+02  0.16561739351E+03  0.12499806988E+03 0.  0.
          2    1    1    2  501    0 -0.42017222174E+02 -0.57829920598E+02 -0.11410511363E+04  0.11432879962E+04  0.00000000000E+00 0. -1.
          1    1    1    2  502    0  0.24069402042E+02 -0.48345241755E+02  0.20432295799E+04  0.20439431779E+04  0.00000000000E+00 0. -1.
         22    1    3    3    0    0 -0.41583323878E+01  0.37384803062E+02 -0.66620829119E+02  0.76506536327E+02  0.00000000000E+00 0. -1.
         22    1    3    3    0    0  0.22106152519E+02  0.68790359292E+02  0.52153133721E+02  0.89110857181E+02  0.00000000000E+00 0. -1.
</event>
<event>
 7    1  0.6253338E-006  0.3858748E+02  0.7818608E-02  0.1564168E+00
          2   -1    0    0  502    0  0.00000000000E+00  0.00000000000E+00  0.53500209064E+03  0.53500209064E+03  0.00000000000E+00 0. -1.
          1   -1    0    0  501    0 -0.00000000000E+00 -0.00000000000E+00 -0.38259760564E+02  0.38259760564E+02  0.00000000000E+00 0. -1.
         25    2    1    2    0    0  0.82526019488E+01  0.12382692200E+02  0.91691412999E+02  0.15573651094E+03  0.12500043647E+03 0.  0.
          2    1    1    2  501    0  0.18663197679E+02 -0.40032893674E+02  0.91436927020E+02  0.10154633990E+03  0.00000000000E+00 0. -1.
          1    1    1    2  502    0 -0.26915799628E+02  0.27650201475E+02  0.31361399006E+03  0.31597900037E+03  0.00000000000E+00 0. -1.
         22    1    3    3    0    0  0.64674578619E+02  0.20486325636E+02  0.39807411308E+02  0.78658252286E+02  0.00000000000E+00 0. -1.
         22    1    3    3    0    0 -0.56421976671E+02 -0.81036334364E+01  0.51884001691E+02  0.77078258658E+02  0.00000000000E+00 0. -1.
</event>
<event>
 7    1  0.6253338E-006  0.4921408E+02  0.7818608E-02  0.1454797E+00
          2   -1    0    0  502    0  0.00000000000E+00  0.00000000000E+00  0.39373012646E+03  0.39373012646E+03  0.00000000000E+00 0. -1.
          1   -1    0    0  501    0 -0.00000000000E+00 -0.00000000000E+00 -0.29418497609E+04  0.29418497609E+04  0.00000000000E+00 0. -1.
         25    2    1    2    0    0 -0.89128131824E+02  0.32328956534E+02 -0.65059533227E+03  0.66924915470E+03  0.12502463511E+03 0.  0.
          2    1    1    2  501    0  0.40681341625E+02 -0.24288889468E+02 -0.22801119050E+04  0.22806041351E+04  0.00000000000E+00 0. -1.
          1    1    1    2  502    0  0.48446790199E+02 -0.80400670666E+01  0.38258760287E+03  0.38572659751E+03  0.00000000000E+00 0. -1.
         22    1    3    3    0    0 -0.10839456890E+03  0.41637437827E+02 -0.62587188658E+03  0.63655217948E+03  0.00000000000E+00 0. -1.
         22    1    3    3    0    0  0.19266437075E+02 -0.93084812929E+01 -0.24723445692E+02  0.32696975218E+02  0.00000000000E+00 0. -1.
</event>
<event>
 7    1  0.6253338E-006  0.7296467E+02  0.7818608E-02  0.1397252E+00
          2   -1    0    0  502    0  0.00000000000E+00  0.00000000000E+00  0.12815775562E+03  0.12815775562E+03  0.00000000000E+00 0. -1.
          1   -1    0    0  501    0 -0.00000000000E+00 -0.00000000000E+00 -0.10865374467E+04  0.10865374467E+04  0.00000000000E+00 0. -1.
         25    2    1    2    0    0 -0.10423736689E+03 -0.53419517011E+02 -0.79529353777E+02  0.18882742441E+03  0.12494720742E+03 0.  0.
          2    1    1    2  501    0  0.45644070406E+02  0.19326006059E+02 -0.93593332249E+03  0.93724493053E+03  0.00000000000E+00 0. -1.
          1    1    1    2  502    0  0.58593296486E+02  0.34093510952E+02  0.57082985182E+02  0.88622847389E+02  0.00000000000E+00 0. -1.
         22    1    3    3    0    0 -0.12082589620E+03 -0.76040287652E+02 -0.61255104022E+02  0.15534867334E+03  0.00000000000E+00 0.  1.
         22    1    3    3    0    0  0.16588529309E+02  0.22620770641E+02 -0.18274249754E+02  0.33478751069E+02  0.00000000000E+00 0.  1.
</event>
<event>
 7    1  0.6253338E-006  0.5890978E+02  0.7818608E-02  0.1548697E+00
          2   -1    0    0  502    0  0.00000000000E+00  0.00000000000E+00  0.13674076336E+04  0.13674076336E+04  0.00000000000E+00 0. -1.
          1   -1    0    0  501    0 -0.00000000000E+00 -0.00000000000E+00 -0.23924893474E+02  0.23924893474E+02  0.00000000000E+00 0. -1.
         25    2    1    2    0    0  0.52324795136E+02  0.42721080015E+02  0.25957703365E+03  0.29592053411E+03  0.12500300494E+03 0.  0.
          2    1    1    2  501    0  0.20309655721E+01 -0.20682139813E+02  0.16874263467E+02  0.26769693610E+02  0.00000000000E+00 0. -1.
          1    1    1    2  502    0 -0.54355760708E+02 -0.22038940202E+02  0.10670314430E+04  0.10686422993E+04  0.00000000000E+00 0. -1.
         22    1    3    3    0    0  0.79295519058E+02  0.27269526398E+02  0.88013299724E+02  0.12156375834E+03  0.00000000000E+00 0. -1.
         22    1    3    3    0    0 -0.26970723922E+02  0.15451553617E+02  0.17156373393E+03  0.17435677577E+03  0.00000000000E+00 0. -1.
</event>
<event>
 7    1  0.6253338E-006  0.6990610E+02  0.7818608E-02  0.1384553E+00
          2   -1    0    0  502    0  0.00000000000E+00  0.00000000000E+00  0.18252039060E+04  0.18252039060E+04  0.00000000000E+00 0. -1.
          1   -1    0    0  501    0 -0.00000000000E+00 -0.00000000000E+00 -0.39391436378E+02  0.39391436378E+02  0.00000000000E+00 0. -1.
         25    2    1    2    0    0  0.24401405395E+02  0.42697387565E+02  0.13006715794E+04  0.13075893572E+04  0.12499949613E+03 0.  0.
          2    1    1    2  501    0  0.46978098251E+02  0.32782503489E+02 -0.35496740805E+01  0.57395421737E+02  0.00000000000E+00 0. -1.
          1    1    1    2  502    0 -0.71379503646E+02 -0.75479891054E+02  0.48869056429E+03  0.49961056346E+03  0.00000000000E+00 0. -1.
         22    1    3    3    0    0  0.32852423971E+02  0.83751466518E+02  0.99471976206E+03  0.99877975297E+03  0.00000000000E+00 0. -1.
         22    1    3    3    0    0 -0.84510185761E+01 -0.41054078953E+02  0.30595181734E+03  0.30880960420E+03  0.00000000000E+00 0. -1.
</event>
<event>
 7    1  0.6253338E-006  0.1159205E+03  0.7818608E-02  0.1261728E+00
          2   -1    0    0  502    0  0.00000000000E+00  0.00000000000E+00  0.32397696448E+03  0.32397696448E+03  0.00000000000E+00 0. -1.
          1   -1    0    0  501    0 -0.00000000000E+00 -0.00000000000E+00 -0.12056684202E+04  0.12056684202E+04  0.00000000000E+00 0. -1.
         25    2    1    2    0    0  0.14406195669E+03  0.85609740621E+02 -0.41580140561E+03  0.46539990200E+03  0.12499353914E+03 0.  0.
          2    1    1    2  501    0 -0.10094130650E+03  0.21484530855E+02 -0.75026466066E+03  0.75732938241E+03  0.00000000000E+00 0. -1.
          1    1    1    2  502    0 -0.43120650192E+02 -0.10709427148E+03  0.28437461057E+03  0.30691610025E+03  0.00000000000E+00 0. -1.
         22    1    3    3    0    0  0.56797783183E+02  0.10112426298E+03 -0.18720368166E+03  0.22022107793E+03  0.00000000000E+00 0.  1.
         22    1    3    3    0    0  0.87264173505E+02 -0.15514522357E+02 -0.22859772394E+03  0.24517882407E+03  0.00000000000E+00 0.  1.
</event>
<event>
 7    1  0.6253338E-006  0.9177546E+02  0.7818608E-02  0.1436832E+00
          2   -1    0    0  502    0  0.00000000000E+00  0.00000000000E+00  0.50847410615E+03  0.50847410615E+03  0.00000000000E+00 0. -1.
          1   -1    0    0  501    0 -0.00000000000E+00 -0.00000000000E+00 -0.66601111436E+03  0.66601111436E+03  0.00000000000E+00 0. -1.
         25    2    1    2    0    0 -0.56625054468E+02 -0.65101120760E+02 -0.69980188896E+02  0.16723382933E+03  0.12500149645E+03 0.  0.
          2    1    1    2  501    0 -0.22663252090E+02  0.18135157664E+02 -0.54239516857E+03  0.54317126749E+03  0.00000000000E+00 0. -1.
          1    1    1    2  502    0  0.79288306558E+02  0.46965963096E+02  0.45483834926E+03  0.46408012369E+03  0.00000000000E+00 0. -1.
         22    1    3    3    0    0  0.16585826704E+02 -0.13134600994E+02 -0.74396037376E+02  0.77345832260E+02  0.00000000000E+00 0.  1.
         22    1    3    3    0    0 -0.73210881173E+02 -0.51966519765E+02  0.44158484798E+01  0.89887997065E+02  0.00000000000E+00 0.  1.
</event>
<event>
 7    1  0.6253338E-006  0.1079240E+03  0.7818608E-02  0.1363333E+00
          2   -1    0    0  502    0  0.00000000000E+00  0.00000000000E+00  0.21090186086E+04  0.21090186086E+04  0.00000000000E+00 0. -1.
          1   -1    0    0  501    0 -0.00000000000E+00 -0.00000000000E+00 -0.21432561476E+03  0.21432561476E+03  0.00000000000E+00 0. -1.
         25    2    1    2    0    0 -0.10688536164E+03 -0.60623033513E+02 -0.67436045404E+02  0.18780967092E+03  0.12500087817E+03 0.  0.
          2    1    1    2  501    0  0.66421367755E+02  0.78373188606E+02 -0.55943796187E+02  0.11697804546E+03  0.00000000000E+00 0. -1.
          1    1    1    2  502    0  0.40463993885E+02 -0.17750155092E+02  0.20180728355E+04  0.20185565070E+04  0.00000000000E+00 0. -1.
         22    1    3    3    0    0 -0.37883237003E+02 -0.78912041203E+01  0.35929393783E+02  0.52804659698E+02  0.00000000000E+00 0.  1.
         22    1    3    3    0    0 -0.69002124637E+02 -0.52731829393E+02 -0.10336543919E+03  0.13500501122E+03  0.00000000000E+00 0.  1.
</event>
<event>
 7    1  0.6253338E-006  0.9486044E+02  0.7818608E-02  0.1447710E+00
          2   -1    0    0  502    0  0.00000000000E+00  0.00000000000E+00  0.26032663281E+03  0.26032663281E+03  0.00000000000E+00 0. -1.
          1   -1    0    0  501    0 -0.00000000000E+00 -0.00000000000E+00 -0.11750669301E+04  0.11750669301E+04  0.00000000000E+00 0. -1.
         25    2    1    2    0    0 -0.77618709950E+02  0.60283605614E+01 -0.16912164503E+03  0.22425050456E+03  0.12500061085E+03 0.  0.
          2    1    1    2  501    0  0.92555119062E+02 -0.27183182449E+02 -0.97527360963E+03  0.98003264696E+03  0.00000000000E+00 0. -1.
          1    1    1    2  502    0 -0.14936409112E+02  0.21154821887E+02  0.22965495736E+03  0.23111041138E+03  0.00000000000E+00 0. -1.
         22    1    3    3    0    0 -0.79751919439E+02  0.12907132120E+02 -0.31930899537E+02  0.86870852759E+02  0.00000000000E+00 0.  1.
         22    1    3    3    0    0  0.21332094896E+01 -0.68787715585E+01 -0.13719074549E+03  0.13737965181E+03  0.00000000000E+00 0.  1.
</event>
<event>
 7    1  0.6253338E-006  0.6634132E+03  0.7818608E-02  0.1209161E+00
          2   -1    0    0  502    0  0.00000000000E+00  0.00000000000E+00  0.27635376428E+04  0.27635376428E+04  0.00000000000E+00 0. -1.
          1   -1    0    0  501    0 -0.00000000000E+00 -0.00000000000E+00 -0.78373685095E+03  0.78373685095E+03  0.00000000000E+00 0. -1.
         25    2    1    2    0    0  0.33519767543E+03  0.54226118516E+03  0.75759713183E+03  0.99798961910E+03  0.12500076452E+03 0.  0.
          2    1    1    2  501    0 -0.35120611237E+03 -0.56867438546E+03 -0.49505115863E+03  0.83175233075E+03  0.00000000000E+00 0. -1.
          1    1    1    2  502    0  0.16008436941E+02  0.26413200296E+02  0.17172548186E+04  0.17175325439E+04  0.00000000000E+00 0. -1.
         22    1    3    3    0    0  0.26959758109E+03  0.50697286740E+03  0.65250947652E+03  0.86917947569E+03  0.00000000000E+00 0. -1.
         22    1    3    3    0    0  0.65600094343E+02  0.35288317766E+02  0.10508765531E+03  0.12881014342E+03  0.00000000000E+00 0. -1.
</event>
<event>
 7    1  0.6253338E-006  0.1521608E+03  0.7818608E-02  0.1248753E+00
          2   -1    0    0  502    0  0.00000000000E+00  0.00000000000E+00  0.49374766526E+02  0.49374766526E+02  0.00000000000E+00 0. -1.
          1   -1    0    0  501    0 -0.00000000000E+00 -0.00000000000E+00 -0.17250472307E+04  0.17250472307E+04  0.00000000000E+00 0. -1.
         25    2    1    2    0    0 -0.17980505377E+02  0.95941146937E+02 -0.10568952940E+04  0.10687287011E+04  0.12500148730E+03 0.  0.
          2    1    1    2  501    0  0.67334691729E+02  0.58815245995E+02 -0.49086374471E+03  0.49893928462E+03  0.00000000000E+00 0. -1.
          1    1    1    2  502    0 -0.49354186353E+02 -0.15475639293E+03 -0.12791342551E+03  0.20675401154E+03  0.00000000000E+00 0. -1.
         22    1    3    3    0    0 -0.12933705497E+02  0.27165080299E+02 -0.42942827676E+02  0.52433851416E+02  0.00000000000E+00 0. -1.
         22    1    3    3    0    0 -0.50467998801E+01  0.68776066638E+02 -0.10139524663E+04  0.10162948497E+04  0.00000000000E+00 0. -1.
</event>
<event>
 7    1  0.6253338E-006  0.9188752E+02  0.7818608E-02  0.1339142E+00
          2   -1    0    0  502    0  0.00000000000E+00  0.00000000000E+00  0.13056569343E+04  0.13056569343E+04  0.00000000000E+00 0. -1.
          1   -1    0    0  501    0 -0.00000000000E+00 -0.00000000000E+00 -0.58725737910E+02  0.58725737910E+02  0.00000000000E+00 0. -1.
         25    2    1    2    0    0  0.97583748316E+01  0.90287196833E+02  0.30970598861E+03  0.34610730825E+03  0.12500186259E+03 0.  0.
          2    1    1    2  501    0  0.53040077322E+02 -0.79198185990E+02  0.18200077834E+02  0.97040431262E+02  0.00000000000E+00 0. -1.
          1    1    1    2  502    0 -0.62798452154E+02 -0.11089010843E+02  0.91902512995E+03  0.92123493270E+03  0.00000000000E+00 0. -1.
         22    1    3    3    0    0 -0.56476326818E+02  0.54480521617E+02  0.14108190797E+03  0.16143669807E+03  0.00000000000E+00 0.  1.
         22    1    3    3    0    0  0.66234701649E+02  0.35806675216E+02  0.16862408064E+03  0.18467061018E+03  0.00000000000E+00 0.  1.
</event>
<event>
 7    1  0.6253338E-006  0.1312039E+03  0.7818608E-02  0.1338059E+00
          2   -1    0    0  502    0  0.00000000000E+00  0.00000000000E+00  0.13943151878E+04  0.13943151878E+04  0.00000000000E+00 0. -1.
          1   -1    0    0  501    0 -0.00000000000E+00 -0.00000000000E+00 -0.92475658617E+03  0.92475658617E+03  0.00000000000E+00 0. -1.
         25    2    1    2    0    0  0.68073173182E+02 -0.59400280089E+02  0.16688619826E+03  0.22724051704E+03  0.12499959694E+03 0.  0.
          2    1    1    2  501    0 -0.11168845094E+03  0.70809286552E+02 -0.88926366966E+03  0.89904290182E+03  0.00000000000E+00 0. -1.
          1    1    1    2  502    0  0.43615277758E+02 -0.11409006463E+02  0.11919360731E+04  0.11927883551E+04  0.00000000000E+00 0. -1.
         22    1    3    3    0    0  0.91817649443E+02 -0.69236664125E+02  0.89566982091E+02  0.14576158852E+03  0.00000000000E+00 0. -1.
         22    1    3    3    0    0 -0.23744476261E+02  0.98363840364E+01  0.77319216166E+02  0.81478928517E+02  0.00000000000E+00 0. -1.
</event>
<event>
 7    1  0.6253338E-006  0.8999142E+02  0.7818608E-02  0.1319619E+00
          2   -1    0    0  502    0  0.00000000000E+00  0.00000000000E+00  0.78137707527E+03  0.78137707527E+03  0.00000000000E+00 0. -1.
          1   -1    0    0  501    0 -0.00000000000E+00 -0.00000000000E+00 -0.14088003221E+04  0.14088003221E+04  0.00000000000E+00 0. -1.
         25    2    1    2    0    0  0.38072368101E+02  0.25030905226E+02 -0.90362256479E+02  0.16083084731E+03  0.12500069048E+03 0.  0.
          2    1    1    2  501    0 -0.85947668993E+02  0.35693113962E+02 -0.12795057453E+04  0.12828857908E+04  0.00000000000E+00 0. -1.
          1    1    1    2  502    0  0.47875300892E+02 -0.60724019188E+02  0.74244475491E+03  0.74646075921E+03  0.00000000000E+00 0. -1.
         22    1    3    3    0    0  0.12268030903E+02 -0.18427592472E+02  0.25891597511E+02  0.34065460047E+02  0.00000000000E+00 0. -1.
         22    1    3    3    0    0  0.25804337198E+02  0.43458497698E+02 -0.11625385399E+03  0.12676538726E+03  0.00000000000E+00 0. -1.
</event>
<event>
 7    1  0.6253338E-006  0.3186886E+02  0.7818608E-02  0.1632801E+00
          2   -1    0    0  502    0  0.00000000000E+00  0.00000000000E+00  0.11178995331E+04  0.11178995331E+04  0.00000000000E+00 0. -1.
          1   -1    0    0  501    0 -0.00000000000E+00 -0.00000000000E+00 -0.91682595270E+03  0.91682595270E+03  0.00000000000E+00 0. -1.
         25    2    1    2    0    0  0.26587828561E+02 -0.46768687261E+02 -0.12109396776E+03  0.18216131429E+03  0.12499909063E+03 0.  0.
          2    1    1    2  501    0 -0.64914963312E+01  0.22076845687E+02 -0.76479219015E+03  0.76513830172E+03  0.00000000000E+00 0. -1.
          1    1    1    2  502    0 -0.20096332230E+02  0.24691841574E+02  0.10869597384E+04  0.10874258698E+04  0.00000000000E+00 0. -1.
         22    1    3    3    0    0  0.62290437443E+02 -0.69293967427E+02 -0.74586388750E+02  0.11935192460E+03  0.00000000000E+00 0. -1.
         22    1    3    3    0    0 -0.35702608882E+02  0.22525280166E+02 -0.46507579012E+02  0.62809389689E+02  0.00000000000E+00 0. -1.
</event>
<event>
 7    1  0.6253338E-006  0.5160715E+02  0.7818608E-02  0.1449807E+00
          2   -1    0    0  502    0  0.00000000000E+00  0.00000000000E+00  0.73322111604E+03  0.73322111604E+03  0.00000000000E+00 0. -1.
          1   -1    0    0  501    0 -0.00000000000E+00 -0.00000000000E+00 -0.14187169295E+03  0.14187169295E+03  0.00000000000E+00 0. -1.
         25    2    1    2    0    0  0.42832076139E+02  0.69958522265E+02 -0.10974962721E+02  0.14991358377E+03  0.12499940483E+03 0.  0.
          2    1    1    2  501    0 -0.43028713287E+02 -0.18582427814E+02 -0.51329747599E+02  0.69509134502E+02  0.00000000000E+00 0. -1.
          1    1    1    2  502    0  0.19663714745E+00 -0.51376094451E+02  0.65365413341E+03  0.65567009073E+03  0.00000000000E+00 0. -1.
         22    1    3    3    0    0  0.13075061441E+02  0.34873741750E+02  0.56846863315E+02  0.67961025332E+02  0.00000000000E+00 0.  1.
         22    1    3    3    0    0  0.29757014698E+02  0.35084780515E+02 -0.67821826037E+02  0.81952558438E+02  0.00000000000E+00 0.  1.
</event>
<event>
 7    1  0.6253338E-006  0.2444854E+03  0.7818608E-02  0.1209496E+00
          2   -1    0    0  502    0  0.00000000000E+00  0.00000000000E+00  0.24477959097E+04  0.24477959097E+04  0.00000000000E+00 0. -1.
          1   -1    0    0  501    0 -0.00000000000E+00 -0.00000000000E+00 -0.27297969879E+03  0.27297969879E+03  0.00000000000E+00 0. -1.
         25    2    1    2    0    0 -0.15709250428E+03  0.27076766865E+03  0.54093516937E+03  0.63736079277E+03  0.12499894966E+03 0.  0.
          2    1    1    2  501    0  0.60669544884E+02 -0.57383886725E+02 -0.20933901741E+03  0.22538085176E+03  0.00000000000E+00 0. -1.
          1    1    1    2  502    0  0.96422959393E+02 -0.21338378193E+03  0.18432200590E+04  0.18580339640E+04  0.00000000000E+00 0. -1.
         22    1    3    3    0    0 -0.15871008804E+03  0.28198892518E+03  0.50587588703E+03  0.60051399572E+03  0.00000000000E+00 0. -1.
         22    1    3    3    0    0  0.16175837649E+01 -0.11221256530E+02  0.35059282333E+02  0.36846797053E+02  0.00000000000E+00 0. -1.
</event>
<event>
 7    1  0.6253338E-006  0.6034110E+02  0.7818608E-02  0.1445799E+00
          2   -1    0    0  502    0  0.00000000000E+00  0.00000000000E+00  0.18054841809E+03  0.18054841809E+03  0.00000000000E+00 0. -1.
          1   -1    0    0  501    0 -0.00000000000E+00 -0.00000000000E+00 -0.15052451331E+04  0.15052451331E+04  0.00000000000E+00 0. -1.
         25    2    1    2    0    0  0.30172023296E+02 -0.52828408807E+00 -0.22769911644E+03  0.26150126421E+03  0.12500157392E+03 0.  0.
          2    1    1    2  501    0  0.19339799995E+02  0.36481649841E+02 -0.12545736783E+04  0.12552529836E+04  0.00000000000E+00 0. -1.
          1    1    1    2  502    0 -0.49511823291E+02 -0.35953365753E+02  0.15757607976E+03  0.16903930332E+03  0.00000000000E+00 0. -1.
         22    1    3    3    0    0  0.16829112820E+02  0.58681994567E+01  0.11909792351E+02  0.21435903457E+02  0.00000000000E+00 0.  1.
         22    1    3    3    0    0  0.13342910476E+02 -0.63964835447E+01 -0.23960890879E+03  0.24006536075E+03  0.00000000000E+00 0.  1.
</event>
<event>
 7    1  0.6253338E-006  0.1241186E+03  0.7818608E-02  0.1420384E+00
          2   -1    0    0  502    0  0.00000000000E+00  0.00000000000E+00  0.21834082170E+04  0.21834082170E+04  0.00000000000E+00 0. -1.
          1   -1    0    0  501    0 -0.00000000000E+00 -0.00000000000E+00 -0.49671697214E+02  0.49671697214E+02  0.00000000000E+00 0. -1.
         25    2    1    2    0    0 -0.10476901762E+03 -0.44351311722E+02  0.78816983423E+03  0.80608897461E+03  0.12499664594E+03 0.  0.
          2    1    1    2  501    0  0.10513999700E+03  0.68666891528E+02  0.56511878553E+02  0.13770676592E+03  0.00000000000E+00 0. -1.
          1    1    1    2  502    0 -0.37097938165E+00 -0.24315579806E+02  0.12890548070E+04  0.12892841736E+04  0.00000000000E+00 0. -1.
         22    1    3    3    0    0 -0.68336377519E+02 -0.72497042834E-01  0.68207906381E+03  0.68549377461E+03  0.00000000000E+00 0. -1.
         22    1    3    3    0    0 -0.36432640104E+02 -0.44278814679E+02  0.10609077042E+03  0.12059520000E+03  0.00000000000E+00 0. -1.
</event>
<event>
 7    1  0.6253338E-006  0.1008314E+03  0.7818608E-02  0.1328769E+00
          2   -1    0    0  502    0  0.00000000000E+00  0.00000000000E+00  0.57916886270E+03  0.57916886270E+03  0.00000000000E+00 0. -1.
          1   -1    0    0  501    0 -0.00000000000E+00 -0.00000000000E+00 -0.19161613886E+03  0.19161613886E+03  0.00000000000E+00 0. -1.
         25    2    1    2    0    0  0.69098760328E+01  0.11931587428E+03  0.25193361062E+03  0.30558047696E+03  0.12499943799E+03 0.  0.
          2    1    1    2  501    0  0.48618834528E+02 -0.88244604532E+02 -0.14549788818E+03  0.17697609094E+03  0.00000000000E+00 0. -1.
          1    1    1    2  502    0 -0.55528710561E+02 -0.31071269748E+02  0.28111700139E+03  0.28822843366E+03  0.00000000000E+00 0. -1.
         22    1    3    3    0    0  0.15463280660E+00  0.56074013777E+02  0.23236700821E+03  0.23903712146E+03  0.00000000000E+00 0.  1.
         22    1    3    3    0    0  0.67552432262E+01  0.63241860503E+02  0.19566602406E+02  0.66543355496E+02  0.00000000000E+00 0.  1.
</event>
<event>
 7    1  0.6253338E-006  0.1138842E+03  0.7818608E-02  0.1278826E+00
          2   -1    0    0  502    0  0.00000000000E+00  0.00000000000E+00  0.17065564196E+04  0.17065564196E+04  0.00000000000E+00 0. -1.
          1   -1    0    0  501    0 -0.00000000000E+00 -0.00000000000E+00 -0.37773353946E+04  0.37773353946E+04  0.00000000000E+00 0. -1.
         25    2    1    2    0    0 -0.20217335229E+03 -0.15796738918E+02  0.73124923565E+03  0.76907406347E+03  0.12500347649E+03 0.  0.
          2    1    1    2  501    0  0.11357221427E+03  0.69082655817E+01 -0.37554868079E+04  0.37572100735E+04  0.00000000000E+00 0. -1.
          1    1    1    2  502    0  0.88601138016E+02  0.88884733361E+01  0.95345859729E+03  0.95760767717E+03  0.00000000000E+00 0. -1.
         22    1    3    3    0    0 -0.13819697207E+03  0.46156253922E+02  0.51475724987E+03  0.53498021380E+03  0.00000000000E+00 0.  1.
         22    1    3    3    0    0 -0.63976380220E+02 -0.61952992840E+02  0.21649198578E+03  0.23409384967E+03  0.00000000000E+00 0.  1.
</event>
<event>
 7    1  0.6253338E-006  0.1199282E+03  0.7818608E-02  0.1362101E+00
          2   -1    0    0  502    0  0.00000000000E+00  0.00000000000E+00  0.20036211763E+04  0.20036211763E+04  0.00000000000E+00 0. -1.
          1   -1    0    0  501    0 -0.00000000000E+00 -0.00000000000E+00 -0.56423783817E+03  0.56423783817E+03  0.00000000000E+00 0. -1.
         25    2    1    2    0    0  0.97136225765E+02 -0.62886706939E+02  0.87213112377E+01  0.17055219000E+03  0.12498721526E+03 0.  0.
          2    1    1    2  501    0 -0.73828330171E+02  0.95609504644E+02 -0.47555978177E+03  0.49066170194E+03  0.00000000000E+00 0. -1.
          1    1    1    2  502    0 -0.23307895594E+02 -0.32722797705E+02  0.19062218087E+04  0.19066451226E+04  0.00000000000E+00 0. -1.
         22    1    3    3    0    0  0.11243727615E+03 -0.43891579925E+02 -0.30381709293E+02  0.12446549770E+03  0.00000000000E+00 0. -1.
         22    1    3    3    0    0 -0.15301050388E+02 -0.18995127014E+02  0.39103020531E+02  0.46086692308E+02  0.00000000000E+00 0. -1.
</event>
<event>
 7    1  0.6253338E-006  0.1223002E+03  0.7818608E-02  0.1267415E+00
          2   -1    0    0  502    0  0.00000000000E+00  0.00000000000E+00  0.19497701194E+03  0.19497701194E+03  0.00000000000E+00 0. -1.
          1   -1    0    0  501    0 -0.00000000000E+00 -0.00000000000E+00 -0.41211279380E+03  0.41211279380E+03  0.00000000000E+00 0. -1.
         25    2    1    2    0    0 -0.28994323305E+02  0.40643399997E+02 -0.19873089866E+02  0.13605873218E+03  0.12499792860E+03 0.  0.
          2    1    1    2  501    0  0.73754614675E+02 -0.12163913228E+03 -0.30045083029E+03  0.33242521431E+03  0.00000000000E+00 0. -1.
          1    1    1    2  502    0 -0.44760291370E+02  0.80995732282E+02  0.10318813830E+03  0.13860585924E+03  0.00000000000E+00 0. -1.
         22    1    3    3    0    0 -0.59458751393E+01 -0.26247959770E+02  0.36672203438E+02  0.45488013017E+02  0.00000000000E+00 0. -1.
         22    1    3    3    0    0 -0.23048448165E+02  0.66891359767E+02 -0.56545293304E+02  0.90570719160E+02  0.00000000000E+00 0. -1.
</event>
<event>
 7    1  0.6253338E-006  0.5655948E+02  0.7818608E-02  0.1490591E+00
          2   -1    0    0  502    0  0.00000000000E+00  0.00000000000E+00  0.30748505442E+04  0.30748505442E+04  0.00000000000E+00 0. -1.
          1   -1    0    0  501    0 -0.00000000000E+00 -0.00000000000E+00 -0.43840575370E+02  0.43840575370E+02  0.00000000000E+00 0. -1.
         25    2    1    2    0    0  0.68911855832E+02 -0.43434631098E+01  0.22815037388E+03  0.26915767859E+03  0.12500221316E+03 0.  0.
          2    1    1    2  501    0 -0.20386619330E+02 -0.24578777498E+02 -0.11995234968E+02  0.34111819256E+02  0.00000000000E+00 0. -1.
          1    1    1    2  502    0 -0.48525236502E+02  0.28922240607E+02  0.28148548299E+04  0.28154216217E+04  0.00000000000E+00 0. -1.
         22    1    3    3    0    0  0.49630266016E+02 -0.63887413144E+01  0.24084074654E+03  0.24598423631E+03  0.00000000000E+00 0. -1.
         22    1    3    3    0    0  0.19281589816E+02  0.20452782046E+01 -0.12690372657E+02  0.23173442277E+02  0.00000000000E+00 0. -1.
</event>
<event>
 7    1  0.6253338E-006  0.6678191E+02  0.7818608E-02  0.1457153E+00
          2   -1    0    0  502    0  0.00000000000E+00  0.00000000000E+00  0.16341759839E+03  0.16341759839E+03  0.00000000000E+00 0. -1.
          1   -1    0    0  501    0 -0.00000000000E+00 -0.00000000000E+00 -0.66539986030E+03  0.66539986030E+03  0.00000000000E+00 0. -1.
         25    2    1    2    0    0 -0.55498664295E+02  0.73351862069E+01 -0.46414337207E+03  0.48392410966E+03  0.12497826764E+03 0.  0.
          2    1    1    2  501    0  0.66964493203E+02 -0.39683932773E+02 -0.18134247691E+03  0.19734272675E+03  0.00000000000E+00 0. -1.
          1    1    1    2  502    0 -0.11465828909E+02  0.32348746566E+02  0.14350358706E+03  0.14755062228E+03  0.00000000000E+00 0. -1.
         22    1    3    3    0    0  0.29531858223E+01  0.55519427079E+02 -0.13161085369E+03  0.14287247775E+03  0.00000000000E+00 0. -1.
         22    1    3    3    0    0 -0.58451850117E+02 -0.48184240872E+02 -0.33253251838E+03  0.34105163191E+03  0.00000000000E+00 0. -1.
</event>
<event>
 7    1  0.6253338E-006  0.9639443E+02  0.7818608E-02  0.1442482E+00
          2   -1    0    0  502    0  0.00000000000E+00  0.00000000000E+00  0.97343091149E+03  0.97343091149E+03  0.00000000000E+00 0. -1.
          1   -1    0    0  501    0 -0.00000000000E+00 -0.00000000000E+00 -0.70268161419E+02  0.70268161419E+02  0.00000000000E+00 0. -1.
         25    2    1    2    0    0 -0.55949729143E+02 -0.57318023288E+02  0.56775877473E+03  0.58684783126E+03  0.12499849110E+03 0.  0.
          2    1    1    2  501    0  0.82070916316E+02  0.52900148921E+02 -0.20658995094E+02  0.99804083780E+02  0.00000000000E+00 0. -1.
          1    1    1    2  502    0 -0.26121187173E+02  0.44178743675E+01  0.35606297043E+03  0.35704715787E+03  0.00000000000E+00 0. -1.
         22    1    3    3    0    0 -0.51857650166E+02 -0.15980831911E+02  0.76254842768E+02  0.93591687211E+02  0.00000000000E+00 0. -1.
         22    1    3    3    0    0 -0.40920789773E+01 -0.41337191377E+02  0.49150393197E+03  0.49325614405E+03  0.00000000000E+00 0. -1.
</event>
<event>
 7    1  0.6253338E-006  0.1208557E+03  0.7818608E-02  0.1313876E+00
          2   -1    0    0  502    0  0.00000000000E+00  0.00000000000E+00  0.12051442827E+04  0.12051442827E+04  0.00000000000E+00 0. -1.
          1   -1    0    0  501    0 -0.00000000000E+00 -0.00000000000E+00 -0.81328372816E+02  0.81328372816E+02  0.00000000000E+00 0. -1.
         25    2    1    2    0    0  0.93044496938E+01  0.71112815909E+02  0.53943485381E+03  0.55835349610E+03  0.12500023895E+03 0.  0.
          2    1    1    2  501    0  0.18915358007E+02 -0.12477077637E+03 -0.13732001261E+02  0.12694134576E+03  0.00000000000E+00 0. -1.
          1    1    1    2  502    0 -0.28219807701E+02  0.53657960465E+02  0.59811305732E+03  0.60117781363E+03  0.00000000000E+00 0. -1.
         22    1    3    3    0    0 -0.42473611225E+02  0.19405744651E+02  0.38082833991E+03  0.38368061595E+03  0.00000000000E+00 0.  1.
         22    1    3    3    0    0  0.51778060919E+02  0.51707071259E+02  0.15860651390E+03  0.17467288016E+03  0.00000000000E+00 0.  1.
</event>
<event>
 7    1  0.6253338E-006  0.7314306E+02  0.7818608E-02  0.1363804E+00
          2   -1    0    0  502    0  0.00000000000E+00  0.00000000000E+00  0.10424697038E+04  0.10424697038E+04  0.00000000000E+00 0. -1.
          1   -1    0    0  501    0 -0.00000000000E+00 -0.00000000000E+00 -0.10942578522E+03  0.10942578522E+03  0.00000000000E+00 0. -1.
         25    2    1    2    0    0 -0.25799169261E+02 -0.31451334805E+02  0.19162091613E+03  0.23237501818E+03  0.12499915993E+03 0.  0.
          2    1    1    2  501    0 -0.51448078788E+02  0.39628907195E+02 -0.75115174521E+02  0.99295742808E+02  0.00000000000E+00 0. -1.
          1    1    1    2  502    0  0.77247248049E+02 -0.81775723906E+01  0.81653817699E+03  0.82022472805E+03  0.00000000000E+00 0. -1.
         22    1    3    3    0    0 -0.33451695715E+02  0.35355469046E+02  0.29630695698E+02  0.56982482091E+02  0.00000000000E+00 0.  1.
         22    1    3    3    0    0  0.76525264544E+01 -0.66806803851E+02  0.16199022043E+03  0.17539253609E+03  0.00000000000E+00 0.  1.
</event>
<event>
 7    1  0.6253338E-006  0.8139173E+02  0.7818608E-02  0.1326649E+00
          2   -1    0    0  502    0  0.00000000000E+00  0.00000000000E+00  0.17533440777E+04  0.17533440777E+04  0.00000000000E+00 0. -1.
          1   -1    0    0  501    0 -0.00000000000E+00 -0.00000000000E+00 -0.20714322326E+04  0.20714322326E+04  0.00000000000E+00 0. -1.
         25    2    1    2    0    0 -0.15511982352E+03 -0.28823254648E+02 -0.89043427158E+02  0.22009856945E+03  0.12498683409E+03 0.  0.
          2    1    1    2  501    0  0.80440817248E+02 -0.73896780084E+00 -0.19150608352E+04  0.19167496638E+04  0.00000000000E+00 0. -1.
          1    1    1    2  502    0  0.74679006269E+02  0.29562222449E+02  0.16860161074E+04  0.16879280771E+04  0.00000000000E+00 0. -1.
         22    1    3    3    0    0 -0.46314470614E+02 -0.69636142222E+02 -0.50348423246E+02  0.97617550754E+02  0.00000000000E+00 0.  1.
         22    1    3    3    0    0 -0.10880535290E+03  0.40812887574E+02 -0.38695003911E+02  0.12248101869E+03  0.00000000000E+00 0.  1.
</event>
<event>
 7    1  0.6253338E-006  0.9891587E+02  0.7818608E-02  0.1327219E+00
          2   -1    0    0  502    0  0.00000000000E+00  0.00000000000E+00  0.76285091387E+03  0.76285091387E+03  0.00000000000E+00 0. -1.
          1   -1    0    0  501    0 -0.00000000000E+00 -0.00000000000E+00 -0.73811822592E+03  0.73811822592E+03  0.00000000000E+00 0. -1.
         25    2    1    2    0    0  0.13835764894E+03  0.12123415583E+01 -0.58682421735E+03  0.61573689124E+03  0.12499979350E+03 0.  0.
          2    1    1    2  501    0 -0.49925866308E+02  0.42792693821E+02 -0.12544843331E+03  0.14163726978E+03  0.00000000000E+00 0. -1.
          1    1    1    2  502    0 -0.88431782628E+02 -0.44005035379E+02  0.73700533861E+03  0.74359497877E+03  0.00000000000E+00 0. -1.
         22    1    3    3    0    0  0.99807134937E+00 -0.37973799332E+02 -0.71277822646E+02  0.80768394705E+02  0.00000000000E+00 0.  1.
         22    1    3    3    0    0  0.13735957759E+03  0.39186140890E+02 -0.51554639471E+03  0.53496849654E+03  0.00000000000E+00 0.  1.
</event>
<event>
 7    1  0.6253338E-006  0.2264956E+03  0.7818608E-02  0.1193451E+00
          2   -1    0    0  502    0  0.00000000000E+00  0.00000000000E+00  0.35312431269E+03  0.35312431269E+03  0.00000000000E+00 0. -1.
          1   -1    0    0  501    0 -0.00000000000E+00 -0.00000000000E+00 -0.14448504719E+04  0.14448504719E+04  0.00000000000E+00 0. -1.
         25    2    1    2    0    0 -0.29122853761E+03 -0.37189584868E+02 -0.14330298667E+02  0.31941687664E+03  0.12499862911E+03 0.  0.
          2    1    1    2  501    0  0.99375541901E+02 -0.40348425632E+02 -0.12216250822E+04  0.12263243189E+04  0.00000000000E+00 0. -1.
          1    1    1    2  502    0  0.19185299571E+03  0.77538010500E+02  0.14422922166E+03  0.25223358899E+03  0.00000000000E+00 0. -1.
         22    1    3    3    0    0 -0.28108634847E+03 -0.65433895890E+02 -0.78156992339E+01  0.28870783707E+03  0.00000000000E+00 0. -1.
         22    1    3    3    0    0 -0.10142189135E+02  0.28244311022E+02 -0.65145994329E+01  0.30709039570E+02  0.00000000000E+00 0. -1.
</event>
<event>
 7    1  0.6253338E-006  0.1179722E+03  0.7818608E-02  0.1304790E+00
          2   -1    0    0  502    0  0.00000000000E+00  0.00000000000E+00  0.74813688975E+03  0.74813688975E+03  0.00000000000E+00 0. -1.
          1   -1    0    0  501    0 -0.00000000000E+00 -0.00000000000E+00 -0.73525267290E+03  0.73525267290E+03  0.00000000000E+00 0. -1.
         25    2    1    2    0    0  0.34898604805E+02 -0.55012875152E+02 -0.13046158730E+03  0.19206573026E+03  0.12499875972E+03 0.  0.
          2    1    1    2  501    0 -0.51883864598E+02  0.12029120233E+03 -0.56489085529E+03  0.57988239079E+03  0.00000000000E+00 0. -1.
          1    1    1    2  502    0  0.16985259793E+02 -0.65278327183E+02  0.70823665944E+03  0.71144144160E+03  0.00000000000E+00 0. -1.
         22    1    3    3    0    0  0.25891888654E+02 -0.77870026144E+02 -0.28011091652E+02  0.86710738235E+02  0.00000000000E+00 0.  1.
         22    1    3    3    0    0  0.90067161510E+01  0.22857150992E+02 -0.10245049564E+03  0.10535499203E+03  0.00000000000E+00 0.  1.
</event>
<event>
 7    1  0.6253338E-006  0.1595730E+03  0.7818608E-02  0.1214721E+00
          2   -1    0    0  502    0  0.00000000000E+00  0.00000000000E+00  0.87808778464E+03  0.87808778464E+03  0.00000000000E+00 0. -1.
          1   -1    0    0  501    0 -0.00000000000E+00 -0.00000000000E+00 -0.46852267360E+03  0.46852267360E+03  0.00000000000E+00 0. -1.
         25    2    1    2    0    0 -0.10150839930E+03 -0.46631613780E+02  0.44515828631E+03  0.47567736095E+03  0.12499835725E+03 0.  0.
          2    1    1    2  501    0  0.47804296257E+02  0.15509130212E+03 -0.42934853395E+03  0.45899752324E+03  0.00000000000E+00 0. -1.
          1    1    1    2  502    0  0.53704103044E+02 -0.10845968834E+03  0.39375535868E+03  0.41193557405E+03  0.00000000000E+00 0. -1.
         22    1    3    3    0    0  0.28439846712E+02  0.24755327096E+01  0.84364294378E+02  0.89063389275E+02  0.00000000000E+00 0. -1.
         22    1    3    3    0    0 -0.12994824601E+03 -0.49107146489E+02  0.36079399193E+03  0.38661397167E+03  0.00000000000E+00 0. -1.
</event>
<event>
 7    1  0.6253338E-006  0.1393358E+03  0.7818608E-02  0.1313087E+00
          2   -1    0    0  502    0  0.00000000000E+00  0.00000000000E+00  0.12037115973E+04  0.12037115973E+04  0.00000000000E+00 0. -1.
          1   -1    0    0  501    0 -0.00000000000E+00 -0.00000000000E+00 -0.14019431996E+03  0.14019431996E+03  0.00000000000E+00 0. -1.
         25    2    1    2    0    0 -0.14387762835E+03  0.77385715548E+02  0.18360799045E+03  0.27572745619E+03  0.12499766010E+03 0.  0.
          2    1    1    2  501    0  0.48374526068E+02  0.21559349681E+02 -0.81383765641E+02  0.97099009474E+02  0.00000000000E+00 0. -1.
          1    1    1    2  502    0  0.95503102282E+02 -0.98945065229E+02  0.96129305250E+03  0.97107945157E+03  0.00000000000E+00 0. -1.
         22    1    3    3    0    0 -0.10315330146E+02  0.22070025360E+02  0.11158943666E+03  0.11421775007E+03  0.00000000000E+00 0.  1.
         22    1    3    3    0    0 -0.13356229820E+03  0.55315690188E+02  0.72018553784E+02  0.16150970612E+03  0.00000000000E+00 0.  1.
</event>
<event>
 7    1  0.6792241E-006  0.5390752E+02  0.7818608E-02  0.1523602E+00
          2   -1    0    0  502    0  0.00000000000E+00  0.00000000000E+00  0.16576608465E+04  0.16576608465E+04  0.00000000000E+00 0. -1.
          1   -1    0    0  501    0 -0.00000000000E+00 -0.00000000000E+00 -0.64024878224E+03  0.64024878224E+03  0.00000000000E+00 0. -1.
         25    2    1    2    0    0 -0.38048324224E+02  0.68917166720E+02 -0.25331528378E+03  0.29324511845E+03  0.12500726240E+03 0.  0.
          2    1    1    2  501    0  0.51476655190E+01 -0.26262856731E+02 -0.36603694149E+03  0.36701400333E+03  0.00000000000E+00 0. -1.
          1    1    1    2  502    0  0.32900658705E+02 -0.42654309989E+02  0.16367642895E+04  0.16376505069E+04  0.00000000000E+00 0. -1.
         22    1    3    3    0    0 -0.12901538847E+02 -0.19366244332E+02 -0.16236235820E+03  0.16402145129E+03  0.00000000000E+00 0.  1.
         22    1    3    3    0    0 -0.25146785377E+02  0.88283411053E+02 -0.90952925576E+02  0.12922366715E+03  0.00000000000E+00 0.  1.
</event>
<event>
 7    1  0.6253338E-006  0.7210296E+02  0.7818608E-02  0.1383211E+00
          2   -1    0    0  502    0  0.00000000000E+00  0.00000000000E+00  0.25831278750E+04  0.25831278750E+04  0.00000000000E+00 0. -1.
          1   -1    0    0  501    0 -0.00000000000E+00 -0.00000000000E+00 -0.93840659659E+03  0.93840659659E+03  0.00000000000E+00 0. -1.
         25    2    1    2    0    0 -0.82944006223E+02  0.89103231503E+02  0.11910373539E+04  0.12037508086E+04  0.12500774640E+03 0.  0.
          2    1    1    2  501    0  0.41766121461E+02 -0.37525664823E+02 -0.93041722934E+03  0.93210986750E+03  0.00000000000E+00 0. -1.
          1    1    1    2  502    0  0.41177884762E+02 -0.51577566679E+02  0.13841011539E+04  0.13856737956E+04  0.00000000000E+00 0. -1.
         22    1    3    3    0    0 -0.61112305589E+02  0.48160651977E+00  0.21685193949E+03  0.22529915557E+03  0.00000000000E+00 0.  1.
         22    1    3    3    0    0 -0.21831700635E+02  0.88621624983E+02  0.97418541442E+03  0.97845165299E+03  0.00000000000E+00 0.  1.
</event>
<event>
 7    1  0.6253338E-006  0.6298548E+02  0.7818608E-02  0.1404100E+00
          2   -1    0    0  502    0  0.00000000000E+00  0.00000000000E+00  0.21179618923E+03  0.21179618923E+03  0.00000000000E+00 0. -1.
          1   -1    0    0  501    0 -0.00000000000E+00 -0.00000000000E+00 -0.16439214450E+03  0.16439214450E+03  0.00000000000E+00 0. -1.
         25    2    1    2    0    0  0.25767001982E+02 -0.63219540667E+02 -0.31709330191E+02  0.14591846363E+03  0.12500427070E+03 0.  0.
          2    1    1    2  501    0 -0.62347964737E+02  0.22965630626E+02 -0.54547258568E+02  0.85965646127E+02  0.00000000000E+00 0. -1.
          1    1    1    2  502    0  0.36580962755E+02  0.40253910041E+02  0.13366063349E+03  0.14430422397E+03  0.00000000000E+00 0. -1.
         22    1    3    3    0    0  0.13206768119E+02 -0.70426744828E+02 -0.72922492330E+02  0.10223519452E+03  0.00000000000E+00 0. -1.
         22    1    3    3    0    0  0.12560233863E+02  0.72072041616E+01  0.41213162139E+02  0.43683269108E+02  0.00000000000E+00 0. -1.
</event>
<event>
 7    1  0.6253338E-006  0.1344262E+03  0.7818608E-02  0.1331420E+00
          2   -1    0    0  502    0  0.00000000000E+00  0.00000000000E+00  0.31302202836E+04  0.31302202836E+04  0.00000000000E+00 0. -1.
          1   -1    0    0  501    0 -0.00000000000E+00 -0.00000000000E+00 -0.26775336819E+02  0.26775336819E+02  0.00000000000E+00 0. -1.
         25    2    1    2    0    0 -0.12727481016E+03 -0.72177748721E+02  0.20883155330E+04  0.20971636415E+04  0.12500027670E+03 0.  0.
          2    1    1    2  501    0  0.89550303312E+02  0.99583636876E+02  0.18496892186E+03  0.22836299965E+03  0.00000000000E+00 0. -1.
          1    1    1    2  502    0  0.37724506852E+02 -0.27405888156E+02  0.83016049197E+03  0.83146897931E+03  0.00000000000E+00 0. -1.
         22    1    3    3    0    0 -0.20347940971E+02  0.10630094881E+02  0.10282018508E+04  0.10284581098E+04  0.00000000000E+00 0. -1.
         22    1    3    3    0    0 -0.10692686919E+03 -0.82807843602E+02  0.10601136821E+04  0.10687055317E+04  0.00000000000E+00 0. -1.
</event>
<event>
 7    1  0.6253338E-006  0.4526876E+02  0.7818608E-02  0.1500238E+00
          2   -1    0    0  502    0  0.00000000000E+00  0.00000000000E+00  0.10269401275E+04  0.10269401275E+04  0.00000000000E+00 0. -1.
          1   -1    0    0  501    0 -0.00000000000E+00 -0.00000000000E+00 -0.27422309901E+02  0.27422309901E+02  0.00000000000E+00 0. -1.
         25    2    1    2    0    0  0.13546215709E+01 -0.24194341868E+02  0.23333678801E+03  0.26582791706E+03  0.12502489220E+03 0.  0.
          2    1    1    2  501    0 -0.36367489921E+02  0.37121517116E+02  0.52473203424E+02  0.73851461961E+02  0.00000000000E+00 0. -1.
          1    1    1    2  502    0  0.35012868350E+02 -0.12927175248E+02  0.71370782617E+03  0.71468305838E+03  0.00000000000E+00 0. -1.
         22    1    3    3    0    0  0.57236803414E+02 -0.28319770722E+02  0.78686489523E+02  0.10133915686E+03  0.00000000000E+00 0. -1.
         22    1    3    3    0    0 -0.55882181843E+02  0.41254288541E+01  0.15465029849E+03  0.16448876020E+03  0.00000000000E+00 0. -1.
</event>
<event>
 7    1  0.6253338E-006  0.5257433E+02  0.7818608E-02  0.1494917E+00
          2   -1    0    0  502    0  0.00000000000E+00  0.00000000000E+00  0.27568738256E+03  0.27568738256E+03  0.00000000000E+00 0. -1.
          1   -1    0    0  501    0 -0.00000000000E+00 -0.00000000000E+00 -0.16791397844E+03  0.16791397844E+03  0.00000000000E+00 0. -1.
         25    2    1    2    0    0  0.90647675383E+01  0.23977361594E+02  0.36894426562E+02  0.13282542380E+03  0.12499724244E+03 0.  0.
          2    1    1    2  501    0  0.41061736361E+01 -0.54602799137E+02 -0.11211386726E+03  0.12477117282E+03  0.00000000000E+00 0. -1.
          1    1    1    2  502    0 -0.13170941174E+02  0.30625437543E+02  0.18299284482E+03  0.18600476438E+03  0.00000000000E+00 0. -1.
         22    1    3    3    0    0 -0.55355278879E+02 -0.83452662213E+00  0.31224140879E+02  0.63559816772E+02  0.00000000000E+00 0.  1.
         22    1    3    3    0    0  0.64420046418E+02  0.24811888216E+02  0.56702856837E+01  0.69265607028E+02  0.00000000000E+00 0.  1.
</event>
<event>
 7    1  0.6253338E-006  0.1477385E+03  0.7818608E-02  0.1371700E+00
          2   -1    0    0  502    0  0.00000000000E+00  0.00000000000E+00  0.14278424705E+03  0.14278424705E+03  0.00000000000E+00 0. -1.
          1   -1    0    0  501    0 -0.00000000000E+00 -0.00000000000E+00 -0.64645372343E+03  0.64645372343E+03  0.00000000000E+00 0. -1.
         25    2    1    2    0    0 -0.48059865546E+02 -0.11973822636E+03 -0.15358809126E+03  0.23634777585E+03  0.12499590330E+03 0.  0.
          2    1    1    2  501    0  0.39824554078E+02  0.14870060641E+03 -0.43571889014E+03  0.46211342404E+03  0.00000000000E+00 0. -1.
          1    1    1    2  502    0  0.82353114673E+01 -0.28962380053E+02  0.85637505022E+02  0.90776770595E+02  0.00000000000E+00 0. -1.
         22    1    3    3    0    0  0.51685072890E+01 -0.42644582878E+02  0.13294879855E+02  0.44966962837E+02  0.00000000000E+00 0. -1.
         22    1    3    3    0    0 -0.53228372835E+02 -0.77093643483E+02 -0.16688297111E+03  0.19138081301E+03  0.00000000000E+00 0. -1.
</event>
<event>
 7    1  0.6281214E-006  0.7722911E+02  0.7818608E-02  0.1340983E+00
          2   -1    0    0  502    0  0.00000000000E+00  0.00000000000E+00  0.27840978894E+04  0.27840978894E+04  0.00000000000E+00 0. -1.
          1   -1    0    0  501    0 -0.00000000000E+00 -0.00000000000E+00 -0.35144592299E+03  0.35144592299E+03  0.00000000000E+00 0. -1.
         25    2    1    2    0    0 -0.35732239422E+02 -0.13505147374E+03  0.43689458671E+02  0.19248086765E+03  0.12499768846E+03 0.  0.
          2    1    1    2  501    0 -0.79520563024E+01  0.74488788760E+02 -0.27145283809E+03  0.28159981917E+03  0.00000000000E+00 0. -1.
          1    1    1    2  502    0  0.43684295725E+02  0.60562684975E+02  0.26604153458E+04  0.26614631256E+04  0.00000000000E+00 0. -1.
         22    1    3    3    0    0  0.11367784539E+02 -0.13924519529E+03  0.38464236454E+02  0.14490668868E+03  0.00000000000E+00 0.  1.
         22    1    3    3    0    0 -0.47100023961E+02  0.41937215564E+01  0.52252222174E+01  0.47574178972E+02  0.00000000000E+00 0.  1.
</event>
<event>
 7    1  0.6253338E-006  0.6087047E+02  0.7818608E-02  0.1513408E+00
          2   -1    0    0  502    0  0.00000000000E+00  0.00000000000E+00  0.37566167439E+04  0.37566167439E+04  0.00000000000E+00 0. -1.
          1   -1    0    0  501    0 -0.00000000000E+00 -0.00000000000E+00 -0.92941600548E+01  0.92941600548E+01  0.00000000000E+00 0. -1.
         25    2    1    2    0    0  0.40584234500E+02 -0.25601879861E+02  0.64674215349E+03  0.66045413895E+03  0.12498688015E+03 0.  0.
          2    1    1    2  501    0  0.20186047038E+02  0.15378472657E+02  0.73653025960E+02  0.77902131866E+02  0.00000000000E+00 0. -1.
          1    1    1    2  502    0 -0.60770281538E+02  0.10223407203E+02  0.30269274044E+04  0.30275546332E+04  0.00000000000E+00 0. -1.
         22    1    3    3    0    0 -0.30516689087E+02 -0.45119740116E+02  0.37299738270E+03  0.37695371965E+03  0.00000000000E+00 0. -1.
         22    1    3    3    0    0  0.71100923588E+02  0.19517860255E+02  0.27374477079E+03  0.28350041929E+03  0.00000000000E+00 0. -1.
</event>
<event>
 7    1  0.6253338E-006  0.5635160E+02  0.7818608E-02  0.1545035E+00
          2   -1    0    0  502    0  0.00000000000E+00  0.00000000000E+00  0.25001000989E+03  0.25001000989E+03  0.00000000000E+00 0. -1.
          1   -1    0    0  501    0 -0.00000000000E+00 -0.00000000000E+00 -0.59815151053E+03  0.59815151053E+03  0.00000000000E+00 0. -1.
         25    2    1    2    0    0 -0.50025169779E+02 -0.57872219757E+02 -0.37760341402E+03  0.40504452607E+03  0.12500007354E+03 0.  0.
          2    1    1    2  501    0  0.19500733009E+02  0.10701682713E+02 -0.20287102205E+03  0.20408688392E+03  0.00000000000E+00 0. -1.
          1    1    1    2  502    0  0.30524436769E+02  0.47170537044E+02  0.23233293543E+03  0.23903011043E+03  0.00000000000E+00 0. -1.
         22    1    3    3    0    0 -0.78334305602E+02 -0.77355632150E+02 -0.25577516463E+03  0.27846201195E+03  0.00000000000E+00 0. -1.
         22    1    3    3    0    0  0.28309135823E+02  0.19483412393E+02 -0.12182824939E+03  0.12658251411E+03  0.00000000000E+00 0. -1.
</event>
<event>
 7    1  0.6253338E-006  0.5572768E+02  0.7818608E-02  0.1430883E+00
          2   -1    0    0  502    0  0.00000000000E+00  0.00000000000E+00  0.11605916363E+04  0.11605916363E+04  0.00000000000E+00 0. -1.
          1   -1    0    0  501    0 -0.00000000000E+00 -0.00000000000E+00 -0.16702153611E+03  0.16702153611E+03  0.00000000000E+00 0. -1.
         25    2    1    2    0    0  0.56736640950E+02  0.19760837997E+02  0.55894856484E+03  0.57589652212E+03  0.12499507551E+03 0.  0.
          2    1    1    2  501    0 -0.67782137169E+01 -0.49532777786E+02 -0.15313529914E+03  0.16108960270E+03  0.00000000000E+00 0. -1.
          1    1    1    2  502    0 -0.49958427234E+02  0.29771939789E+02  0.58775683450E+03  0.59062704760E+03  0.00000000000E+00 0. -1.
         22    1    3    3    0    0  0.78633643432E+02  0.55755148330E+02  0.37604586469E+03  0.38820404274E+03  0.00000000000E+00 0.  1.
         22    1    3    3    0    0 -0.21897002481E+02 -0.35994310333E+02  0.18290270015E+03  0.18769247938E+03  0.00000000000E+00 0.  1.
</event>
<event>
 7    1  0.6253338E-006  0.1590193E+03  0.7818608E-02  0.1312142E+00
          2   -1    0    0  502    0  0.00000000000E+00  0.00000000000E+00  0.12427159618E+03  0.12427159618E+03  0.00000000000E+00 0. -1.
          1   -1    0    0  501    0 -0.00000000000E+00 -0.00000000000E+00 -0.17090780536E+04  0.17090780536E+04  0.00000000000E+00 0. -1.
         25    2    1    2    0    0  0.12048362768E+03 -0.46844199217E+02 -0.31813867497E+03  0.36543816817E+03  0.12498861831E+03 0.  0.
          2    1    1    2  501    0  0.18391091742E+02 -0.43038641473E+02 -0.12985920050E+04  0.12994351666E+04  0.00000000000E+00 0. -1.
          1    1    1    2  502    0 -0.13887471942E+03  0.89882840691E+02  0.31924222463E+02  0.16847631502E+03  0.00000000000E+00 0. -1.
         22    1    3    3    0    0  0.13714305753E+03 -0.32350898836E+02 -0.31227141014E+03  0.34259047341E+03  0.00000000000E+00 0. -1.
         22    1    3    3    0    0 -0.16659429857E+02 -0.14493300382E+02 -0.58672648311E+01  0.22847694757E+02  0.00000000000E+00 0. -1.
</event>
<event>
 7    1  0.7417425E-006  0.8054886E+02  0.7818608E-02  0.1394022E+00
          2   -1    0    0  502    0  0.00000000000E+00  0.00000000000E+00  0.74792120119E+03  0.74792120119E+03  0.00000000000E+00 0. -1.
          1   -1    0    0  501    0 -0.00000000000E+00 -0.00000000000E+00 -0.14408415334E+04  0.14408415334E+04  0.00000000000E+00 0. -1.
         25    2    1    2    0    0 -0.38035988637E+02 -0.92206034078E+02 -0.51345609938E+03  0.53778328747E+03  0.12500003656E+03 0.  0.
          2    1    1    2  501    0  0.44493255601E+02  0.11951605450E+02 -0.91243627273E+03  0.91359862219E+03  0.00000000000E+00 0. -1.
          1    1    1    2  502    0 -0.64572669636E+01  0.80254428628E+02  0.73297203994E+03  0.73738082491E+03  0.00000000000E+00 0. -1.
         22    1    3    3    0    0 -0.67889788886E+02 -0.27621063394E+02 -0.37521392095E+03  0.38230541855E+03  0.00000000000E+00 0.  1.
         22    1    3    3    0    0  0.29853800248E+02 -0.64584970684E+02 -0.13824217844E+03  0.15547786893E+03  0.00000000000E+00 0.  1.
</event>
<event>
 7    1  0.6253338E-006  0.6442420E+02  0.7818608E-02  0.1381486E+00
          2   -1    0    0  502    0  0.00000000000E+00  0.00000000000E+00  0.22543097611E+03  0.22543097611E+03  0.00000000000E+00 0. -1.
          1   -1    0    0  501    0 -0.00000000000E+00 -0.00000000000E+00 -0.53719530516E+03  0.53719530516E+03  0.00000000000E+00 0. -1.
         25    2    1    2    0    0  0.36295363679E+01 -0.25660073508E+01 -0.29210361683E+03  0.31775594012E+03  0.12499822634E+03 0.  0.
          2    1    1    2  501    0 -0.34836319154E+02 -0.54193255472E+02 -0.22265730563E+03  0.23179032297E+03  0.00000000000E+00 0. -1.
          1    1    1    2  502    0  0.31206782786E+02  0.56759262822E+02  0.20299659342E+03  0.21308001818E+03  0.00000000000E+00 0. -1.
         22    1    3    3    0    0  0.20812131217E+02 -0.57377749282E+02 -0.99121071359E+02  0.11640591783E+03  0.00000000000E+00 0. -1.
         22    1    3    3    0    0 -0.17182594849E+02  0.54811741932E+02 -0.19298254547E+03  0.20135002229E+03  0.00000000000E+00 0. -1.
</event>
<event>
 7    1  0.6253338E-006  0.4635673E+02  0.7818608E-02  0.1471341E+00
          2   -1    0    0  502    0  0.00000000000E+00  0.00000000000E+00  0.26894527705E+04  0.26894527705E+04  0.00000000000E+00 0. -1.
          1   -1    0    0  501    0 -0.00000000000E+00 -0.00000000000E+00 -0.64235521575E+02  0.64235521575E+02  0.00000000000E+00 0. -1.
         25    2    1    2    0    0  0.86249469039E+02  0.20493578726E+02  0.79043584588E+03  0.80515351298E+03  0.12499758130E+03 0.  0.
          2    1    1    2  501    0 -0.44418749797E+02 -0.43178249695E+01 -0.47813982244E+02  0.65405243245E+02  0.00000000000E+00 0. -1.
          1    1    1    2  502    0 -0.41830719242E+02 -0.16175753757E+02  0.18825953853E+04  0.18831295359E+04  0.00000000000E+00 0. -1.
         22    1    3    3    0    0  0.49144049538E+02 -0.51714518455E+02  0.33110767029E+03  0.33870609435E+03  0.00000000000E+00 0. -1.
         22    1    3    3    0    0  0.37105419500E+02  0.72208097181E+02  0.45932817559E+03  0.46644741863E+03  0.00000000000E+00 0. -1.
</event>
<event>
 7    1  0.6253338E-006  0.1206231E+03  0.7818608E-02  0.1284569E+00
          2   -1    0    0  502    0  0.00000000000E+00  0.00000000000E+00  0.19261808932E+04  0.19261808932E+04  0.00000000000E+00 0. -1.
          1   -1    0    0  501    0 -0.00000000000E+00 -0.00000000000E+00 -0.95678766660E+02  0.95678766660E+02  0.00000000000E+00 0. -1.
         25    2    1    2    0    0 -0.22917191030E+02  0.18925097823E+03  0.10060381283E+04  0.10315413674E+04  0.12499498666E+03 0.  0.
          2    1    1    2  501    0  0.38882271580E+02 -0.11125581844E+03 -0.38274911154E+02  0.12391390965E+03  0.00000000000E+00 0. -1.
          1    1    1    2  502    0 -0.15965080551E+02 -0.77995159785E+02  0.86273890943E+03  0.86640438284E+03  0.00000000000E+00 0. -1.
         22    1    3    3    0    0  0.37412232039E+02  0.89451641232E+02  0.64200014303E+03  0.64928072117E+03  0.00000000000E+00 0.  1.
         22    1    3    3    0    0 -0.60329423068E+02  0.99799336996E+02  0.36403798527E+03  0.38226064625E+03  0.00000000000E+00 0.  1.
</event>
<event>
 7    1  0.6253338E-006  0.4896686E+02  0.7818608E-02  0.1573144E+00
          2   -1    0    0  502    0  0.00000000000E+00  0.00000000000E+00  0.10777219677E+04  0.10777219677E+04  0.00000000000E+00 0. -1.
          1   -1    0    0  501    0 -0.00000000000E+00 -0.00000000000E+00 -0.75496720619E+03  0.75496720619E+03  0.00000000000E+00 0. -1.
         25    2    1    2    0    0  0.64970880179E+02 -0.43270114907E+01 -0.19956292574E+01  0.14095689582E+03  0.12499970257E+03 0.  0.
          2    1    1    2  501    0 -0.16920813324E+02  0.13128037306E+02 -0.68273124581E+03  0.68306706353E+03  0.00000000000E+00 0. -1.
          1    1    1    2  502    0 -0.48050066855E+02 -0.88010258150E+01  0.10074816365E+04  0.10086652145E+04  0.00000000000E+00 0. -1.
         22    1    3    3    0    0 -0.13702388446E+02  0.20312858166E+02  0.41161504895E+02  0.47902370935E+02  0.00000000000E+00 0.  1.
         22    1    3    3    0    0  0.78673268625E+02 -0.24639869657E+02 -0.43157134152E+02  0.93054524882E+02  0.00000000000E+00 0.  1.
</event>
<event>
 7    1  0.6253338E-006  0.4434583E+02  0.7818608E-02  0.1515049E+00
          2   -1    0    0  502    0  0.00000000000E+00  0.00000000000E+00  0.41868651159E+02  0.41868651159E+02  0.00000000000E+00 0. -1.
          1   -1    0    0  501    0 -0.00000000000E+00 -0.00000000000E+00 -0.83658162168E+03  0.83658162168E+03  0.00000000000E+00 0. -1.
         25    2    1    2    0    0 -0.63066391058E+01 -0.13263216385E+02 -0.62754401202E+03  0.64004053306E+03  0.12499884134E+03 0.  0.
          2    1    1    2  501    0 -0.31566287374E+02  0.36332538995E+02 -0.18459243465E+03  0.19076386140E+03  0.00000000000E+00 0. -1.
          1    1    1    2  502    0  0.37872926480E+02 -0.23069322609E+02  0.17423476139E+02  0.47645878379E+02  0.00000000000E+00 0. -1.
         22    1    3    3    0    0 -0.33926922744E+02 -0.53445475137E+02 -0.20136578295E+03  0.21108205381E+03  0.00000000000E+00 0. -1.
         22    1    3    3    0    0  0.27620283638E+02  0.40182258752E+02 -0.42617822907E+03  0.42895847925E+03  0.00000000000E+00 0. -1.
</event>
<event>
 7    1  0.6253338E-006  0.6158558E+02  0.7818608E-02  0.1438896E+00
          2   -1    0    0  502    0  0.00000000000E+00  0.00000000000E+00  0.12007964710E+04  0.12007964710E+04  0.00000000000E+00 0. -1.
          1   -1    0    0  501    0 -0.00000000000E+00 -0.00000000000E+00 -0.95721091367E+03  0.95721091367E+03  0.00000000000E+00 0. -1.
         25    2    1    2    0    0  0.62485667234E+02 -0.58625153654E+02  0.26771882313E+02  0.15391840568E+03  0.12503109483E+03 0.  0.
          2    1    1    2  501    0 -0.32556989245E+01  0.42466231295E+02 -0.89228071378E+03  0.89329662071E+03  0.00000000000E+00 0. -1.
          1    1    1    2  502    0 -0.59229968310E+02  0.16158922359E+02  0.11090943888E+04  0.11107923583E+04  0.00000000000E+00 0. -1.
         22    1    3    3    0    0 -0.23463941046E+01  0.19050137322E+02 -0.31702276528E+02  0.37060054430E+02  0.00000000000E+00 0.  1.
         22    1    3    3    0    0  0.64832061339E+02 -0.77675290976E+02  0.58474158840E+02  0.11685835125E+03  0.00000000000E+00 0.  1.
</event>
<event>
 7    1  0.6253338E-006  0.6724153E+02  0.7818608E-02  0.1490500E+00
          2   -1    0    0  502    0  0.00000000000E+00  0.00000000000E+00  0.77552849710E+03  0.77552849710E+03  0.00000000000E+00 0. -1.
          1   -1    0    0  501    0 -0.00000000000E+00 -0.00000000000E+00 -0.57333137537E+03  0.57333137537E+03  0.00000000000E+00 0. -1.
         25    2    1    2    0    0  0.28350419844E+02 -0.34946223752E+02 -0.20075197334E+03  0.24073429552E+03  0.12500664534E+03 0.  0.
          2    1    1    2  501    0 -0.50153371454E+02  0.50663043322E+02 -0.34874218001E+03  0.35595394750E+03  0.00000000000E+00 0. -1.
          1    1    1    2  502    0  0.21802951610E+02 -0.15716819571E+02  0.75169127508E+03  0.75217162945E+03  0.00000000000E+00 0. -1.
         22    1    3    3    0    0  0.56111024418E+02  0.26846945158E+02 -0.71232873675E+02  0.94569169487E+02  0.00000000000E+00 0. -1.
         22    1    3    3    0    0 -0.27760604574E+02 -0.61793168909E+02 -0.12951909967E+03  0.14616512603E+03  0.00000000000E+00 0. -1.
</event>
<event>
 7    1  0.6253338E-006  0.7204923E+02  0.7818608E-02  0.1443393E+00
          2   -1    0    0  502    0  0.00000000000E+00  0.00000000000E+00  0.14811044244E+03  0.14811044244E+03  0.00000000000E+00 0. -1.
          1   -1    0    0  501    0 -0.00000000000E+00 -0.00000000000E+00 -0.19739203300E+04  0.19739203300E+04  0.00000000000E+00 0. -1.
         25    2    1    2    0    0 -0.74297148147E+02  0.45351946708E+02 -0.12012438027E+04  0.12108627824E+04  0.12500055553E+03 0.  0.
          2    1    1    2  501    0  0.67907486505E+02 -0.10732509489E+02 -0.76413811268E+03  0.76722465337E+03  0.00000000000E+00 0. -1.
          1    1    1    2  502    0  0.63896616418E+01 -0.34619437219E+02  0.13957202787E+03  0.14394333667E+03  0.00000000000E+00 0. -1.
         22    1    3    3    0    0  0.83485019900E-01  0.20033678050E+02 -0.25180836347E+02  0.32178094180E+02  0.00000000000E+00 0. -1.
         22    1    3    3    0    0 -0.74380633167E+02  0.25318268658E+02 -0.11760629664E+04  0.11786846882E+04  0.00000000000E+00 0. -1.
</event>
<event>
 7    1  0.6253338E-006  0.5396363E+02  0.7818608E-02  0.1445091E+00
          2   -1    0    0  502    0  0.00000000000E+00  0.00000000000E+00  0.83021538430E+03  0.83021538430E+03  0.00000000000E+00 0. -1.
          1   -1    0    0  501    0 -0.00000000000E+00 -0.00000000000E+00 -0.17175385669E+03  0.17175385669E+03  0.00000000000E+00 0. -1.
         25    2    1    2    0    0 -0.86097520662E+02  0.34044299232E+02 -0.57178343204E+02  0.16576750868E+03  0.12505081619E+03 0.  0.
          2    1    1    2  501    0  0.32416159984E+02 -0.33217767277E+02 -0.50265654846E+02  0.68416836729E+02  0.00000000000E+00 0. -1.
          1    1    1    2  502    0  0.53681360678E+02 -0.82653195457E+00  0.76590552566E+03  0.76778489557E+03  0.00000000000E+00 0. -1.
         22    1    3    3    0    0 -0.93699232487E+02  0.92030064909E+01  0.90911520933E+01  0.94588004226E+02  0.00000000000E+00 0.  1.
         22    1    3    3    0    0  0.76017118245E+01  0.24841292741E+02 -0.66269495298E+02  0.71179504457E+02  0.00000000000E+00 0.  1.
</event>
<event>
 7    1  0.6253338E-006  0.3235906E+02  0.7818608E-02  0.1613176E+00
          2   -1    0    0  502    0  0.00000000000E+00  0.00000000000E+00  0.37299896627E+03  0.37299896627E+03  0.00000000000E+00 0. -1.
          1   -1    0    0  501    0 -0.00000000000E+00 -0.00000000000E+00 -0.18890389766E+03  0.18890389766E+03  0.00000000000E+00 0. -1.
         25    2    1    2    0    0  0.20662075672E+02  0.43630069337E+02  0.23457044253E+03  0.27014610728E+03  0.12500048979E+03 0.  0.
          2    1    1    2  501    0 -0.22094180520E+02 -0.12562783612E+02 -0.16814067074E+03  0.17005076154E+03  0.00000000000E+00 0. -1.
          1    1    1    2  502    0  0.14321048485E+01 -0.31067285725E+02  0.11766529682E+03  0.12170599510E+03  0.00000000000E+00 0. -1.
         22    1    3    3    0    0  0.33536669484E+02  0.62693808562E+02  0.23660059740E+03  0.24705275655E+03  0.00000000000E+00 0.  1.
         22    1    3    3    0    0 -0.12874593812E+02 -0.19063739225E+02 -0.20301548664E+01  0.23093350728E+02  0.00000000000E+00 0.  1.
</event>
<event>
 7    1  0.6253338E-006  0.1034380E+03  0.7818608E-02  0.1389571E+00
          2   -1    0    0  502    0  0.00000000000E+00  0.00000000000E+00  0.22440257995E+03  0.22440257995E+03  0.00000000000E+00 0. -1.
          1   -1    0    0  501    0 -0.00000000000E+00 -0.00000000000E+00 -0.25061039576E+04  0.25061039576E+04  0.00000000000E+00 0. -1.
         25    2    1    2    0    0 -0.13404919126E+03  0.16141286721E+01 -0.33509197555E+03  0.38195033652E+03  0.12501054515E+03 0.  0.
          2    1    1    2  501    0  0.10082020767E+03  0.15061315651E+02 -0.21446422989E+04  0.21470636105E+04  0.00000000000E+00 0. -1.
          1    1    1    2  502    0  0.33228983590E+02 -0.16675444323E+02  0.19803289682E+03  0.20149259047E+03  0.00000000000E+00 0. -1.
         22    1    3    3    0    0 -0.77123427267E+02  0.10412638934E+02 -0.30911700683E+03  0.31876287424E+03  0.00000000000E+00 0. -1.
         22    1    3    3    0    0 -0.56925763996E+02 -0.87985102620E+01 -0.25974968727E+02  0.63187462283E+02  0.00000000000E+00 0. -1.
</event>
<event>
 7    1  0.6253338E-006  0.1114915E+03  0.7818608E-02  0.1296383E+00
          2   -1    0    0  502    0  0.00000000000E+00  0.00000000000E+00  0.40561865727E+03  0.40561865727E+03  0.00000000000E+00 0. -1.
          1   -1    0    0  501    0 -0.00000000000E+00 -0.00000000000E+00 -0.16786628752E+03  0.16786628752E+03  0.00000000000E+00 0. -1.
         25    2    1    2    0    0  0.98574293172E+02 -0.85247274707E+02  0.16527363531E+03  0.24479375378E+03  0.12499847295E+03 0.  0.
          2    1    1    2  501    0 -0.11152226629E+03  0.92243899996E+01 -0.93401904110E+02  0.14576083473E+03  0.00000000000E+00 0. -1.
          1    1    1    2  502    0  0.12947973115E+02  0.76022884708E+02  0.16588063854E+03  0.18293035628E+03  0.00000000000E+00 0. -1.
         22    1    3    3    0    0  0.74229275398E+02 -0.59076385812E+02  0.18206782099E+03  0.20530147620E+03  0.00000000000E+00 0. -1.
         22    1    3    3    0    0  0.24345017774E+02 -0.26170888896E+02 -0.16794185680E+02  0.39492277583E+02  0.00000000000E+00 0. -1.
</event>
<event>
 7    1  0.6253338E-006  0.3445311E+02  0.7818608E-02  0.1557831E+00
          2   -1    0    0  502    0  0.00000000000E+00  0.00000000000E+00  0.69020237050E+03  0.69020237050E+03  0.00000000000E+00 0. -1.
          1   -1    0    0  501    0 -0.00000000000E+00 -0.00000000000E+00 -0.41207941535E+02  0.41207941535E+02  0.00000000000E+00 0. -1.
         25    2    1    2    0    0  0.33925974855E+02  0.61107638814E+00  0.28747675090E+03  0.31531284636E+03  0.12501185378E+03 0.  0.
          2    1    1    2  501    0 -0.15604784605E+02  0.29663253461E+02 -0.15848699689E+02  0.37075587524E+02  0.00000000000E+00 0. -1.
          1    1    1    2  502    0 -0.18321190250E+02 -0.30274329849E+02  0.37736637776E+03  0.37902187816E+03  0.00000000000E+00 0. -1.
         22    1    3    3    0    0  0.21942928730E+02  0.58831213609E+02  0.19942113252E+03  0.20907269528E+03  0.00000000000E+00 0.  1.
         22    1    3    3    0    0  0.11983046125E+02 -0.58220137221E+02  0.88055618378E+02  0.10624015107E+03  0.00000000000E+00 0.  1.
</event>
<event>
 7    1  0.6253338E-006  0.6453148E+02  0.7818608E-02  0.1475151E+00
          2   -1    0    0  502    0  0.00000000000E+00  0.00000000000E+00  0.23956525330E+03  0.23956525330E+03  0.00000000000E+00 0. -1.
          1   -1    0    0  501    0 -0.00000000000E+00 -0.00000000000E+00 -0.81193551938E+03  0.81193551938E+03  0.00000000000E+00 0. -1.
         25    2    1    2    0    0 -0.56095768131E+02  0.21735310797E+02 -0.15003697168E+03  0.20433892256E+03  0.12499657381E+03 0.  0.
          2    1    1    2  501    0  0.64703815513E+02  0.82534778802E+01 -0.63191397571E+03  0.63527157684E+03  0.00000000000E+00 0. -1.
          1    1    1    2  502    0 -0.86080473813E+01 -0.29988788677E+02  0.20958068132E+03  0.21189027327E+03  0.00000000000E+00 0. -1.
         22    1    3    3    0    0 -0.76673753396E+02  0.50867527195E+01 -0.15883448586E+03  0.17644583705E+03  0.00000000000E+00 0.  1.
         22    1    3    3    0    0  0.20577985265E+02  0.16648558077E+02  0.87975141820E+01  0.27893085512E+02  0.00000000000E+00 0.  1.
</event>
<event>
 7    1  0.6253338E-006  0.5797877E+02  0.7818608E-02  0.1544982E+00
          2   -1    0    0  502    0  0.00000000000E+00  0.00000000000E+00  0.52093270332E+03  0.52093270332E+03  0.00000000000E+00 0. -1.
          1   -1    0    0  501    0 -0.00000000000E+00 -0.00000000000E+00 -0.93211087716E+02  0.93211087716E+02  0.00000000000E+00 0. -1.
         25    2    1    2    0    0 -0.26472672423E+02 -0.33206770285E+02  0.79551175726E+02  0.15412882540E+03  0.12499525304E+03 0.  0.
          2    1    1    2  501    0 -0.21607061751E+02 -0.93857974155E+00 -0.51583961152E+02  0.55934346315E+02  0.00000000000E+00 0. -1.
          1    1    1    2  502    0  0.48079734174E+02  0.34145350027E+02  0.39975440103E+03  0.40408061932E+03  0.00000000000E+00 0. -1.
         22    1    3    3    0    0 -0.33113701466E+02 -0.20010430675E+02 -0.26601628288E+02  0.46952967831E+02  0.00000000000E+00 0.  1.
         22    1    3    3    0    0  0.66410290427E+01 -0.13196339610E+02  0.10615280401E+03  0.10717585757E+03  0.00000000000E+00 0.  1.
</event>
<event>
 7    1  0.6253338E-006  0.1709968E+03  0.7818608E-02  0.1232149E+00
          2   -1    0    0  502    0  0.00000000000E+00  0.00000000000E+00  0.94680044575E+02  0.94680044575E+02  0.00000000000E+00 0. -1.
          1   -1    0    0  501    0 -0.00000000000E+00 -0.00000000000E+00 -0.21799888732E+04  0.21799888732E+04  0.00000000000E+00 0. -1.
         25    2    1    2    0    0 -0.12083217556E+02 -0.14919339326E+03 -0.28308199869E+03  0.34375204777E+03  0.12500151850E+03 0.  0.
          2    1    1    2  501    0 -0.81757374634E+02  0.15689054550E+03 -0.18253986163E+04  0.18339517496E+04  0.00000000000E+00 0. -1.
          1    1    1    2  502    0  0.93840592190E+02 -0.76971522423E+01  0.23171786327E+02  0.96965120414E+02  0.00000000000E+00 0. -1.
         22    1    3    3    0    0 -0.10546105096E+01 -0.52827778776E+02 -0.22407129081E+03  0.23021691897E+03  0.00000000000E+00 0.  1.
         22    1    3    3    0    0 -0.11028607046E+02 -0.96365614481E+02 -0.59010707876E+02  0.11353512880E+03  0.00000000000E+00 0.  1.
</event>
<event>
 7    1  0.6253338E-006  0.8065562E+02  0.7818608E-02  0.1343562E+00
          2   -1    0    0  502    0  0.00000000000E+00  0.00000000000E+00  0.10459818200E+03  0.10459818200E+03  0.00000000000E+00 0. -1.
          1   -1    0    0  501    0 -0.00000000000E+00 -0.00000000000E+00 -0.12549918656E+04  0.12549918656E+04  0.00000000000E+00 0. -1.
         25    2    1    2    0    0 -0.14290136707E+03 -0.53176165504E+01 -0.14774505899E+03  0.24062831002E+03  0.12499721346E+03 0.  0.
          2    1    1    2  501    0  0.69924248688E+02  0.62882100240E+00 -0.10361631456E+04  0.10385200336E+04  0.00000000000E+00 0. -1.
          1    1    1    2  502    0  0.72977118382E+02  0.46887955480E+01  0.33514521012E+02  0.80441703920E+02  0.00000000000E+00 0. -1.
         22    1    3    3    0    0 -0.16432907658E+03  0.44649244053E+01 -0.11643660308E+03  0.20144841399E+03  0.00000000000E+00 0.  1.
         22    1    3    3    0    0  0.21427709511E+02 -0.97825409557E+01 -0.31308455902E+02  0.39179896036E+02  0.00000000000E+00 0.  1.
</event>
<event>
 7    1  0.6253338E-006  0.9933075E+02  0.7818608E-02  0.1301254E+00
          2   -1    0    0  502    0  0.00000000000E+00  0.00000000000E+00  0.50583824614E+03  0.50583824614E+03  0.00000000000E+00 0. -1.
          1   -1    0    0  501    0 -0.00000000000E+00 -0.00000000000E+00 -0.87503619710E+02  0.87503619710E+02  0.00000000000E+00 0. -1.
         25    2    1    2    0    0 -0.13300896493E+03 -0.29908891302E+02  0.13354214338E+03  0.22813168695E+03  0.12499854400E+03 0.  0.
          2    1    1    2  501    0  0.84766044411E+02 -0.37325126206E+02  0.30063453395E+02  0.97376889257E+02  0.00000000000E+00 0. -1.
          1    1    1    2  502    0  0.48242920519E+02  0.67234017508E+02  0.25472902966E+03  0.26783328964E+03  0.00000000000E+00 0. -1.
         22    1    3    3    0    0 -0.53103787257E+02 -0.42050707127E+02 -0.48041763273E+01  0.67906953261E+02  0.00000000000E+00 0.  1.
         22    1    3    3    0    0 -0.79905177672E+02  0.12141815825E+02  0.13834631971E+03  0.16022473369E+03  0.00000000000E+00 0.  1.
</event>
<event>
 7    1  0.6253338E-006  0.1257827E+03  0.7818608E-02  0.1292167E+00
          2   -1    0    0  502    0  0.00000000000E+00  0.00000000000E+00  0.11779444784E+04  0.11779444784E+04  0.00000000000E+00 0. -1.
          1   -1    0    0  501    0 -0.00000000000E+00 -0.00000000000E+00 -0.24364704962E+04  0.24364704962E+04  0.00000000000E+00 0. -1.
         25    2    1    2    0    0  0.12561342911E+03 -0.98100996822E+02  0.83048754150E+02  0.21891809998E+03  0.12500199911E+03 0.  0.
          2    1    1    2  501    0 -0.69809159240E+02 -0.13432912911E+02 -0.23642131739E+04  0.23652817366E+04  0.00000000000E+00 0. -1.
          1    1    1    2  502    0 -0.55804269866E+02  0.11153390973E+03  0.10226384019E+04  0.10302151380E+04  0.00000000000E+00 0. -1.
         22    1    3    3    0    0  0.18037982375E+02 -0.66314333858E+02  0.81667986503E+02  0.10673621552E+03  0.00000000000E+00 0.  1.
         22    1    3    3    0    0  0.10757544673E+03 -0.31786662964E+02  0.13807676468E+01  0.11218188446E+03  0.00000000000E+00 0.  1.
</event>
<event>
 7    1  0.7323397E-006  0.9269773E+02  0.7818608E-02  0.1361479E+00
          2   -1    0    0  502    0  0.00000000000E+00  0.00000000000E+00  0.22720729280E+04  0.22720729280E+04  0.00000000000E+00 0. -1.
          1   -1    0    0  501    0 -0.00000000000E+00 -0.00000000000E+00 -0.11039192230E+04  0.11039192230E+04  0.00000000000E+00 0. -1.
         25    2    1    2    0    0 -0.55045068855E+02 -0.19212771437E+02 -0.38269075862E+02  0.14313786262E+03  0.12499934142E+03 0.  0.
          2    1    1    2  501    0  0.92955286569E+02 -0.16742072044E+02 -0.10107061488E+04  0.10151097977E+04  0.00000000000E+00 0. -1.
          1    1    1    2  502    0 -0.37910217714E+02  0.35954843481E+02  0.22171289296E+04  0.22177444906E+04  0.00000000000E+00 0. -1.
         22    1    3    3    0    0 -0.64920214465E+01 -0.29858010645E+02 -0.75228157980E+02  0.81196815795E+02  0.00000000000E+00 0.  1.
         22    1    3    3    0    0 -0.48553047409E+02  0.10645239209E+02  0.36959082118E+02  0.61941046823E+02  0.00000000000E+00 0.  1.
</event>
<event>
 7    1  0.6253338E-006  0.4361338E+02  0.7818608E-02  0.1582980E+00
          2   -1    0    0  502    0  0.00000000000E+00  0.00000000000E+00  0.80782351382E+03  0.80782351382E+03  0.00000000000E+00 0. -1.
          1   -1    0    0  501    0 -0.00000000000E+00 -0.00000000000E+00 -0.15925698443E+04  0.15925698443E+04  0.00000000000E+00 0. -1.
         25    2    1    2    0    0 -0.18076528670E+02 -0.18285870162E+02 -0.65424491171E+03  0.66657475908E+03  0.12499748401E+03 0.  0.
          2    1    1    2  501    0 -0.22510409805E+02  0.22732757243E+01 -0.93142885838E+03  0.93170360338E+03  0.00000000000E+00 0. -1.
          1    1    1    2  502    0  0.40586938475E+02  0.16012594437E+02  0.80092743960E+03  0.80211499566E+03  0.00000000000E+00 0. -1.
         22    1    3    3    0    0  0.99743469839E-02 -0.70306849563E+02 -0.42710635095E+03  0.43285434988E+03  0.00000000000E+00 0.  1.
         22    1    3    3    0    0 -0.18086503017E+02  0.52020979401E+02 -0.22713856077E+03  0.23372040920E+03  0.00000000000E+00 0.  1.
</event>
<event>
 7    1  0.6253338E-006  0.9185143E+02  0.7818608E-02  0.1324008E+00
          2   -1    0    0  502    0  0.00000000000E+00  0.00000000000E+00  0.27346276853E+04  0.27346276853E+04  0.00000000000E+00 0. -1.
          1   -1    0    0  501    0 -0.00000000000E+00 -0.00000000000E+00 -0.43076976593E+03  0.43076976593E+03  0.00000000000E+00 0. -1.
         25    2    1    2    0    0 -0.65149065680E+02 -0.14919096184E+03 -0.24582210175E+01  0.20526727602E+03  0.12500507151E+03 0.  0.
          2    1    1    2  501    0  0.38515823530E+02  0.61843090781E+02 -0.32204492745E+03  0.33018323979E+03  0.00000000000E+00 0. -1.
          1    1    1    2  502    0  0.26633242150E+02  0.87347871056E+02  0.26283610678E+04  0.26299469354E+04  0.00000000000E+00 0. -1.
         22    1    3    3    0    0  0.29253641961E+02 -0.88003857523E+02  0.17341583910E+00  0.92738797599E+02  0.00000000000E+00 0. -1.
         22    1    3    3    0    0 -0.94402707641E+02 -0.61187104314E+02 -0.26316368566E+01  0.11252847843E+03  0.00000000000E+00 0. -1.
</event>
<event>
 7    1  0.6253338E-006  0.8791994E+02  0.7818608E-02  0.1355702E+00
          2   -1    0    0  502    0  0.00000000000E+00  0.00000000000E+00  0.43577105825E+03  0.43577105825E+03  0.00000000000E+00 0. -1.
          1   -1    0    0  501    0 -0.00000000000E+00 -0.00000000000E+00 -0.72146539145E+03  0.72146539145E+03  0.00000000000E+00 0. -1.
         25    2    1    2    0    0  0.22073514211E+02 -0.45129970479E+02 -0.20698296622E+03  0.24696548206E+03  0.12500418696E+03 0.  0.
          2    1    1    2  501    0  0.63377883003E+00  0.98319823760E+02 -0.48754835432E+03  0.49736363681E+03  0.00000000000E+00 0. -1.
          1    1    1    2  502    0 -0.22707293041E+02 -0.53189853282E+02  0.40883698733E+03  0.41290733084E+03  0.00000000000E+00 0. -1.
         22    1    3    3    0    0 -0.37414057960E+02 -0.33395753889E+02 -0.16692113237E+03  0.17429214711E+03  0.00000000000E+00 0.  1.
         22    1    3    3    0    0  0.59487572171E+02 -0.11734216590E+02 -0.40061833845E+02  0.72673334950E+02  0.00000000000E+00 0.  1.
</event>
<event>
 7    1  0.6253338E-006  0.7622019E+02  0.7818608E-02  0.1346897E+00
          2   -1    0    0  502    0  0.00000000000E+00  0.00000000000E+00  0.13144732661E+03  0.13144732661E+03  0.00000000000E+00 0. -1.
          1   -1    0    0  501    0 -0.00000000000E+00 -0.00000000000E+00 -0.31607120163E+03  0.31607120163E+03  0.00000000000E+00 0. -1.
         25    2    1    2    0    0 -0.77088566349E+01  0.25449592302E+02 -0.62681733422E+02  0.14234152787E+03  0.12500001053E+03 0.  0.
          2    1    1    2  501    0  0.74968220892E+02 -0.50877893450E+02 -0.18726438736E+03  0.20803063466E+03  0.00000000000E+00 0. -1.
          1    1    1    2  502    0 -0.67259364257E+02  0.25428301148E+02  0.65322245762E+02  0.97146365711E+02  0.00000000000E+00 0. -1.
         22    1    3    3    0    0  0.40410893679E+01 -0.46528183164E+02 -0.82373717793E+00  0.46710606662E+02  0.00000000000E+00 0. -1.
         22    1    3    3    0    0 -0.11749946003E+02  0.71977775466E+02 -0.61857996244E+02  0.95630921210E+02  0.00000000000E+00 0. -1.
</event>
<event>
 7    1  0.6253338E-006  0.1636996E+03  0.7818608E-02  0.1185705E+00
          2   -1    0    0  502    0  0.00000000000E+00  0.00000000000E+00  0.28805731345E+03  0.28805731345E+03  0.00000000000E+00 0. -1.
          1   -1    0    0  501    0 -0.00000000000E+00 -0.00000000000E+00 -0.33704842618E+03  0.33704842618E+03  0.00000000000E+00 0. -1.
         25    2    1    2    0    0  0.40464697421E+02  0.44563779470E+02 -0.80198445004E+02  0.16025187013E+03  0.12500219647E+03 0.  0.
          2    1    1    2  501    0  0.16343884919E+03  0.92351594118E+01 -0.12202834588E+03  0.20417752764E+03  0.00000000000E+00 0. -1.
          1    1    1    2  502    0 -0.20390354661E+03 -0.53798938882E+02  0.15323567815E+03  0.26067634186E+03  0.00000000000E+00 0. -1.
         22    1    3    3    0    0  0.32961020257E+02 -0.39396768584E+02 -0.14487541928E+02  0.53370620217E+02  0.00000000000E+00 0.  1.
         22    1    3    3    0    0  0.75036771642E+01  0.83960548054E+02 -0.65710903076E+02  0.10688124992E+03  0.00000000000E+00 0.  1.
</event>
<event>
 7    1  0.6253338E-006  0.9838921E+02  0.7818608E-02  0.1305502E+00
          2   -1    0    0  502    0  0.00000000000E+00  0.00000000000E+00  0.17943496784E+03  0.17943496784E+03  0.00000000000E+00 0. -1.
          1   -1    0    0  501    0 -0.00000000000E+00 -0.00000000000E+00 -0.93725560722E+03  0.93725560722E+03  0.00000000000E+00 0. -1.
         25    2    1    2    0    0 -0.10340808947E+03  0.13092423610E+03 -0.19480620548E+03  0.28532270403E+03  0.12500079671E+03 0.  0.
          2    1    1    2  501    0  0.36416340670E+02 -0.86555431358E+02 -0.68164677238E+03  0.68808452595E+03  0.00000000000E+00 0. -1.
          1    1    1    2  502    0  0.66991748803E+02 -0.44368804738E+02  0.11863233848E+03  0.14328334507E+03  0.00000000000E+00 0. -1.
         22    1    3    3    0    0 -0.81400518488E+02  0.12665166998E+03 -0.20988931207E+03  0.25830256143E+03  0.00000000000E+00 0. -1.
         22    1    3    3    0    0 -0.22007570985E+02  0.42725661179E+01  0.15083106593E+02  0.27020142604E+02  0.00000000000E+00 0. -1.
</event>
<event>
 7    1  0.6253338E-006  0.3520658E+02  0.7818608E-02  0.1549786E+00
          2   -1    0    0  502    0  0.00000000000E+00  0.00000000000E+00  0.80011112134E+03  0.80011112134E+03  0.00000000000E+00 0. -1.
          1   -1    0    0  501    0 -0.00000000000E+00 -0.00000000000E+00 -0.64937612122E+03  0.64937612122E+03  0.00000000000E+00 0. -1.
         25    2    1    2    0    0 -0.21447403176E+01 -0.45651169819E+01 -0.19437858331E+03  0.23115119332E+03  0.12498960084E+03 0.  0.
          2    1    1    2  501    0 -0.22131816443E+02  0.29121196292E+02 -0.43546281888E+03  0.43699625628E+03  0.00000000000E+00 0. -1.
          1    1    1    2  502    0  0.24276556761E+02 -0.24556079310E+02  0.78057640231E+03  0.78133979297E+03  0.00000000000E+00 0. -1.
         22    1    3    3    0    0 -0.65328002070E+01  0.57259496943E+02 -0.12777210471E+03  0.14016789293E+03  0.00000000000E+00 0.  1.
         22    1    3    3    0    0  0.43880598894E+01 -0.61824613925E+02 -0.66606478603E+02  0.90983300382E+02  0.00000000000E+00 0.  1.
</event>
<event>
 7    1  0.6253338E-006  0.1843293E+03  0.7818608E-02  0.1205483E+00
          2   -1    0    0  502    0  0.00000000000E+00  0.00000000000E+00  0.32454632742E+04  0.32454632742E+04  0.00000000000E+00 0. -1.
          1   -1    0    0  501    0 -0.00000000000E+00 -0.00000000000E+00 -0.90153142206E+03  0.90153142206E+03  0.00000000000E+00 0. -1.
         25    2    1    2    0    0 -0.58389464596E+02 -0.45967896222E+02  0.28533134441E+03  0.32025295285E+03  0.12500240256E+03 0.  0.
          2    1    1    2  501    0  0.16603864689E+03  0.88185949086E+02 -0.87292277770E+03  0.89293883873E+03  0.00000000000E+00 0. -1.
          1    1    1    2  502    0 -0.10764918230E+03 -0.42218052863E+02  0.29315232855E+04  0.29338029047E+04  0.00000000000E+00 0. -1.
         22    1    3    3    0    0 -0.57404044959E+02 -0.87040559958E+02  0.20920239660E+03  0.23374543033E+03  0.00000000000E+00 0. -1.
         22    1    3    3    0    0 -0.98541963629E+00  0.41072663736E+02  0.76128947812E+02  0.86507522524E+02  0.00000000000E+00 0. -1.
</event>
<event>
 7    1  0.6253338E-006  0.1895809E+03  0.7818608E-02  0.1344178E+00
          2   -1    0    0  502    0  0.00000000000E+00  0.00000000000E+00  0.20709110485E+04  0.20709110485E+04  0.00000000000E+00 0. -1.
          1   -1    0    0  501    0 -0.00000000000E+00 -0.00000000000E+00 -0.61653445109E+02  0.61653445109E+02  0.00000000000E+00 0. -1.
         25    2    1    2    0    0  0.16564965718E+03 -0.73920391275E+01  0.37063819664E+03  0.42484325682E+03  0.12499867555E+03 0.  0.
          2    1    1    2  501    0  0.28265067982E+02 -0.87630802238E+01 -0.21283846853E+02  0.36451444140E+02  0.00000000000E+00 0. -1.
          1    1    1    2  502    0 -0.19391472516E+03  0.16155119351E+02  0.16599032536E+04  0.16712697927E+04  0.00000000000E+00 0. -1.
         22    1    3    3    0    0 -0.12640883665E+02  0.23444416105E+02  0.51576878686E+02  0.58048316094E+02  0.00000000000E+00 0.  1.
         22    1    3    3    0    0  0.17829054084E+03 -0.30836455233E+02  0.31906131796E+03  0.36679494072E+03  0.00000000000E+00 0.  1.
</event>
<event>
 7    1  0.6253338E-006  0.1578008E+03  0.7818608E-02  0.1325522E+00
          2   -1    0    0  502    0  0.00000000000E+00  0.00000000000E+00  0.11893723162E+04  0.11893723162E+04  0.00000000000E+00 0. -1.
          1   -1    0    0  501    0 -0.00000000000E+00 -0.00000000000E+00 -0.75382657798E+03  0.75382657798E+03  0.00000000000E+00 0. -1.
         25    2    1    2    0    0  0.14299732929E+03 -0.71863666912E+01 -0.51628253240E+02  0.19691468189E+03  0.12494012710E+03 0.  0.
          2    1    1    2  501    0 -0.15716536605E+03 -0.32183624237E+02 -0.61893292164E+03  0.63938618959E+03  0.00000000000E+00 0. -1.
          1    1    1    2  502    0  0.14168036760E+02  0.39369990928E+02  0.11061069131E+04  0.11068980227E+04  0.00000000000E+00 0. -1.
         22    1    3    3    0    0  0.63422443506E+02  0.29611753555E+02 -0.78542198754E+02  0.10520522456E+03  0.00000000000E+00 0.  1.
         22    1    3    3    0    0  0.79574885780E+02 -0.36798120246E+02  0.26913945514E+02  0.91709457330E+02  0.00000000000E+00 0.  1.
</event>
<event>
 7    1  0.6253338E-006  0.1601986E+03  0.7818608E-02  0.1304056E+00
          2   -1    0    0  502    0  0.00000000000E+00  0.00000000000E+00  0.12649772041E+03  0.12649772041E+03  0.00000000000E+00 0. -1.
          1   -1    0    0  501    0 -0.00000000000E+00 -0.00000000000E+00 -0.50939862340E+03  0.50939862340E+03  0.00000000000E+00 0. -1.
         25    2    1    2    0    0  0.58607350558E+02 -0.16913746305E+03 -0.18320092965E+03  0.28501260193E+03  0.12500919840E+03 0.  0.
          2    1    1    2  501    0 -0.47884455011E+02  0.14415526962E+02 -0.18890890966E+03  0.19541572250E+03  0.00000000000E+00 0. -1.
          1    1    1    2  502    0 -0.10722895548E+02  0.15472193609E+03 -0.10791063672E+02  0.15546801939E+03  0.00000000000E+00 0. -1.
         22    1    3    3    0    0  0.90609273420E+02 -0.10968671460E+03 -0.84643499751E+02  0.16554678444E+03  0.00000000000E+00 0.  1.
         22    1    3    3    0    0 -0.32001922862E+02 -0.59450748457E+02 -0.98557429901E+02  0.11946581749E+03  0.00000000000E+00 0.  1.
</event>
<event>
 7    1  0.6253338E-006  0.1447132E+03  0.7818608E-02  0.1313744E+00
          2   -1    0    0  502    0  0.00000000000E+00  0.00000000000E+00  0.73780944910E+03  0.73780944910E+03  0.00000000000E+00 0. -1.
          1   -1    0    0  501    0 -0.00000000000E+00 -0.00000000000E+00 -0.44272031903E+03  0.44272031903E+03  0.00000000000E+00 0. -1.
         25    2    1    2    0    0 -0.10561115765E+03 -0.72105317022E+02 -0.25983250168E+03  0.31542362172E+03  0.12500495529E+03 0.  0.
          2    1    1    2  501    0  0.15531278689E+03  0.82074657925E+02 -0.10406281556E+03  0.20417487805E+03  0.00000000000E+00 0. -1.
          1    1    1    2  502    0 -0.49701629239E+02 -0.99693409031E+01  0.65898444730E+03  0.66093126836E+03  0.00000000000E+00 0. -1.
         22    1    3    3    0    0 -0.56388911735E+02 -0.31349102628E+02 -0.20484443964E+02  0.67691122363E+02  0.00000000000E+00 0.  1.
         22    1    3    3    0    0 -0.49222245913E+02 -0.40756214394E+02 -0.23934805771E+03  0.24773249935E+03  0.00000000000E+00 0.  1.
</event>
<event>
 7    1  0.6253338E-006  0.1288729E+03  0.7818608E-02  0.1290955E+00
          2   -1    0    0  502    0  0.00000000000E+00  0.00000000000E+00  0.10787148674E+04  0.10787148674E+04  0.00000000000E+00 0. -1.
          1   -1    0    0  501    0 -0.00000000000E+00 -0.00000000000E+00 -0.86942013277E+03  0.86942013277E+03  0.00000000000E+00 0. -1.
         25    2    1    2    0    0  0.11439144054E+03  0.47560097512E+02  0.47407165396E+03  0.50568339947E+03  0.12499761143E+03 0.  0.
          2    1    1    2  501    0 -0.31926381659E+02  0.62492273331E+02 -0.84410896803E+03  0.84702097257E+03  0.00000000000E+00 0. -1.
          1    1    1    2  502    0 -0.82465058877E+02 -0.11005237084E+03  0.57933204873E+03  0.59543062816E+03  0.00000000000E+00 0. -1.
         22    1    3    3    0    0 -0.12052575145E+02 -0.57369122535E+01  0.18728485639E+03  0.18775993759E+03  0.00000000000E+00 0. -1.
         22    1    3    3    0    0  0.12644401568E+03  0.53297009765E+02  0.28678679758E+03  0.31792346188E+03  0.00000000000E+00 0. -1.
</event>
<event>
 7    1  0.6253338E-006  0.6945700E+02  0.7818608E-02  0.1448431E+00
          2   -1    0    0  502    0  0.00000000000E+00  0.00000000000E+00  0.60166085897E+03  0.60166085897E+03  0.00000000000E+00 0. -1.
          1   -1    0    0  501    0 -0.00000000000E+00 -0.00000000000E+00 -0.60709285695E+03  0.60709285695E+03  0.00000000000E+00 0. -1.
         25    2    1    2    0    0  0.13792154748E+02 -0.87885553427E+02 -0.87550469895E+02  0.17664536758E+03  0.12499762828E+03 0.  0.
          2    1    1    2  501    0 -0.34456212285E+02  0.59414164584E+02 -0.47195135465E+03  0.47692279740E+03  0.00000000000E+00 0. -1.
          1    1    1    2  502    0  0.20664057537E+02  0.28471388843E+02  0.55406982657E+03  0.55518555094E+03  0.00000000000E+00 0. -1.
         22    1    3    3    0    0 -0.48182892337E+02 -0.10329085628E+02 -0.50829216283E+02  0.70794705676E+02  0.00000000000E+00 0. -1.
         22    1    3    3    0    0  0.61975047085E+02 -0.77556467799E+02 -0.36721253612E+02  0.10585066190E+03  0.00000000000E+00 0. -1.
</event>
<event>
 7    1  0.6253338E-006  0.6817426E+02  0.7818608E-02  0.1485121E+00
          2   -1    0    0  502    0  0.00000000000E+00  0.00000000000E+00  0.23532812709E+04  0.23532812709E+04  0.00000000000E+00 0. -1.
          1   -1    0    0  501    0 -0.00000000000E+00 -0.00000000000E+00 -0.13033136739E+03  0.13033136739E+03  0.00000000000E+00 0. -1.
         25    2    1    2    0    0 -0.18887997947E+02  0.44806871161E+02  0.12860812211E+04  0.12930550372E+04  0.12498803866E+03 0.  0.
          2    1    1    2  501    0 -0.54060175072E+01  0.26988730426E+02 -0.12398307479E+03  0.12700165129E+03  0.00000000000E+00 0. -1.
          1    1    1    2  502    0  0.24294015454E+02 -0.71795601588E+02  0.10608517571E+04  0.10635559497E+04  0.00000000000E+00 0. -1.
         22    1    3    3    0    0 -0.67014502393E+02  0.13508834277E+02  0.46857790377E+03  0.47353847155E+03  0.00000000000E+00 0.  1.
         22    1    3    3    0    0  0.48126504446E+02  0.31298036885E+02  0.81750331736E+03  0.81951656569E+03  0.00000000000E+00 0.  1.
</event>
<event>
 7    1  0.6253338E-006  0.1154466E+03  0.7818608E-02  0.1447204E+00
          2   -1    0    0  502    0  0.00000000000E+00  0.00000000000E+00  0.46899067398E+03  0.46899067398E+03  0.00000000000E+00 0. -1.
          1   -1    0    0  501    0 -0.00000000000E+00 -0.00000000000E+00 -0.12061646043E+04  0.12061646043E+04  0.00000000000E+00 0. -1.
         25    2    1    2    0    0 -0.12287335690E+03  0.34136876769E+02  0.10249146069E+03  0.20589525561E+03  0.12500067432E+03 0.  0.
          2    1    1    2  501    0  0.10545137950E+03 -0.46492168253E+02 -0.11512200498E+04  0.11569741217E+04  0.00000000000E+00 0. -1.
          1    1    1    2  502    0  0.17421977398E+02  0.12355291483E+02  0.31155465881E+03  0.31228590098E+03  0.00000000000E+00 0. -1.
         22    1    3    3    0    0  0.17225406448E+02 -0.21674373124E+02  0.18176988871E+02  0.33119420315E+02  0.00000000000E+00 0.  1.
         22    1    3    3    0    0 -0.14009876334E+03  0.55811249894E+02  0.84314471815E+02  0.17277583530E+03  0.00000000000E+00 0.  1.
</event>
<event>
 7    1  0.6253338E-006  0.1185366E+03  0.7818608E-02  0.1414153E+00
          2   -1    0    0  502    0  0.00000000000E+00  0.00000000000E+00  0.15956794739E+04  0.15956794739E+04  0.00000000000E+00 0. -1.
          1   -1    0    0  501    0 -0.00000000000E+00 -0.00000000000E+00 -0.60898698487E+02  0.60898698487E+02  0.00000000000E+00 0. -1.
         25    2    1    2    0    0  0.12481947580E+03  0.39516620051E+02  0.40294478175E+03  0.44173732900E+03  0.12500362349E+03 0.  0.
          2    1    1    2  501    0 -0.21677436030E+02  0.15619712191E+02 -0.33950055252E+02  0.43202926908E+02  0.00000000000E+00 0. -1.
          1    1    1    2  502    0 -0.10314203977E+03 -0.55136332242E+02  0.11657860489E+04  0.11716379165E+04  0.00000000000E+00 0. -1.
         22    1    3    3    0    0  0.11567580728E+03 -0.21040009208E+02  0.29603792960E+03  0.31853105051E+03  0.00000000000E+00 0. -1.
         22    1    3    3    0    0  0.91436685266E+01  0.60556629260E+02  0.10690685215E+03  0.12320627849E+03  0.00000000000E+00 0. -1.
</event>
<event>
 7    1  0.6253338E-006  0.1167896E+03  0.7818608E-02  0.1324518E+00
          2   -1    0    0  502    0  0.00000000000E+00  0.00000000000E+00  0.14830964009E+04  0.14830964009E+04  0.00000000000E+00 0. -1.
          1   -1    0    0  501    0 -0.00000000000E+00 -0.00000000000E+00 -0.11749575608E+04  0.11749575608E+04  0.00000000000E+00 0. -1.
         25    2    1    2    0    0  0.11737184528E+02  0.16604197946E+03  0.48503833222E+03  0.52782080984E+03  0.12499969253E+03 0.  0.
          2    1    1    2  501    0 -0.30948304620E+02 -0.11233447594E+03 -0.11497864877E+04  0.11556754731E+04  0.00000000000E+00 0. -1.
          1    1    1    2  502    0  0.19211120093E+02 -0.53707503527E+02  0.97288699556E+03  0.97455767874E+03  0.00000000000E+00 0. -1.
         22    1    3    3    0    0 -0.35033418209E+01  0.13188888404E+02 -0.47965192187E+01  0.14464673445E+02  0.00000000000E+00 0.  1.
         22    1    3    3    0    0  0.15240526348E+02  0.15285309106E+03  0.48983485144E+03  0.51335613639E+03  0.00000000000E+00 0.  1.
</event>
<event>
 7    1  0.6253338E-006  0.9954492E+02  0.7818608E-02  0.1433735E+00
          2   -1    0    0  502    0  0.00000000000E+00  0.00000000000E+00  0.16011531197E+04  0.16011531197E+04  0.00000000000E+00 0. -1.
          1   -1    0    0  501    0 -0.00000000000E+00 -0.00000000000E+00 -0.37354319420E+04  0.37354319420E+04  0.00000000000E+00 0. -1.
         25    2    1    2    0    0  0.12217974314E+03 -0.24029204287E+02 -0.71414243477E+03  0.73561491782E+03  0.12499839159E+03 0.  0.
          2    1    1    2  501    0 -0.96710672916E+02  0.13948646889E+02 -0.30096423988E+04  0.30112281362E+04  0.00000000000E+00 0. -1.
          1    1    1    2  502    0 -0.25469070224E+02  0.10080557399E+02  0.15895060113E+04  0.15897420078E+04  0.00000000000E+00 0. -1.
         22    1    3    3    0    0  0.12351347819E+03 -0.62115826558E+02 -0.55091916655E+03  0.56800165781E+03  0.00000000000E+00 0. -1.
         22    1    3    3    0    0 -0.13337350501E+01  0.38086622270E+02 -0.16322326821E+03  0.16761326001E+03  0.00000000000E+00 0. -1.
</event>
<event>
 7    1  0.6253338E-006  0.6573237E+02  0.7818608E-02  0.1464785E+00
          2   -1    0    0  502    0  0.00000000000E+00  0.00000000000E+00  0.27954718773E+04  0.27954718773E+04  0.00000000000E+00 0. -1.
          1   -1    0    0  501    0 -0.00000000000E+00 -0.00000000000E+00 -0.60971364887E+02  0.60971364887E+02  0.00000000000E+00 0. -1.
         25    2    1    2    0    0  0.35056255154E+02 -0.77410657453E+02  0.15288224410E+03  0.21498882316E+03  0.12500345040E+03 0.  0.
          2    1    1    2  501    0 -0.30728350243E+02  0.12006249830E+02 -0.20283411873E+02  0.38727229966E+02  0.00000000000E+00 0. -1.
          1    1    1    2  502    0 -0.43279049108E+01  0.65404407623E+02  0.26019016801E+04  0.26027271890E+04  0.00000000000E+00 0. -1.
         22    1    3    3    0    0 -0.24715168164E+02 -0.27300090548E+02 -0.66394817540E+01  0.37419476203E+02  0.00000000000E+00 0.  1.
         22    1    3    3    0    0  0.59771423318E+02 -0.50110566905E+02  0.15952172585E+03  0.17756934696E+03  0.00000000000E+00 0.  1.
</event>
<event>
 7    1  0.6253338E-006  0.1479204E+03  0.7818608E-02  0.1412299E+00
          2   -1    0    0  502    0  0.00000000000E+00  0.00000000000E+00  0.96749616556E+03  0.96749616556E+03  0.00000000000E+00 0. -1.
          1   -1    0    0  501    0 -0.00000000000E+00 -0.00000000000E+00 -0.10544805482E+03  0.10544805482E+03  0.00000000000E+00 0. -1.
         25    2    1    2    0    0  0.13080427728E+03 -0.74776077972E+02  0.30895923636E+03  0.36576223719E+03  0.12499993453E+03 0.  0.
          2    1    1    2  501    0 -0.13735625470E+03  0.54066201843E+02 -0.59378744460E+01  0.14773338566E+03  0.00000000000E+00 0. -1.
          1    1    1    2  502    0  0.65519774140E+01  0.20709876128E+02  0.55902674883E+03  0.55944859753E+03  0.00000000000E+00 0. -1.
         22    1    3    3    0    0 -0.22697413480E+02  0.37910883898E+01  0.43501572415E+02  0.49213125611E+02  0.00000000000E+00 0. -1.
         22    1    3    3    0    0  0.15350169076E+03 -0.78567166361E+02  0.26545766394E+03  0.31654911158E+03  0.00000000000E+00 0. -1.
</event>
<event>
 7    1  0.6253338E-006  0.1117738E+03  0.7818608E-02  0.1282389E+00
          2   -1    0    0  502    0  0.00000000000E+00  0.00000000000E+00  0.36388288732E+03  0.36388288732E+03  0.00000000000E+00 0. -1.
          1   -1    0    0  501    0 -0.00000000000E+00 -0.00000000000E+00 -0.37149972068E+03  0.37149972068E+03  0.00000000000E+00 0. -1.
         25    2    1    2    0    0  0.40326430463E+02 -0.10982277107E+03  0.95568466757E+02  0.19606329882E+03  0.12498089161E+03 0.  0.
          2    1    1    2  501    0 -0.10286991558E+03  0.48335278620E+02 -0.30164238841E+03  0.32234554313E+03  0.00000000000E+00 0. -1.
          1    1    1    2  502    0  0.62543485113E+02  0.61487492454E+02  0.19845708829E+03  0.21697376605E+03  0.00000000000E+00 0. -1.
         22    1    3    3    0    0 -0.27691501174E+02 -0.85711280335E+02  0.83641441201E+02  0.12291921534E+03  0.00000000000E+00 0.  1.
         22    1    3    3    0    0  0.68017931637E+02 -0.24111490738E+02  0.11927025556E+02  0.73144083482E+02  0.00000000000E+00 0.  1.
</event>
<event>
 7    1  0.6253338E-006  0.2113780E+03  0.7818608E-02  0.1263099E+00
          2   -1    0    0  502    0  0.00000000000E+00  0.00000000000E+00  0.29684985064E+03  0.29684985064E+03  0.00000000000E+00 0. -1.
          1   -1    0    0  501    0 -0.00000000000E+00 -0.00000000000E+00 -0.13039703743E+04  0.13039703743E+04  0.00000000000E+00 0. -1.
         25    2    1    2    0    0 -0.20053883507E+03  0.15509843147E+02 -0.19362964336E+03  0.30590077999E+03  0.12500587508E+03 0.  0.
          2    1    1    2  501    0 -0.10274918143E+02 -0.54889115938E+02 -0.10055088163E+04  0.10070582747E+04  0.00000000000E+00 0. -1.
          1    1    1    2  502    0  0.21081375322E+03  0.39379272791E+02  0.19201793592E+03  0.28786117033E+03  0.00000000000E+00 0. -1.
         22    1    3    3    0    0  0.19829686931E+01  0.78277125902E+01 -0.65786694336E+02  0.66280422456E+02  0.00000000000E+00 0.  1.
         22    1    3    3    0    0 -0.20252180377E+03  0.76821305564E+01 -0.12784294902E+03  0.23962035754E+03  0.00000000000E+00 0.  1.
</event>
<event>
 7    1  0.6253338E-006  0.5464060E+02  0.7818608E-02  0.1531443E+00
          2   -1    0    0  502    0  0.00000000000E+00  0.00000000000E+00  0.61863705858E+03  0.61863705858E+03  0.00000000000E+00 0. -1.
          1   -1    0    0  501    0 -0.00000000000E+00 -0.00000000000E+00 -0.27683501275E+03  0.27683501275E+03  0.00000000000E+00 0. -1.
         25    2    1    2    0    0 -0.21934679795E+02  0.49747042165E+02 -0.29824654036E+02  0.13953566876E+03  0.12499917794E+03 0.  0.
          2    1    1    2  501    0 -0.20212819949E+02 -0.14827561201E+02 -0.19000118772E+03  0.19164776543E+03  0.00000000000E+00 0. -1.
          1    1    1    2  502    0  0.42147499744E+02 -0.34919480964E+02  0.56162788758E+03  0.56428863713E+03  0.00000000000E+00 0. -1.
         22    1    3    3    0    0 -0.68505361834E+02  0.50255249662E+01 -0.30034537858E+02  0.74968753261E+02  0.00000000000E+00 0.  1.
         22    1    3    3    0    0  0.46570682039E+02  0.44721517199E+02  0.20988382204E+00  0.64566915501E+02  0.00000000000E+00 0.  1.
</event>
<event>
 7    1  0.6253338E-006  0.1548483E+03  0.7818608E-02  0.1241036E+00
          2   -1    0    0  502    0  0.00000000000E+00  0.00000000000E+00  0.18408320333E+04  0.18408320333E+04  0.00000000000E+00 0. -1.
          1   -1    0    0  501    0 -0.00000000000E+00 -0.00000000000E+00 -0.56735542310E+02  0.56735542310E+02  0.00000000000E+00 0. -1.
         25    2    1    2    0    0  0.16586015356E+03  0.32981221798E+02  0.86019262774E+03  0.88552455260E+03  0.12500009963E+03 0.  0.
          2    1    1    2  501    0 -0.20655831103E+02 -0.92680338339E+02  0.23184782356E+02  0.97743759934E+02  0.00000000000E+00 0. -1.
          1    1    1    2  502    0 -0.14520432245E+03  0.59699116542E+02  0.90071908087E+03  0.91429926305E+03  0.00000000000E+00 0. -1.
         22    1    3    3    0    0  0.78824025470E+02  0.55884187516E+02  0.23815421639E+03  0.25700914418E+03  0.00000000000E+00 0. -1.
         22    1    3    3    0    0  0.87036128087E+02 -0.22902965719E+02  0.62203841135E+03  0.62851540842E+03  0.00000000000E+00 0. -1.
</event>
<event>
 7    1  0.6253338E-006  0.4922262E+02  0.7818608E-02  0.1492091E+00
          2   -1    0    0  502    0  0.00000000000E+00  0.00000000000E+00  0.78975416270E+03  0.78975416270E+03  0.00000000000E+00 0. -1.
          1   -1    0    0  501    0 -0.00000000000E+00 -0.00000000000E+00 -0.17053457728E+04  0.17053457728E+04  0.00000000000E+00 0. -1.
         25    2    1    2    0    0 -0.16814391968E+02  0.11181785805E+02  0.16746109123E+03  0.20994133434E+03  0.12499756268E+03 0.  0.
          2    1    1    2  501    0  0.48954524974E+02  0.57174415564E+01 -0.16831961499E+04  0.16839176089E+04  0.00000000000E+00 0. -1.
          1    1    1    2  502    0 -0.32140133006E+02 -0.16899227362E+02  0.60014344850E+03  0.60124099229E+03  0.00000000000E+00 0. -1.
         22    1    3    3    0    0  0.12650655534E+02  0.43978442111E+02  0.10561185486E+02  0.46964679226E+02  0.00000000000E+00 0.  1.
         22    1    3    3    0    0 -0.29465047502E+02 -0.32796656306E+02  0.15689990574E+03  0.16297665511E+03  0.00000000000E+00 0.  1.
</event>
<event>
 7    1  0.6253338E-006  0.1043234E+03  0.7818608E-02  0.1337974E+00
          2   -1    0    0  502    0  0.00000000000E+00  0.00000000000E+00  0.52309121679E+03  0.52309121679E+03  0.00000000000E+00 0. -1.
          1   -1    0    0  501    0 -0.00000000000E+00 -0.00000000000E+00 -0.88474992228E+02  0.88474992228E+02  0.00000000000E+00 0. -1.
         25    2    1    2    0    0  0.36705105191E+01  0.56374019385E+02  0.28822614116E+02  0.14016813485E+03  0.12499944094E+03 0.  0.
          2    1    1    2  501    0 -0.18680576117E+02  0.53577279354E+02  0.66660518615E+01  0.57130771344E+02  0.00000000000E+00 0. -1.
          1    1    1    2  502    0  0.15010065598E+02 -0.10995129874E+03  0.39912755859E+03  0.41426730282E+03  0.00000000000E+00 0. -1.
         22    1    3    3    0    0  0.62510640560E+02  0.23400246033E+02 -0.18096720879E+00  0.66747168081E+02  0.00000000000E+00 0.  1.
         22    1    3    3    0    0 -0.58840130041E+02  0.32973773352E+02  0.29003581324E+02  0.73420966773E+02  0.00000000000E+00 0.  1.
</event>
<event>
 7    1  0.6253338E-006  0.4042812E+02  0.7818608E-02  0.1521938E+00
          2   -1    0    0  502    0  0.00000000000E+00  0.00000000000E+00  0.13220708960E+04  0.13220708960E+04  0.00000000000E+00 0. -1.
          1   -1    0    0  501    0 -0.00000000000E+00 -0.00000000000E+00 -0.63593603193E+02  0.63593603193E+02  0.00000000000E+00 0. -1.
         25    2    1    2    0    0 -0.18179635601E+02 -0.44009891197E+02  0.18401362298E+03  0.22749467999E+03  0.12500178523E+03 0.  0.
          2    1    1    2  501    0 -0.19920429970E+02  0.30086312318E+02 -0.33635116083E+02  0.49328802469E+02  0.00000000000E+00 0. -1.
          1    1    1    2  502    0  0.38100065570E+02  0.13923578879E+02  0.11080987859E+04  0.11088410167E+04  0.00000000000E+00 0. -1.
         22    1    3    3    0    0 -0.49544486984E+02 -0.71529654955E+02  0.92924261794E+02  0.12730304850E+03  0.00000000000E+00 0. -1.
         22    1    3    3    0    0  0.31364851383E+02  0.27519763758E+02  0.91089361182E+02  0.10019163149E+03  0.00000000000E+00 0. -1.
</event>
<event>
 7    1  0.6253338E-006  0.4531550E+02  0.7818608E-02  0.1587010E+00
          2   -1    0    0  502    0  0.00000000000E+00  0.00000000000E+00  0.12055650746E+04  0.12055650746E+04  0.00000000000E+00 0. -1.
          1   -1    0    0  501    0 -0.00000000000E+00 -0.00000000000E+00 -0.26361850559E+03  0.26361850559E+03  0.00000000000E+00 0. -1.
         25    2    1    2    0    0  0.32564823145E+02 -0.90615736972E+01  0.25075283223E+03  0.28221284250E+03  0.12499810311E+03 0.  0.
          2    1    1    2  501    0  0.19056178557E+01 -0.21157642427E+02 -0.24687264502E+03  0.24778494723E+03  0.00000000000E+00 0. -1.
          1    1    1    2  502    0 -0.34470441000E+02  0.30219216124E+02  0.93806638183E+03  0.93918579048E+03  0.00000000000E+00 0. -1.
         22    1    3    3    0    0  0.21311540791E+02  0.55146642854E+02  0.15920517854E+03  0.16982821574E+03  0.00000000000E+00 0.  1.
         22    1    3    3    0    0  0.11253282354E+02 -0.64208216551E+02  0.91547653689E+02  0.11238462676E+03  0.00000000000E+00 0.  1.
</event>
<event>
 7    1  0.6253338E-006  0.7510723E+02  0.7818608E-02  0.1414305E+00
          2   -1    0    0  502    0  0.00000000000E+00  0.00000000000E+00  0.47402989304E+04  0.47402989304E+04  0.00000000000E+00 0. -1.
          1   -1    0    0  501    0 -0.00000000000E+00 -0.00000000000E+00 -0.24562580808E+03  0.24562580808E+03  0.00000000000E+00 0. -1.
         25    2    1    2    0    0 -0.29005440732E+01  0.35607268766E+02  0.41648548971E+04  0.41668831456E+04  0.12499017666E+03 0.  0.
          2    1    1    2  501    0  0.27008413948E+02 -0.70143955486E+02 -0.23803921322E+03  0.24962430961E+03  0.00000000000E+00 0. -1.
          1    1    1    2  502    0 -0.24107869875E+02  0.34536686720E+02  0.56785743844E+03  0.56941728329E+03  0.00000000000E+00 0. -1.
         22    1    3    3    0    0  0.25833636285E+02 -0.33100516872E+02  0.71997740602E+03  0.72120072529E+03  0.00000000000E+00 0.  1.
         22    1    3    3    0    0 -0.28734180358E+02  0.68707785638E+02  0.34448774911E+04  0.34456824203E+04  0.00000000000E+00 0.  1.
</event>
<event>
 7    1  0.6253338E-006  0.5282522E+02  0.7818608E-02  0.1437449E+00
          2   -1    0    0  502    0  0.00000000000E+00  0.00000000000E+00  0.82472268738E+03  0.82472268738E+03  0.00000000000E+00 0. -1.
          1   -1    0    0  501    0 -0.00000000000E+00 -0.00000000000E+00 -0.25889561597E+03  0.25889561597E+03  0.00000000000E+00 0. -1.
         25    2    1    2    0    0  0.28207611580E+02 -0.18937951698E+02  0.13317634033E+03  0.18578259579E+03  0.12499967963E+03 0.  0.
          2    1    1    2  501    0 -0.36052793734E+02 -0.34925089465E+02 -0.22875328424E+03  0.23419571059E+03  0.00000000000E+00 0. -1.
          1    1    1    2  502    0  0.78451821541E+01  0.53863041163E+02  0.66140401532E+03  0.66363999696E+03  0.00000000000E+00 0. -1.
         22    1    3    3    0    0 -0.18689561215E+02 -0.46502648740E+02  0.99675426412E+01  0.51099392800E+02  0.00000000000E+00 0. -1.
         22    1    3    3    0    0  0.46897172795E+02  0.27564697042E+02  0.12320879769E+03  0.13468320299E+03  0.00000000000E+00 0. -1.
</event>
<event>
 7    1  0.6253338E-006  0.1338270E+03  0.7818608E-02  0.1422745E+00
          2   -1    0    0  502    0  0.00000000000E+00  0.00000000000E+00  0.50875683996E+03  0.50875683996E+03  0.00000000000E+00 0. -1.
          1   -1    0    0  501    0 -0.00000000000E+00 -0.00000000000E+00 -0.69415702707E+03  0.69415702707E+03  0.00000000000E+00 0. -1.
         25    2    1    2    0    0  0.10182334361E+03  0.11553684138E+03 -0.36983658596E+03  0.41965871113E+03  0.12497031044E+03 0.  0.
          2    1    1    2  501    0 -0.81769878509E+01 -0.20584756716E+02 -0.28978905295E+03  0.29063429004E+03  0.00000000000E+00 0. -1.
          1    1    1    2  502    0 -0.93646355758E+02 -0.94952084666E+02  0.47422545181E+03  0.49262086586E+03  0.00000000000E+00 0. -1.
         22    1    3    3    0    0  0.82213180308E+02  0.98319331533E+02 -0.14586014938E+03  0.19416714745E+03  0.00000000000E+00 0. -1.
         22    1    3    3    0    0  0.19610163301E+02  0.17217509849E+02 -0.22397643658E+03  0.22549156369E+03  0.00000000000E+00 0. -1.
</event>
<event>
 7    1  0.6253338E-006  0.1070911E+03  0.7818608E-02  0.1370845E+00
          2   -1    0    0  502    0  0.00000000000E+00  0.00000000000E+00  0.22175978110E+03  0.22175978110E+03  0.00000000000E+00 0. -1.
          1   -1    0    0  501    0 -0.00000000000E+00 -0.00000000000E+00 -0.16010633018E+04  0.16010633018E+04  0.00000000000E+00 0. -1.
         25    2    1    2    0    0 -0.11966872379E+03 -0.16818006537E+02 -0.13824068311E+03  0.22212489270E+03  0.12500213075E+03 0.  0.
          2    1    1    2  501    0  0.10444090457E+03 -0.22145767058E+02 -0.14164109319E+04  0.14204289019E+04  0.00000000000E+00 0. -1.
          1    1    1    2  502    0  0.15227819228E+02  0.38963773595E+02  0.17534809427E+03  0.18026928827E+03  0.00000000000E+00 0. -1.
         22    1    3    3    0    0 -0.86552899582E+02  0.19033475610E+02 -0.15406863430E+02  0.89950258814E+02  0.00000000000E+00 0. -1.
         22    1    3    3    0    0 -0.33115824211E+02 -0.35851482148E+02 -0.12283381968E+03  0.13217463389E+03  0.00000000000E+00 0. -1.
</event>
<event>
 7    1  0.6253338E-006  0.2918739E+02  0.7818608E-02  0.1656219E+00
          2   -1    0    0  502    0  0.00000000000E+00  0.00000000000E+00  0.59223295629E+03  0.59223295629E+03  0.00000000000E+00 0. -1.
          1   -1    0    0  501    0 -0.00000000000E+00 -0.00000000000E+00 -0.16701677037E+03  0.16701677037E+03  0.00000000000E+00 0. -1.
         25    2    1    2    0    0  0.35843171085E+02  0.67393348225E+01  0.93007508932E+02  0.16001766788E+03  0.12500042308E+03 0.  0.
          2    1    1    2  501    0 -0.16213181179E+02  0.14860486701E+02 -0.13214465305E+03  0.13396234784E+03  0.00000000000E+00 0. -1.
          1    1    1    2  502    0 -0.19629989906E+02 -0.21599821523E+02  0.46435333004E+03  0.46526971093E+03  0.00000000000E+00 0. -1.
         22    1    3    3    0    0 -0.21000592814E+02 -0.46967534917E+02  0.29729272998E+02  0.59420568053E+02  0.00000000000E+00 0. -1.
         22    1    3    3    0    0  0.56843763899E+02  0.53706869739E+02  0.63278235934E+02  0.10059709983E+03  0.00000000000E+00 0. -1.
</event>
<event>
 7    1  0.6253338E-006  0.1346038E+03  0.7818608E-02  0.1258510E+00
          2   -1    0    0  502    0  0.00000000000E+00  0.00000000000E+00  0.95957239846E+03  0.95957239846E+03  0.00000000000E+00 0. -1.
          1   -1    0    0  501    0 -0.00000000000E+00 -0.00000000000E+00 -0.23921411194E+03  0.23921411194E+03  0.00000000000E+00 0. -1.
         25    2    1    2    0    0 -0.19528451221E+03  0.20871431795E+02 -0.53155003516E+02  0.23880123232E+03  0.12501566616E+03 0.  0.
          2    1    1    2  501    0  0.10550330803E+03 -0.39693310105E+02 -0.55685762075E+02  0.12572752670E+03  0.00000000000E+00 0. -1.
          1    1    1    2  502    0  0.89781204178E+02  0.18821878311E+02  0.82919905211E+03  0.83425775139E+03  0.00000000000E+00 0. -1.
         22    1    3    3    0    0 -0.68127890560E+02  0.48898525594E+01  0.41100308384E+02  0.79715465748E+02  0.00000000000E+00 0. -1.
         22    1    3    3    0    0 -0.12715662165E+03  0.15981579235E+02 -0.94255311900E+02  0.15908576657E+03  0.00000000000E+00 0. -1.
</event>
<event>
 7    1  0.6253338E-006  0.8912344E+02  0.7818608E-02  0.1431972E+00
          2   -1    0    0  502    0  0.00000000000E+00  0.00000000000E+00  0.23714589749E+04  0.23714589749E+04  0.00000000000E+00 0. -1.
          1   -1    0    0  501    0 -0.00000000000E+00 -0.00000000000E+00 -0.66679230924E+02  0.66679230924E+02  0.00000000000E+00 0. -1.
         25    2    1    2    0    0  0.85395652819E+02  0.17061340164E+02  0.12858226235E+03  0.19936557535E+03  0.12501890895E+03 0.  0.
          2    1    1    2  501    0 -0.90478847707E+02  0.13523323685E+02  0.35939557939E+02  0.98290152053E+02  0.00000000000E+00 0. -1.
          1    1    1    2  502    0  0.50831948879E+01 -0.30584663850E+02  0.21402579237E+04  0.21404824784E+04  0.00000000000E+00 0. -1.
         22    1    3    3    0    0  0.14461897424E+01  0.58575800270E+02  0.45791641152E+02  0.74364576523E+02  0.00000000000E+00 0.  1.
         22    1    3    3    0    0  0.83949463076E+02 -0.41514460106E+02  0.82790621198E+02  0.12500099882E+03  0.00000000000E+00 0.  1.
</event>
<event>
 7    1  0.6253338E-006  0.1146141E+03  0.7818608E-02  0.1253043E+00
          2   -1    0    0  502    0  0.00000000000E+00  0.00000000000E+00  0.73231930298E+02  0.73231930298E+02  0.00000000000E+00 0. -1.
          1   -1    0    0  501    0 -0.00000000000E+00 -0.00000000000E+00 -0.17788123197E+04  0.17788123197E+04  0.00000000000E+00 0. -1.
         25    2    1    2    0    0  0.40834113594E+02  0.67208595580E+02 -0.70300146112E+03  0.71834584075E+03  0.12500108973E+03 0.  0.
          2    1    1    2  501    0  0.78355119196E+02 -0.83647290743E+02 -0.10068039288E+04  0.10133067379E+04  0.00000000000E+00 0. -1.
          1    1    1    2  502    0 -0.11918923279E+03  0.16438695163E+02  0.42250005102E+01  0.12039167139E+03  0.00000000000E+00 0. -1.
         22    1    3    3    0    0  0.17553949277E+02  0.76993970352E+02 -0.67876730281E+03  0.68334564020E+03  0.00000000000E+00 0.  1.
         22    1    3    3    0    0  0.23280164316E+02 -0.97853747718E+01 -0.24234158308E+02  0.35000200555E+02  0.00000000000E+00 0.  1.
</event>
<event>
 7    1  0.6253338E-006  0.1131848E+03  0.7818608E-02  0.1288967E+00
          2   -1    0    0  502    0  0.00000000000E+00  0.00000000000E+00  0.10647307836E+04  0.10647307836E+04  0.00000000000E+00 0. -1.
          1   -1    0    0  501    0 -0.00000000000E+00 -0.00000000000E+00 -0.97484224797E+03  0.97484224797E+03  0.00000000000E+00 0. -1.
         25    2    1    2    0    0 -0.72663377475E+02 -0.86706609283E+02 -0.23321946364E+02  0.17019351161E+03  0.12499566269E+03 0.  0.
          2    1    1    2  501    0  0.76664632998E+02 -0.27369143574E+02 -0.87289855827E+03  0.87668604929E+03  0.00000000000E+00 0. -1.
          1    1    1    2  502    0 -0.40012555233E+01  0.11407575286E+03  0.98610904024E+03  0.99269347066E+03  0.00000000000E+00 0. -1.
         22    1    3    3    0    0  0.11858815500E+02 -0.82939003891E+02 -0.74667738117E+01  0.84114580084E+02  0.00000000000E+00 0.  1.
         22    1    3    3    0    0 -0.84522192975E+02 -0.37676053917E+01 -0.15855172553E+02  0.86078931525E+02  0.00000000000E+00 0.  1.
</event>
<event>
 7    1  0.6253338E-006  0.7938176E+02  0.7818608E-02  0.1424796E+00
          2   -1    0    0  502    0  0.00000000000E+00  0.00000000000E+00  0.20372290584E+03  0.20372290584E+03  0.00000000000E+00 0. -1.
          1   -1    0    0  501    0 -0.00000000000E+00 -0.00000000000E+00 -0.14667507041E+04  0.14667507041E+04  0.00000000000E+00 0. -1.
         25    2    1    2    0    0 -0.74676891263E+02  0.38315627179E+02 -0.17875357969E+03  0.23371675451E+03  0.12500381479E+03 0.  0.
          2    1    1    2  501    0  0.79517581182E+02 -0.18760666967E+01 -0.12573282941E+04  0.12598416585E+04  0.00000000000E+00 0. -1.
          1    1    1    2  502    0 -0.48406899189E+01 -0.36439560483E+02  0.17305407553E+03  0.17691519693E+03  0.00000000000E+00 0. -1.
         22    1    3    3    0    0 -0.25893691397E+01 -0.22969156030E+02 -0.12029797832E+03  0.12249853284E+03  0.00000000000E+00 0.  1.
         22    1    3    3    0    0 -0.72087522124E+02  0.61284783209E+02 -0.58455601369E+02  0.11121822167E+03  0.00000000000E+00 0.  1.
</event>
<event>
 7    1  0.6253338E-006  0.1593133E+03  0.7818608E-02  0.1294616E+00
          2   -1    0    0  502    0  0.00000000000E+00  0.00000000000E+00  0.14540290912E+04  0.14540290912E+04  0.00000000000E+00 0. -1.
          1   -1    0    0  501    0 -0.00000000000E+00 -0.00000000000E+00 -0.59152394080E+03  0.59152394080E+03  0.00000000000E+00 0. -1.
         25    2    1    2    0    0 -0.19484413704E+03 -0.62215324374E+01 -0.44106063682E+03  0.49815918279E+03  0.12500056337E+03 0.  0.
          2    1    1    2  501    0  0.39120728752E+02  0.38462475984E+02 -0.11105272807E+03  0.12386485332E+03  0.00000000000E+00 0. -1.
          1    1    1    2  502    0  0.15572340829E+03 -0.32240943546E+02  0.14146185153E+04  0.14235289959E+04  0.00000000000E+00 0. -1.
         22    1    3    3    0    0 -0.19350781736E+03 -0.39830164486E+02 -0.36634041226E+03  0.41621750928E+03  0.00000000000E+00 0. -1.
         22    1    3    3    0    0 -0.13363196814E+01  0.33608632049E+02 -0.74720224567E+02  0.81941673512E+02  0.00000000000E+00 0. -1.
</event>
<event>
 7    1  0.6253338E-006  0.1143611E+03  0.7818608E-02  0.1340812E+00
          2   -1    0    0  502    0  0.00000000000E+00  0.00000000000E+00  0.39299576906E+04  0.39299576906E+04  0.00000000000E+00 0. -1.
          1   -1    0    0  501    0 -0.00000000000E+00 -0.00000000000E+00 -0.32137951622E+03  0.32137951622E+03  0.00000000000E+00 0. -1.
         25    2    1    2    0    0 -0.10836864605E+03 -0.37020511679E+02  0.17300786731E+03  0.24222120972E+03  0.12500044221E+03 0.  0.
          2    1    1    2  501    0  0.11418308927E+03 -0.13146076367E+02 -0.27507750812E+03  0.29812452545E+03  0.00000000000E+00 0. -1.
          1    1    1    2  502    0 -0.58144432156E+01  0.50166588047E+02  0.37106478152E+04  0.37109914717E+04  0.00000000000E+00 0. -1.
         22    1    3    3    0    0 -0.33815733388E+02 -0.48581335804E+02  0.15317496317E+03  0.16421394385E+03  0.00000000000E+00 0. -1.
         22    1    3    3    0    0 -0.74552912663E+02  0.11560824125E+02  0.19832904140E+02  0.78007265864E+02  0.00000000000E+00 0. -1.
</event>
<event>
 7    1  0.6253338E-006  0.8330472E+02  0.7818608E-02  0.1393748E+00
          2   -1    0    0  502    0  0.00000000000E+00  0.00000000000E+00  0.25630336361E+03  0.25630336361E+03  0.00000000000E+00 0. -1.
          1   -1    0    0  501    0 -0.00000000000E+00 -0.00000000000E+00 -0.40876931305E+03  0.40876931305E+03  0.00000000000E+00 0. -1.
         25    2    1    2    0    0  0.11008628271E+03 -0.57605806071E+02  0.99397835929E+02  0.20234232590E+03  0.12500027411E+03 0.  0.
          2    1    1    2  501    0 -0.77414112474E+02  0.27182056576E+02 -0.34757048923E+03  0.35712330363E+03  0.00000000000E+00 0. -1.
          1    1    1    2  502    0 -0.32672170236E+02  0.30423749495E+02  0.95706703861E+02  0.10560704714E+03  0.00000000000E+00 0. -1.
         22    1    3    3    0    0 -0.22892899447E+02 -0.29376274573E+00  0.39466221218E+02  0.45626239806E+02  0.00000000000E+00 0.  1.
         22    1    3    3    0    0  0.13297918216E+03 -0.57312043325E+02  0.59931614711E+02  0.15671608609E+03  0.00000000000E+00 0.  1.
</event>
<event>
 7    1  0.6253338E-006  0.1067890E+03  0.7818608E-02  0.1298400E+00
          2   -1    0    0  502    0  0.00000000000E+00  0.00000000000E+00  0.87526582658E+03  0.87526582658E+03  0.00000000000E+00 0. -1.
          1   -1    0    0  501    0 -0.00000000000E+00 -0.00000000000E+00 -0.27613912886E+03  0.27613912886E+03  0.00000000000E+00 0. -1.
         25    2    1    2    0    0 -0.33239064343E+02  0.12230213286E+02  0.94901051248E+02  0.16089135440E+03  0.12500161949E+03 0.  0.
          2    1    1    2  501    0  0.10500686965E+03 -0.45309895959E+02 -0.22744945202E+03  0.25458335093E+03  0.00000000000E+00 0. -1.
          1    1    1    2  502    0 -0.71767805307E+02  0.33079682673E+02  0.73167509849E+03  0.73593025011E+03  0.00000000000E+00 0. -1.
         22    1    3    3    0    0 -0.35488196955E+02 -0.47712797973E+02  0.78918937130E+02  0.98813571190E+02  0.00000000000E+00 0. -1.
         22    1    3    3    0    0  0.22491326121E+01  0.59943011259E+02  0.15982114119E+02  0.62077783208E+02  0.00000000000E+00 0. -1.
</event>
<event>
 7    1  0.6253338E-006  0.1688843E+03  0.7818608E-02  0.1259195E+00
          2   -1    0    0  502    0  0.00000000000E+00  0.00000000000E+00  0.19840527352E+04  0.19840527352E+04  0.00000000000E+00 0. -1.
          1   -1    0    0  501    0 -0.00000000000E+00 -0.00000000000E+00 -0.21621147468E+04  0.21621147468E+04  0.00000000000E+00 0. -1.
         25    2    1    2    0    0 -0.91167523206E+02 -0.14612510701E+03  0.16785689098E+03  0.27104026630E+03  0.12499130338E+03 0.  0.
          2    1    1    2  501    0  0.21811266651E+02  0.16765650362E+03 -0.21063873011E+04  0.21131615880E+04  0.00000000000E+00 0. -1.
          1    1    1    2  502    0  0.69356256554E+02 -0.21531396614E+02  0.17604683985E+04  0.17619656278E+04  0.00000000000E+00 0. -1.
         22    1    3    3    0    0 -0.77653909034E+02 -0.16905471145E+03  0.15018251628E+03  0.23909080544E+03  0.00000000000E+00 0. -1.
         22    1    3    3    0    0 -0.13513614172E+02  0.22929604443E+02  0.17674374700E+02  0.31949460855E+02  0.00000000000E+00 0. -1.
</event>
<event>
 7    1  0.6253338E-006  0.2085983E+03  0.7818608E-02  0.1259317E+00
          2   -1    0    0  502    0  0.00000000000E+00  0.00000000000E+00  0.26608394832E+04  0.26608394832E+04  0.00000000000E+00 0. -1.
          1   -1    0    0  501    0 -0.00000000000E+00 -0.00000000000E+00 -0.40177493013E+03  0.40177493013E+03  0.00000000000E+00 0. -1.
         25    2    1    2    0    0  0.11919725099E+03 -0.10273803882E+03  0.23919056730E+03  0.31240683033E+03  0.12499124324E+03 0.  0.
          2    1    1    2  501    0  0.50470974815E+02 -0.30021566882E+02 -0.35790406562E+03  0.36268985920E+03  0.00000000000E+00 0. -1.
          1    1    1    2  502    0 -0.16966822581E+03  0.13275960571E+03  0.23777780514E+04  0.23875177238E+04  0.00000000000E+00 0. -1.
         22    1    3    3    0    0  0.11456227561E+03 -0.31214635643E+02  0.97576487268E+02  0.15368812361E+03  0.00000000000E+00 0. -1.
         22    1    3    3    0    0  0.46349753784E+01 -0.71523403180E+02  0.14161408003E+03  0.15871870672E+03  0.00000000000E+00 0. -1.
</event>
<event>
 7    1  0.6253338E-006  0.4069267E+02  0.7818608E-02  0.1609376E+00
          2   -1    0    0  502    0  0.00000000000E+00  0.00000000000E+00  0.13145733053E+03  0.13145733053E+03  0.00000000000E+00 0. -1.
          1   -1    0    0  501    0 -0.00000000000E+00 -0.00000000000E+00 -0.20984401464E+03  0.20984401464E+03  0.00000000000E+00 0. -1.
         25    2    1    2    0    0  0.23352655273E+02  0.30217619398E+01 -0.17914421006E+02  0.12845460937E+03  0.12500073054E+03 0.  0.
          2    1    1    2  501    0 -0.41048420482E+02  0.76636488432E+01 -0.13197091894E+03  0.13841975214E+03  0.00000000000E+00 0. -1.
          1    1    1    2  502    0  0.17695765209E+02 -0.10685410783E+02  0.71498655829E+02  0.74426983651E+02  0.00000000000E+00 0. -1.
         22    1    3    3    0    0  0.45262071452E+02 -0.40672339302E+02  0.22655540547E+02  0.64932024563E+02  0.00000000000E+00 0.  1.
         22    1    3    3    0    0 -0.21909416179E+02  0.43694101242E+02 -0.40569961553E+02  0.63522584811E+02  0.00000000000E+00 0.  1.
</event>
<event>
 7    1  0.6253338E-006  0.1728205E+03  0.7818608E-02  0.1244932E+00
          2   -1    0    0  502    0  0.00000000000E+00  0.00000000000E+00  0.13594660887E+04  0.13594660887E+04  0.00000000000E+00 0. -1.
          1   -1    0    0  501    0 -0.00000000000E+00 -0.00000000000E+00 -0.29706412313E+03  0.29706412313E+03  0.00000000000E+00 0. -1.
         25    2    1    2    0    0 -0.63157510288E+01 -0.11405119068E+03  0.56631184915E+02  0.17854825441E+03  0.12499930097E+03 0.  0.
          2    1    1    2  501    0 -0.18235808214E+02  0.19207467048E+03 -0.19506482720E+03  0.27436382879E+03  0.00000000000E+00 0. -1.
          1    1    1    2  502    0  0.24551559243E+02 -0.78023479801E+02  0.12008356078E+04  0.12036181286E+04  0.00000000000E+00 0. -1.
         22    1    3    3    0    0 -0.27390255108E+02 -0.31318308779E+02 -0.34224843195E+02  0.53873949469E+02  0.00000000000E+00 0. -1.
         22    1    3    3    0    0  0.21074504079E+02 -0.82732881898E+02  0.90856028110E+02  0.12467430494E+03  0.00000000000E+00 0. -1.
</event>
<event>
 7    1  0.6253338E-006  0.7645578E+02  0.7818608E-02  0.1386547E+00
          2   -1    0    0  502    0  0.00000000000E+00  0.00000000000E+00  0.37263997553E+04  0.37263997553E+04  0.00000000000E+00 0. -1.
          1   -1    0    0  501    0 -0.00000000000E+00 -0.00000000000E+00 -0.15988489686E+03  0.15988489686E+03  0.00000000000E+00 0. -1.
         25    2    1    2    0    0 -0.76553397468E+01  0.83763219466E+02  0.60296438298E+01  0.15078300397E+03  0.12499710605E+03 0.  0.
          2    1    1    2  501    0 -0.43808034872E+02 -0.27151808996E+02 -0.79482321582E+02  0.94730164653E+02  0.00000000000E+00 0. -1.
          1    1    1    2  502    0  0.51463374619E+02 -0.56611410470E+02  0.36399675362E+04  0.36407714836E+04  0.00000000000E+00 0. -1.
         22    1    3    3    0    0 -0.60988004462E+02  0.52392506311E+02 -0.21247754191E+02  0.83162362064E+02  0.00000000000E+00 0. -1.
         22    1    3    3    0    0  0.53332664716E+02  0.31370713155E+02  0.27277398021E+02  0.67620641910E+02  0.00000000000E+00 0. -1.
</event>
<event>
 7    1  0.6253338E-006  0.3616325E+03  0.7818608E-02  0.1266126E+00
          2   -1    0    0  502    0  0.00000000000E+00  0.00000000000E+00  0.14380879424E+04  0.14380879424E+04  0.00000000000E+00 0. -1.
          1   -1    0    0  501    0 -0.00000000000E+00 -0.00000000000E+00 -0.19462182245E+04  0.19462182245E+04  0.00000000000E+00 0. -1.
         25    2    1    2    0    0  0.19330839092E+03 -0.34127927174E+03 -0.62310674200E+03  0.74681190095E+03  0.12500531252E+03 0.  0.
          2    1    1    2  501    0 -0.14199733787E+02  0.28331451432E+02 -0.12374344555E+04  0.12378401897E+04  0.00000000000E+00 0. -1.
          1    1    1    2  502    0 -0.17910865713E+03  0.31294782030E+03  0.13524109153E+04  0.13996540762E+04  0.00000000000E+00 0. -1.
         22    1    3    3    0    0  0.13000962908E+02 -0.10315730349E+03 -0.23584794842E+03  0.25774931440E+03  0.00000000000E+00 0. -1.
         22    1    3    3    0    0  0.18030742801E+03 -0.23812196825E+03 -0.38725879358E+03  0.48906258655E+03  0.00000000000E+00 0. -1.
</event>
<event>
 7    1  0.6253338E-006  0.1072734E+03  0.7818608E-02  0.1274639E+00
          2   -1    0    0  502    0  0.00000000000E+00  0.00000000000E+00  0.67397917087E+03  0.67397917087E+03  0.00000000000E+00 0. -1.
          1   -1    0    0  501    0 -0.00000000000E+00 -0.00000000000E+00 -0.98517376761E+03  0.98517376761E+03  0.00000000000E+00 0. -1.
         25    2    1    2    0    0  0.14119090545E+03 -0.74451126917E+02 -0.60585042476E+02  0.21159626528E+03  0.12499836010E+03 0.  0.
          2    1    1    2  501    0 -0.95913992332E+02 -0.21964939408E+02 -0.84145393209E+03  0.84718750718E+03  0.00000000000E+00 0. -1.
          1    1    1    2  502    0 -0.45276913122E+02  0.96416066326E+02  0.59084437783E+03  0.60036916603E+03  0.00000000000E+00 0. -1.
         22    1    3    3    0    0  0.11141631498E+03 -0.58330496634E+02 -0.99245556555E+02  0.16020525140E+03  0.00000000000E+00 0.  1.
         22    1    3    3    0    0  0.29774590475E+02 -0.16120630283E+02  0.38660514079E+02  0.51391013879E+02  0.00000000000E+00 0.  1.
</event>
<event>
 7    1  0.6253338E-006  0.4966358E+02  0.7818608E-02  0.1474765E+00
          2   -1    0    0  502    0  0.00000000000E+00  0.00000000000E+00  0.25190917467E+03  0.25190917467E+03  0.00000000000E+00 0. -1.
          1   -1    0    0  501    0 -0.00000000000E+00 -0.00000000000E+00 -0.11832848981E+04  0.11832848981E+04  0.00000000000E+00 0. -1.
         25    2    1    2    0    0 -0.56148663822E+02  0.30620308318E+02 -0.39174809172E+03  0.41615131679E+03  0.12500030148E+03 0.  0.
          2    1    1    2  501    0  0.18529538756E+02 -0.46026758192E+02 -0.77681450062E+03  0.77839744003E+03  0.00000000000E+00 0. -1.
          1    1    1    2  502    0  0.37619125067E+02  0.15406449874E+02  0.23718686894E+03  0.24064531591E+03  0.00000000000E+00 0. -1.
         22    1    3    3    0    0 -0.59417068973E+02 -0.93276037437E+01 -0.71622717863E+02  0.93526498870E+02  0.00000000000E+00 0.  1.
         22    1    3    3    0    0  0.32684051509E+01  0.39947912062E+02 -0.32012537386E+03  0.32262481792E+03  0.00000000000E+00 0.  1.
</event>
<event>
 7    1  0.6253338E-006  0.5333465E+02  0.7818608E-02  0.1510538E+00
          2   -1    0    0  502    0  0.00000000000E+00  0.00000000000E+00  0.56117636733E+03  0.56117636733E+03  0.00000000000E+00 0. -1.
          1   -1    0    0  501    0 -0.00000000000E+00 -0.00000000000E+00 -0.22107355791E+04  0.22107355791E+04  0.00000000000E+00 0. -1.
         25    2    1    2    0    0 -0.20173202072E+02  0.22789116489E+02  0.25713440393E+03  0.28752065118E+03  0.12499488491E+03 0.  0.
          2    1    1    2  501    0  0.49552120311E+02 -0.19811473989E+02 -0.21944625035E+04  0.21951112925E+04  0.00000000000E+00 0. -1.
          1    1    1    2  502    0 -0.29378918239E+02 -0.29776425000E+01  0.28776888782E+03  0.28928000275E+03  0.00000000000E+00 0. -1.
         22    1    3    3    0    0  0.29194110357E+02 -0.18558074341E+02  0.16328549429E+02  0.38253362326E+02  0.00000000000E+00 0. -1.
         22    1    3    3    0    0 -0.49367312430E+02  0.41347190830E+02  0.24080585451E+03  0.24926728885E+03  0.00000000000E+00 0. -1.
</event>
<event>
 7    1  0.6253338E-006  0.1373668E+03  0.7818608E-02  0.1318186E+00
          2   -1    0    0  502    0  0.00000000000E+00  0.00000000000E+00  0.19126563113E+04  0.19126563113E+04  0.00000000000E+00 0. -1.
          1   -1    0    0  501    0 -0.00000000000E+00 -0.00000000000E+00 -0.12690696697E+04  0.12690696697E+04  0.00000000000E+00 0. -1.
         25    2    1    2    0    0 -0.14275536957E+03 -0.10837138290E+02  0.26962811327E+03  0.32988028202E+03  0.12500056757E+03 0.  0.
          2    1    1    2  501    0  0.18295656453E+02 -0.47939694409E+02 -0.12354735973E+04  0.12365386993E+04  0.00000000000E+00 0. -1.
          1    1    1    2  502    0  0.12445971312E+03  0.58776832699E+02  0.16094321256E+04  0.16153069997E+04  0.00000000000E+00 0. -1.
         22    1    3    3    0    0  0.88547454641E+01 -0.27306316148E+02  0.13346674957E+02  0.31657150080E+02  0.00000000000E+00 0. -1.
         22    1    3    3    0    0 -0.15161011503E+03  0.16469177858E+02  0.25628143831E+03  0.29822313194E+03  0.00000000000E+00 0. -1.
</event>
<event>
 7    1  0.6253338E-006  0.1400627E+03  0.7818608E-02  0.1301543E+00
          2   -1    0    0  502    0  0.00000000000E+00  0.00000000000E+00  0.56245889633E+03  0.56245889633E+03  0.00000000000E+00 0. -1.
          1   -1    0    0  501    0 -0.00000000000E+00 -0.00000000000E+00 -0.76325397902E+03  0.76325397902E+03  0.00000000000E+00 0. -1.
         25    2    1    2    0    0  0.80466262848E+02 -0.49066910631E+02 -0.24593723270E+03  0.29153414590E+03  0.12499861848E+03 0.  0.
          2    1    1    2  501    0  0.56877093148E+02  0.13813690760E+02 -0.48340828250E+03  0.48693879428E+03  0.00000000000E+00 0. -1.
          1    1    1    2  502    0 -0.13734335600E+03  0.35253219871E+02  0.52855043251E+03  0.54723993517E+03  0.00000000000E+00 0. -1.
         22    1    3    3    0    0  0.31995033609E+02  0.41530420842E+02 -0.65547835582E+02  0.83934359951E+02  0.00000000000E+00 0.  1.
         22    1    3    3    0    0  0.48471229239E+02 -0.90597331473E+02 -0.18038939711E+03  0.20759978595E+03  0.00000000000E+00 0.  1.
</event>
<event>
 7    1  0.6253338E-006  0.8288533E+02  0.7818608E-02  0.1367320E+00
          2   -1    0    0  502    0  0.00000000000E+00  0.00000000000E+00  0.27998173215E+04  0.27998173215E+04  0.00000000000E+00 0. -1.
          1   -1    0    0  501    0 -0.00000000000E+00 -0.00000000000E+00 -0.12994598114E+03  0.12994598114E+03  0.00000000000E+00 0. -1.
         25    2    1    2    0    0  0.93110300133E+02 -0.46582777515E+02  0.14588440947E+04  0.14678866230E+04  0.12500224883E+03 0.  0.
          2    1    1    2  501    0 -0.13089455570E+02  0.54091845603E+02 -0.11797679531E+03  0.13044456999E+03  0.00000000000E+00 0. -1.
          1    1    1    2  502    0 -0.80020844563E+02 -0.75090680886E+01  0.13290040409E+04  0.13314321096E+04  0.00000000000E+00 0. -1.
         22    1    3    3    0    0  0.10076008557E+03 -0.43401947998E+02  0.66423400041E+03  0.67323334085E+03  0.00000000000E+00 0.  1.
         22    1    3    3    0    0 -0.76497854348E+01 -0.31808295167E+01  0.79461009430E+03  0.79465328216E+03  0.00000000000E+00 0.  1.
</event>
<event>
 7    1  0.6253338E-006  0.1498938E+03  0.7818608E-02  0.1207200E+00
          2   -1    0    0  502    0  0.00000000000E+00  0.00000000000E+00  0.12220485089E+04  0.12220485089E+04  0.00000000000E+00 0. -1.
          1   -1    0    0  501    0 -0.00000000000E+00 -0.00000000000E+00 -0.16843626651E+04  0.16843626651E+04  0.00000000000E+00 0. -1.
         25    2    1    2    0    0 -0.27183421434E+02 -0.11120145374E+03  0.53658288514E+02  0.17778856375E+03  0.12499943904E+03 0.  0.
          2    1    1    2  501    0  0.13959754984E+03  0.24744153009E+00 -0.16136310292E+04  0.16196581848E+04  0.00000000000E+00 0. -1.
          1    1    1    2  502    0 -0.11241412840E+03  0.11095401221E+03  0.10976585845E+04  0.11089644255E+04  0.00000000000E+00 0. -1.
         22    1    3    3    0    0  0.39882154403E+02 -0.75366190460E+02  0.96029918671E+00  0.85273507485E+02  0.00000000000E+00 0.  1.
         22    1    3    3    0    0 -0.67065575838E+02 -0.35835263284E+02  0.52697989328E+02  0.92515056268E+02  0.00000000000E+00 0.  1.
</event>
<event>
 7    1  0.6253338E-006  0.4862686E+02  0.7818608E-02  0.1474433E+00
          2   -1    0    0  502    0  0.00000000000E+00  0.00000000000E+00  0.62080399932E+03  0.62080399932E+03  0.00000000000E+00 0. -1.
          1   -1    0    0  501    0 -0.00000000000E+00 -0.00000000000E+00 -0.11118356358E+03  0.11118356358E+03  0.00000000000E+00 0. -1.
         25    2    1    2    0    0 -0.14999956135E+02 -0.43567157462E+02  0.14821067870E+03  0.19928388705E+03  0.12499826585E+03 0.  0.
          2    1    1    2  501    0  0.41585722068E+02  0.16060308483E+01 -0.79111772448E+02  0.89390291167E+02  0.00000000000E+00 0. -1.
          1    1    1    2  502    0 -0.26585765934E+02  0.41961126613E+02  0.44052152949E+03  0.44331338468E+03  0.00000000000E+00 0. -1.
         22    1    3    3    0    0 -0.54091457518E+02 -0.65490677748E+02  0.11735838126E+03  0.14487202732E+03  0.00000000000E+00 0.  1.
         22    1    3    3    0    0  0.39091501384E+02  0.21923520286E+02  0.30852297442E+02  0.54411859733E+02  0.00000000000E+00 0.  1.
</event>
<event>
 7    1  0.6253338E-006  0.5735290E+02  0.7818608E-02  0.1558290E+00
          2   -1    0    0  502    0  0.00000000000E+00  0.00000000000E+00  0.94278154913E+03  0.94278154913E+03  0.00000000000E+00 0. -1.
          1   -1    0    0  501    0 -0.00000000000E+00 -0.00000000000E+00 -0.21259550832E+02  0.21259550832E+02  0.00000000000E+00 0. -1.
         25    2    1    2    0    0  0.46900182882E+02 -0.31264058869E+02  0.57129089312E+03  0.58751655586E+03  0.12500140127E+03 0.  0.
          2    1    1    2  501    0  0.98878381279E+01  0.17472061531E+02 -0.13485813775E+01  0.20121156744E+02  0.00000000000E+00 0. -1.
          1    1    1    2  502    0 -0.56788021010E+02  0.13791997339E+02  0.35157968656E+03  0.35640338737E+03  0.00000000000E+00 0. -1.
         22    1    3    3    0    0 -0.84239265700E+01 -0.19591034090E+02  0.10298360472E+02  0.23681794357E+02  0.00000000000E+00 0. -1.
         22    1    3    3    0    0  0.55324109452E+02 -0.11673024779E+02  0.56099253264E+03  0.56383476150E+03  0.00000000000E+00 0. -1.
</event>
<event>
 7    1  0.6253338E-006  0.1187298E+03  0.7818608E-02  0.1292653E+00
          2   -1    0    0  502    0  0.00000000000E+00  0.00000000000E+00  0.40220053127E+03  0.40220053127E+03  0.00000000000E+00 0. -1.
          1   -1    0    0  501    0 -0.00000000000E+00 -0.00000000000E+00 -0.13189457772E+04  0.13189457772E+04  0.00000000000E+00 0. -1.
         25    2    1    2    0    0  0.87325363450E+02 -0.66042839114E+00 -0.19329484833E+03  0.24619847125E+03  0.12499853434E+03 0.  0.
          2    1    1    2  501    0 -0.10157238929E+03 -0.72945618551E+02 -0.10918545615E+04  0.10989924463E+04  0.00000000000E+00 0. -1.
          1    1    1    2  502    0  0.14247025837E+02  0.73606046942E+02  0.36840416397E+03  0.37595539087E+03  0.00000000000E+00 0. -1.
         22    1    3    3    0    0  0.33992866800E+02 -0.59790312908E+02 -0.61754497633E+02  0.92433838441E+02  0.00000000000E+00 0. -1.
         22    1    3    3    0    0  0.53332496650E+02  0.59129884517E+02 -0.13154035069E+03  0.15376463281E+03  0.00000000000E+00 0. -1.
</event>
<event>
 7    1  0.6253338E-006  0.6355097E+02  0.7818608E-02  0.1478533E+00
          2   -1    0    0  502    0  0.00000000000E+00  0.00000000000E+00  0.43585179460E+03  0.43585179460E+03  0.00000000000E+00 0. -1.
          1   -1    0    0  501    0 -0.00000000000E+00 -0.00000000000E+00 -0.75354836223E+03  0.75354836223E+03  0.00000000000E+00 0. -1.
         25    2    1    2    0    0 -0.42965597379E+02  0.53513699839E+02  0.15959836628E+03  0.21402479202E+03  0.12500085780E+03 0.  0.
          2    1    1    2  501    0 -0.15017115509E+02 -0.27039888349E+02 -0.72192006191E+03  0.72258234486E+03  0.00000000000E+00 0. -1.
          1    1    1    2  502    0  0.57982712888E+02 -0.26473811490E+02  0.24462512800E+03  0.25279301995E+03  0.00000000000E+00 0. -1.
         22    1    3    3    0    0 -0.14755239910E+02  0.92071520738E+02  0.89912938405E+02  0.12953462289E+03  0.00000000000E+00 0.  1.
         22    1    3    3    0    0 -0.28210357469E+02 -0.38557820899E+02  0.69685427876E+02  0.84490169128E+02  0.00000000000E+00 0.  1.
</event>
<event>
 7    1  0.6253338E-006  0.1890122E+03  0.7818608E-02  0.1230471E+00
          2   -1    0    0  502    0  0.00000000000E+00  0.00000000000E+00  0.18357501972E+04  0.18357501972E+04  0.00000000000E+00 0. -1.
          1   -1    0    0  501    0 -0.00000000000E+00 -0.00000000000E+00 -0.37692991920E+03  0.37692991920E+03  0.00000000000E+00 0. -1.
         25    2    1    2    0    0 -0.59944963168E+02 -0.16252660789E+03  0.44996463137E+03  0.49809646956E+03  0.12499450640E+03 0.  0.
          2    1    1    2  501    0  0.79535126621E+02 -0.34427364915E+02 -0.34021037956E+03  0.35107574992E+03  0.00000000000E+00 0. -1.
          1    1    1    2  502    0 -0.19590163453E+02  0.19695397281E+03  0.13490660262E+04  0.13635078969E+04  0.00000000000E+00 0. -1.
         22    1    3    3    0    0 -0.43692706367E+01 -0.28374186227E+02  0.24629660185E+03  0.24796411243E+03  0.00000000000E+00 0. -1.
         22    1    3    3    0    0 -0.55575692531E+02 -0.13415242167E+03  0.20366802951E+03  0.25013235713E+03  0.00000000000E+00 0. -1.
</event>
<event>
 7    1  0.6253338E-006  0.1211739E+03  0.7818608E-02  0.1241728E+00
          2   -1    0    0  502    0  0.00000000000E+00  0.00000000000E+00  0.31658822646E+03  0.31658822646E+03  0.00000000000E+00 0. -1.
          1   -1    0    0  501    0 -0.00000000000E+00 -0.00000000000E+00 -0.10042650746E+04  0.10042650746E+04  0.00000000000E+00 0. -1.
         25    2    1    2    0    0  0.10565059229E+02 -0.25584062127E+01  0.48490129999E+02  0.13451703889E+03  0.12500150049E+03 0.  0.
          2    1    1    2  501    0 -0.82412390112E+02 -0.95017582840E+02 -0.94044723517E+03  0.94882092369E+03  0.00000000000E+00 0. -1.
          1    1    1    2  502    0  0.71847330883E+02  0.97575989053E+02  0.20428025704E+03  0.23751533847E+03  0.00000000000E+00 0. -1.
         22    1    3    3    0    0  0.35940205285E+02  0.52220323233E+02  0.13758787587E+02  0.64868827262E+02  0.00000000000E+00 0. -1.
         22    1    3    3    0    0 -0.25375146057E+02 -0.54778729446E+02  0.34731342413E+02  0.69648211627E+02  0.00000000000E+00 0. -1.
</event>
<event>
 7    1  0.6253338E-006  0.1041376E+03  0.7818608E-02  0.1305194E+00
          2   -1    0    0  502    0  0.00000000000E+00  0.00000000000E+00  0.33840742816E+02  0.33840742816E+02  0.00000000000E+00 0. -1.
          1   -1    0    0  501    0 -0.00000000000E+00 -0.00000000000E+00 -0.23401828813E+04  0.23401828813E+04  0.00000000000E+00 0. -1.
         25    2    1    2    0    0  0.58892018267E+02 -0.11052180000E+02 -0.16771693149E+03  0.21758659672E+03  0.12499814984E+03 0.  0.
          2    1    1    2  501    0  0.10399315553E+03 -0.54838119648E+01 -0.11086941158E+04  0.11135741066E+04  0.00000000000E+00 0. -1.
          1    1    1    2  502    0 -0.16288517379E+03  0.16535991965E+02 -0.10299310912E+04  0.10428629208E+04  0.00000000000E+00 0. -1.
         22    1    3    3    0    0  0.22503227164E+02 -0.41775484545E+02 -0.46159541859E+01  0.47674871524E+02  0.00000000000E+00 0.  1.
         22    1    3    3    0    0  0.36388791103E+02  0.30723304545E+02 -0.16310097731E+03  0.16991172520E+03  0.00000000000E+00 0.  1.
</event>
<event>
 7    1  0.6253338E-006  0.3127628E+03  0.7818608E-02  0.1079450E+00
          2   -1    0    0  502    0  0.00000000000E+00  0.00000000000E+00  0.40202692584E+03  0.40202692584E+03  0.00000000000E+00 0. -1.
          1   -1    0    0  501    0 -0.00000000000E+00 -0.00000000000E+00 -0.12487139763E+04  0.12487139763E+04  0.00000000000E+00 0. -1.
         25    2    1    2    0    0 -0.22891424101E+03  0.17905197523E+03  0.14825755463E+03  0.34937977454E+03  0.12499833913E+03 0.  0.
          2    1    1    2  501    0  0.69142221494E+02  0.30320867092E+03 -0.51995833169E+03  0.60586534115E+03  0.00000000000E+00 0. -1.
          1    1    1    2  502    0  0.15977201952E+03 -0.48226064615E+03 -0.47498627340E+03  0.69549578645E+03  0.00000000000E+00 0. -1.
         22    1    3    3    0    0 -0.91830799128E+02  0.13154490256E+03  0.32288505560E+02  0.16364444583E+03  0.00000000000E+00 0. -1.
         22    1    3    3    0    0 -0.13708344189E+03  0.47507072666E+02  0.11596904907E+03  0.18573532872E+03  0.00000000000E+00 0. -1.
</event>
<event>
 7    1  0.6253338E-006  0.1089961E+03  0.7818608E-02  0.1340152E+00
          2   -1    0    0  502    0  0.00000000000E+00  0.00000000000E+00  0.33976205990E+03  0.33976205990E+03  0.00000000000E+00 0. -1.
          1   -1    0    0  501    0 -0.00000000000E+00 -0.00000000000E+00 -0.66176524428E+03  0.66176524428E+03  0.00000000000E+00 0. -1.
         25    2    1    2    0    0  0.14509457296E+02 -0.82250633278E+02 -0.15373130531E+03  0.21502014004E+03  0.12499862144E+03 0.  0.
          2    1    1    2  501    0  0.52985455681E+02 -0.57055545227E+01 -0.46588029730E+03  0.46891839725E+03  0.00000000000E+00 0. -1.
          1    1    1    2  502    0 -0.67494912977E+02  0.87956187801E+02  0.29760841824E+03  0.31758876689E+03  0.00000000000E+00 0. -1.
         22    1    3    3    0    0 -0.37221040956E+02 -0.41164420637E+02 -0.13559772476E+03  0.14651504488E+03  0.00000000000E+00 0.  1.
         22    1    3    3    0    0  0.51730498251E+02 -0.41086212642E+02 -0.18133580554E+02  0.68505095156E+02  0.00000000000E+00 0.  1.
</event>
<event>
 7    1  0.1888336E-005  0.7661289E+02  0.7818608E-02  0.1371710E+00
          2   -1    0    0  502    0  0.00000000000E+00  0.00000000000E+00  0.21001325253E+04  0.21001325253E+04  0.00000000000E+00 0. -1.
          1   -1    0    0  501    0 -0.00000000000E+00 -0.00000000000E+00 -0.14553609041E+04  0.14553609041E+04  0.00000000000E+00 0. -1.
         25    2    1    2    0    0  0.75316788957E+02 -0.82109338889E+02 -0.22148364308E+03  0.27765923091E+03  0.12500032850E+03 0.  0.
          2    1    1    2  501    0 -0.26588351450E+01  0.57998468340E+02 -0.12043828281E+04  0.12057814430E+04  0.00000000000E+00 0. -1.
          1    1    1    2  502    0 -0.72657953812E+02  0.24110870549E+02  0.20706380923E+04  0.20720527555E+04  0.00000000000E+00 0. -1.
         22    1    3    3    0    0  0.90071025885E+02 -0.36405755744E+02 -0.20504857621E+03  0.22689884830E+03  0.00000000000E+00 0. -1.
         22    1    3    3    0    0 -0.14754236928E+02 -0.45703583145E+02 -0.16435066877E+02  0.50760382612E+02  0.00000000000E+00 0. -1.
</event>
<event>
 7    1  0.6253338E-006  0.1493977E+03  0.7818608E-02  0.1335695E+00
          2   -1    0    0  502    0  0.00000000000E+00  0.00000000000E+00  0.23176400790E+04  0.23176400790E+04  0.00000000000E+00 0. -1.
          1   -1    0    0  501    0 -0.00000000000E+00 -0.00000000000E+00 -0.51074543953E+02  0.51074543953E+02  0.00000000000E+00 0. -1.
         25    2    1    2    0    0 -0.96634217633E+02 -0.79191434245E+02  0.12492592057E+04  0.12616987001E+04  0.12500236609E+03 0.  0.
          2    1    1    2  501    0  0.13572235530E+03  0.68919141441E+02  0.85998902529E+02  0.17483196796E+03  0.00000000000E+00 0. -1.
          1    1    1    2  502    0 -0.39088137671E+02  0.10272292804E+02  0.93130742683E+03  0.93218395490E+03  0.00000000000E+00 0. -1.
         22    1    3    3    0    0 -0.10103495235E+03 -0.62350046829E+02  0.57081260925E+03  0.58302883703E+03  0.00000000000E+00 0. -1.
         22    1    3    3    0    0  0.44007347130E+01 -0.16841387416E+02  0.67844659645E+03  0.67866986306E+03  0.00000000000E+00 0. -1.
</event>
<event>
 7    1  0.6253338E-006  0.5504488E+02  0.7818608E-02  0.1470265E+00
          2   -1    0    0  502    0  0.00000000000E+00  0.00000000000E+00  0.30208992053E+03  0.30208992053E+03  0.00000000000E+00 0. -1.
          1   -1    0    0  501    0 -0.00000000000E+00 -0.00000000000E+00 -0.21857225732E+03  0.21857225732E+03  0.00000000000E+00 0. -1.
         25    2    1    2    0    0 -0.68701719652E+02 -0.54044276975E+02  0.39400238210E+02  0.15754066862E+03  0.12500389331E+03 0.  0.
          2    1    1    2  501    0  0.35888866002E+02  0.12102770644E+02 -0.15368142792E+03  0.15827971774E+03  0.00000000000E+00 0. -1.
          1    1    1    2  502    0  0.32812853650E+02  0.41941506331E+02  0.19779885293E+03  0.20484179148E+03  0.00000000000E+00 0. -1.
         22    1    3    3    0    0 -0.87385207064E+02 -0.11959475178E+02  0.60434261848E+02  0.10691820923E+03  0.00000000000E+00 0. -1.
         22    1    3    3    0    0  0.18683487412E+02 -0.42084801798E+02 -0.21034023637E+02  0.50622459389E+02  0.00000000000E+00 0. -1.
</event>
<event>
 7    1  0.6253338E-006  0.1034005E+03  0.7818608E-02  0.1368581E+00
          2   -1    0    0  502    0  0.00000000000E+00  0.00000000000E+00  0.11335842337E+03  0.11335842337E+03  0.00000000000E+00 0. -1.
          1   -1    0    0  501    0 -0.00000000000E+00 -0.00000000000E+00 -0.28037321525E+04  0.28037321525E+04  0.00000000000E+00 0. -1.
         25    2    1    2    0    0  0.74538129783E+02  0.77631941399E+02 -0.52705585384E+03  0.55226035334E+03  0.12498389371E+03 0.  0.
          2    1    1    2  501    0 -0.39422991196E+02  0.19868815297E+02 -0.22371513807E+04  0.22375869239E+04  0.00000000000E+00 0. -1.
          1    1    1    2  502    0 -0.35115138587E+02 -0.97500756696E+02  0.73833505402E+02  0.12724329858E+03  0.00000000000E+00 0. -1.
         22    1    3    3    0    0  0.36577539011E+02  0.10866524630E+03 -0.39868866654E+03  0.41484780937E+03  0.00000000000E+00 0.  1.
         22    1    3    3    0    0  0.37960590771E+02 -0.31033304897E+02 -0.12836718730E+03  0.13741254397E+03  0.00000000000E+00 0.  1.
</event>
<event>
 7    1  0.6253338E-006  0.8321597E+02  0.7818608E-02  0.1489050E+00
          2   -1    0    0  502    0  0.00000000000E+00  0.00000000000E+00  0.34951015500E+03  0.34951015500E+03  0.00000000000E+00 0. -1.
          1   -1    0    0  501    0 -0.00000000000E+00 -0.00000000000E+00 -0.82581403300E+03  0.82581403300E+03  0.00000000000E+00 0. -1.
         25    2    1    2    0    0  0.70066731163E+02 -0.77500245134E+02 -0.28432013691E+03  0.32768651652E+03  0.12499951220E+03 0.  0.
          2    1    1    2  501    0 -0.16987649761E+02  0.13881938187E+02 -0.51433815448E+03  0.51480581349E+03  0.00000000000E+00 0. -1.
          1    1    1    2  502    0 -0.53079081402E+02  0.63618306947E+02  0.32235441338E+03  0.33283185798E+03  0.00000000000E+00 0. -1.
         22    1    3    3    0    0  0.66430445208E+01 -0.48830061084E+02 -0.24036885973E+03  0.24536848541E+03  0.00000000000E+00 0.  1.
         22    1    3    3    0    0  0.63423686642E+02 -0.28670184051E+02 -0.43951277179E+02  0.82318031114E+02  0.00000000000E+00 0.  1.
</event>
<event>
 7    1  0.6253338E-006  0.5696070E+02  0.7818608E-02  0.1417734E+00
          2   -1    0    0  502    0  0.00000000000E+00  0.00000000000E+00  0.34042930070E+03  0.34042930070E+03  0.00000000000E+00 0. -1.
          1   -1    0    0  501    0 -0.00000000000E+00 -0.00000000000E+00 -0.13066526537E+04  0.13066526537E+04  0.00000000000E+00 0. -1.
         25    2    1    2    0    0 -0.38716618508E+02 -0.26690987910E+02  0.93783242732E+02  0.16320263543E+03  0.12501367210E+03 0.  0.
          2    1    1    2  501    0  0.48238876520E+02 -0.30290795189E+02 -0.12673543150E+04  0.12686337065E+04  0.00000000000E+00 0. -1.
          1    1    1    2  502    0 -0.95222580115E+01  0.56981783099E+02  0.20734771927E+03  0.21524561247E+03  0.00000000000E+00 0. -1.
         22    1    3    3    0    0 -0.79344676637E+02  0.82560113018E+01  0.51667709863E+02  0.95043630379E+02  0.00000000000E+00 0. -1.
         22    1    3    3    0    0  0.40628058128E+02 -0.34946999212E+02  0.42115532869E+02  0.68159005055E+02  0.00000000000E+00 0. -1.
</event>
<event>
 7    1  0.6253338E-006  0.4566910E+02  0.7818608E-02  0.1476878E+00
          2   -1    0    0  502    0  0.00000000000E+00  0.00000000000E+00  0.24929384509E+04  0.24929384509E+04  0.00000000000E+00 0. -1.
          1   -1    0    0  501    0 -0.00000000000E+00 -0.00000000000E+00 -0.78321501302E+02  0.78321501302E+02  0.00000000000E+00 0. -1.
         25    2    1    2    0    0 -0.64514750398E+02  0.43375787174E+01  0.49520782841E+03  0.51481700012E+03  0.12499913077E+03 0.  0.
          2    1    1    2  501    0  0.32906217995E+02  0.28524623564E+02 -0.61308215819E+02  0.75200868739E+02  0.00000000000E+00 0. -1.
          1    1    1    2  502    0  0.31608532404E+02 -0.32862202282E+02  0.19807173370E+04  0.19812420834E+04  0.00000000000E+00 0. -1.
         22    1    3    3    0    0 -0.29436343822E+02  0.28033044562E+02  0.45374503125E+03  0.45556218380E+03  0.00000000000E+00 0.  1.
         22    1    3    3    0    0 -0.35078406576E+02 -0.23695465844E+02  0.41462797158E+02  0.59254816325E+02  0.00000000000E+00 0.  1.
</event>
<event>
 7    1  0.6253338E-006  0.8303071E+02  0.7818608E-02  0.1434818E+00
          2   -1    0    0  502    0  0.00000000000E+00  0.00000000000E+00  0.25991198959E+04  0.25991198959E+04  0.00000000000E+00 0. -1.
          1   -1    0    0  501    0 -0.00000000000E+00 -0.00000000000E+00 -0.42304377643E+02  0.42304377643E+02  0.00000000000E+00 0. -1.
         25    2    1    2    0    0 -0.23469285172E+02 -0.80404608585E+02  0.92285937990E+03  0.93504561203E+03  0.12500061229E+03 0.  0.
          2    1    1    2  501    0 -0.90136416205E+01  0.82817966772E+02  0.12083308107E+02  0.84178784086E+02  0.00000000000E+00 0. -1.
          1    1    1    2  502    0  0.32482926793E+02 -0.24133581862E+01  0.16218728302E+04  0.16221998774E+04  0.00000000000E+00 0. -1.
         22    1    3    3    0    0  0.49938250060E+02 -0.50538028651E+02  0.45844756851E+03  0.46392035332E+03  0.00000000000E+00 0. -1.
         22    1    3    3    0    0 -0.73407535232E+02 -0.29866579934E+02  0.46441181140E+03  0.47112525871E+03  0.00000000000E+00 0. -1.
</event>
<event>
 7    1  0.6253338E-006  0.4654392E+02  0.7818608E-02  0.1480885E+00
          2   -1    0    0  502    0  0.00000000000E+00  0.00000000000E+00  0.44829626657E+04  0.44829626657E+04  0.00000000000E+00 0. -1.
          1   -1    0    0  501    0 -0.00000000000E+00 -0.00000000000E+00 -0.21375651266E+02  0.21375651266E+02  0.00000000000E+00 0. -1.
         25    2    1    2    0    0 -0.29640035216E+02 -0.71420557834E+02  0.24379238940E+04  0.24423508846E+04  0.12500200998E+03 0.  0.
          2    1    1    2  501    0 -0.33322777354E+01  0.46160843004E+02  0.93124474673E+01  0.47208571039E+02  0.00000000000E+00 0. -1.
          1    1    1    2  502    0  0.32972312951E+02  0.25259714830E+02  0.20143506730E+04  0.20147788614E+04  0.00000000000E+00 0. -1.
         22    1    3    3    0    0  0.16946056911E+02  0.76267444613E+01  0.14631970263E+04  0.14633150289E+04  0.00000000000E+00 0.  1.
         22    1    3    3    0    0 -0.46586092127E+02 -0.79047302295E+02  0.97472686776E+03  0.97903585568E+03  0.00000000000E+00 0.  1.
</event>
<event>
 7    1  0.6253338E-006  0.2458406E+03  0.7818608E-02  0.1320192E+00
          2   -1    0    0  502    0  0.00000000000E+00  0.00000000000E+00  0.22191420040E+04  0.22191420040E+04  0.00000000000E+00 0. -1.
          1   -1    0    0  501    0 -0.00000000000E+00 -0.00000000000E+00 -0.85310410820E+03  0.85310410820E+03  0.00000000000E+00 0. -1.
         25    2    1    2    0    0 -0.22752350780E+02 -0.22593400087E+03  0.71900515994E+03  0.76430178146E+03  0.12499980366E+03 0.  0.
          2    1    1    2  501    0  0.13310682414E+01 -0.28129878213E+02 -0.81921241484E+03  0.81969631109E+03  0.00000000000E+00 0. -1.
          1    1    1    2  502    0  0.21421282538E+02  0.25406387908E+03  0.14662451507E+04  0.14882480196E+04  0.00000000000E+00 0. -1.
         22    1    3    3    0    0  0.49846195447E+02 -0.12097530291E+03  0.39292497593E+03  0.41413730069E+03  0.00000000000E+00 0.  1.
         22    1    3    3    0    0 -0.72598546227E+02 -0.10495869795E+03  0.32608018401E+03  0.35016448077E+03  0.00000000000E+00 0.  1.
</event>
<event>
 7    1  0.6253338E-006  0.5675186E+02  0.7818608E-02  0.1432248E+00
          2   -1    0    0  502    0  0.00000000000E+00  0.00000000000E+00  0.11418401628E+03  0.11418401628E+03  0.00000000000E+00 0. -1.
          1   -1    0    0  501    0 -0.00000000000E+00 -0.00000000000E+00 -0.53536527092E+03  0.53536527092E+03  0.00000000000E+00 0. -1.
         25    2    1    2    0    0 -0.22506130897E+01 -0.39037799642E+02 -0.31842987690E+03  0.34431315460E+03  0.12499978747E+03 0.  0.
          2    1    1    2  501    0  0.50120160139E+02  0.47360880584E+02 -0.19178628993E+03  0.20380643873E+03  0.00000000000E+00 0. -1.
          1    1    1    2  502    0 -0.47869547049E+02 -0.83230809417E+01  0.89034912185E+02  0.10142969387E+03  0.00000000000E+00 0. -1.
         22    1    3    3    0    0 -0.30594976325E+02 -0.25699460322E+02 -0.30903697786E+03  0.31160932034E+03  0.00000000000E+00 0.  1.
         22    1    3    3    0    0  0.28344363235E+02 -0.13338339320E+02 -0.93928990406E+01  0.32703834262E+02  0.00000000000E+00 0.  1.
</event>
<event>
 7    1  0.6253338E-006  0.2459774E+03  0.7818608E-02  0.1198155E+00
          2   -1    0    0  502    0  0.00000000000E+00  0.00000000000E+00  0.59186799189E+03  0.59186799189E+03  0.00000000000E+00 0. -1.
          1   -1    0    0  501    0 -0.00000000000E+00 -0.00000000000E+00 -0.13076044427E+04  0.13076044427E+04  0.00000000000E+00 0. -1.
         25    2    1    2    0    0 -0.10021900715E+03 -0.12338127877E+03  0.18000887388E+03  0.27073202689E+03  0.12500338542E+03 0.  0.
          2    1    1    2  501    0  0.17579697432E+03  0.17894671997E+03 -0.12435031155E+04  0.12685529169E+04  0.00000000000E+00 0. -1.
          1    1    1    2  502    0 -0.75577967171E+02 -0.55565441200E+02  0.34775779086E+03  0.36018749073E+03  0.00000000000E+00 0. -1.
         22    1    3    3    0    0 -0.11331158113E+03 -0.14046410457E+03  0.16462218987E+03  0.24427473158E+03  0.00000000000E+00 0.  1.
         22    1    3    3    0    0  0.13092573979E+02  0.17082825796E+02  0.15386684010E+02  0.26457295316E+02  0.00000000000E+00 0.  1.
</event>
<event>
 7    1  0.6253338E-006  0.1030168E+03  0.7818608E-02  0.1460264E+00
          2   -1    0    0  502    0  0.00000000000E+00  0.00000000000E+00  0.53362160654E+03  0.53362160654E+03  0.00000000000E+00 0. -1.
          1   -1    0    0  501    0 -0.00000000000E+00 -0.00000000000E+00 -0.93935536231E+03  0.93935536231E+03  0.00000000000E+00 0. -1.
         25    2    1    2    0    0 -0.11103529505E+03 -0.55198268646E+02 -0.33305013722E+01  0.17610096938E+03  0.12499909428E+03 0.  0.
          2    1    1    2  501    0  0.91185019771E+02  0.46306465961E+02 -0.84629489281E+03  0.85245178293E+03  0.00000000000E+00 0. -1.
          1    1    1    2  502    0  0.19850275276E+02  0.88918026852E+01  0.44389163841E+03  0.44442421653E+03  0.00000000000E+00 0. -1.
         22    1    3    3    0    0  0.45131491470E+01 -0.35193412676E+02 -0.39774986206E+02  0.53300978778E+02  0.00000000000E+00 0. -1.
         22    1    3    3    0    0 -0.11554844419E+03 -0.20004855971E+02  0.36444484833E+02  0.12279999061E+03  0.00000000000E+00 0. -1.
</event>
<event>
 7    1  0.6253338E-006  0.8395164E+02  0.7818608E-02  0.1344065E+00
          2   -1    0    0  502    0  0.00000000000E+00  0.00000000000E+00  0.66053156423E+03  0.66053156423E+03  0.00000000000E+00 0. -1.
          1   -1    0    0  501    0 -0.00000000000E+00 -0.00000000000E+00 -0.16335683383E+03  0.16335683383E+03  0.00000000000E+00 0. -1.
         25    2    1    2    0    0  0.70162270839E+02  0.18678254439E+02  0.13843714111E+01  0.14456165632E+03  0.12499813821E+03 0.  0.
          2    1    1    2  501    0 -0.46501038117E+02 -0.81244918793E+02 -0.65380835028E+02  0.11418291013E+03  0.00000000000E+00 0. -1.
          1    1    1    2  502    0 -0.23661232722E+02  0.62566664354E+02  0.56117119402E+03  0.56514383162E+03  0.00000000000E+00 0. -1.
         22    1    3    3    0    0  0.26026739915E+02 -0.44460627843E+02  0.33119246227E+02  0.61245596490E+02  0.00000000000E+00 0.  1.
         22    1    3    3    0    0  0.44135530925E+02  0.63138882282E+02 -0.31734874816E+02  0.83316059829E+02  0.00000000000E+00 0.  1.
</event>
<event>
 7    1  0.6253338E-006  0.1795262E+03  0.7818608E-02  0.1319281E+00
          2   -1    0    0  502    0  0.00000000000E+00  0.00000000000E+00  0.11506200560E+03  0.11506200560E+03  0.00000000000E+00 0. -1.
          1   -1    0    0  501    0 -0.00000000000E+00 -0.00000000000E+00 -0.72068432740E+03  0.72068432740E+03  0.00000000000E+00 0. -1.
         25    2    1    2    0    0 -0.49585367600E+02 -0.14932579200E+03 -0.16182826343E+03  0.25801270129E+03  0.12500106538E+03 0.  0.
          2    1    1    2  501    0  0.83370893686E+02  0.16856464675E+03 -0.48554063896E+03  0.52068652578E+03  0.00000000000E+00 0. -1.
          1    1    1    2  502    0 -0.33785526086E+02 -0.19238854752E+02  0.41746580587E+02  0.57047105937E+02  0.00000000000E+00 0. -1.
         22    1    3    3    0    0  0.28293333521E+02 -0.30481805999E+02 -0.89243803554E+02  0.98458669966E+02  0.00000000000E+00 0.  1.
         22    1    3    3    0    0 -0.77878701121E+02 -0.11884398600E+03 -0.72584459871E+02  0.15955403132E+03  0.00000000000E+00 0.  1.
</event>
<event>
 7    1  0.6253338E-006  0.3045548E+03  0.7818608E-02  0.1168222E+00
          2   -1    0    0  502    0  0.00000000000E+00  0.00000000000E+00  0.11495158625E+04  0.11495158625E+04  0.00000000000E+00 0. -1.
          1   -1    0    0  501    0 -0.00000000000E+00 -0.00000000000E+00 -0.83154861920E+03  0.83154861920E+03  0.00000000000E+00 0. -1.
         25    2    1    2    0    0  0.63497313225E+02  0.22333828063E+03  0.71328471285E+03  0.76046875336E+03  0.12500298748E+03 0.  0.
          2    1    1    2  501    0 -0.16221979184E+03 -0.26159216395E+03 -0.77105640496E+03  0.83022509040E+03  0.00000000000E+00 0. -1.
          1    1    1    2  502    0  0.98722478615E+02  0.38253883323E+02  0.37573893540E+03  0.39037063792E+03  0.00000000000E+00 0. -1.
         22    1    3    3    0    0 -0.68304851797E+01  0.27244136631E+02  0.26106520551E+03  0.26257178073E+03  0.00000000000E+00 0. -1.
         22    1    3    3    0    0  0.70327798405E+02  0.19609414400E+03  0.45221950734E+03  0.49789697264E+03  0.00000000000E+00 0. -1.
</event>
<event>
 7    1  0.6253338E-006  0.1024052E+03  0.7818608E-02  0.1364506E+00
          2   -1    0    0  502    0  0.00000000000E+00  0.00000000000E+00  0.75446373371E+03  0.75446373371E+03  0.00000000000E+00 0. -1.
          1   -1    0    0  501    0 -0.00000000000E+00 -0.00000000000E+00 -0.22564316076E+03  0.22564316076E+03  0.00000000000E+00 0. -1.
         25    2    1    2    0    0  0.36622694794E+02 -0.49078070446E+02  0.38809093732E+03  0.41229750720E+03  0.12499912018E+03 0.  0.
          2    1    1    2  501    0 -0.42006524934E+02  0.94875779227E+02 -0.19928683876E+03  0.22468022993E+03  0.00000000000E+00 0. -1.
          1    1    1    2  502    0  0.53838301404E+01 -0.45797708781E+02  0.34001647439E+03  0.34312915734E+03  0.00000000000E+00 0. -1.
         22    1    3    3    0    0  0.22942615928E+02 -0.62820326887E+02  0.83002519369E+02  0.10659350504E+03  0.00000000000E+00 0. -1.
         22    1    3    3    0    0  0.13680078865E+02  0.13742256441E+02  0.30508841795E+03  0.30570400216E+03  0.00000000000E+00 0. -1.
</event>
<event>
 7    1  0.6253338E-006  0.1210469E+03  0.7818608E-02  0.1248888E+00
          2   -1    0    0  502    0  0.00000000000E+00  0.00000000000E+00  0.13704754367E+04  0.13704754367E+04  0.00000000000E+00 0. -1.
          1   -1    0    0  501    0 -0.00000000000E+00 -0.00000000000E+00 -0.17427438201E+04  0.17427438201E+04  0.00000000000E+00 0. -1.
         25    2    1    2    0    0 -0.17278670009E+02  0.25239457956E+01  0.20724210785E+03  0.24265083255E+03  0.12500085013E+03 0.  0.
          2    1    1    2  501    0 -0.98133777558E+02 -0.70866945516E+02 -0.17189775058E+04  0.17232341767E+04  0.00000000000E+00 0. -1.
          1    1    1    2  502    0  0.11541244757E+03  0.68342999720E+02  0.11394670145E+04  0.11473342477E+04  0.00000000000E+00 0. -1.
         22    1    3    3    0    0 -0.76606810898E+00  0.36379941314E+02  0.20124491247E+03  0.20450819491E+03  0.00000000000E+00 0. -1.
         22    1    3    3    0    0 -0.16512601900E+02 -0.33855995519E+02  0.59971953795E+01  0.38142637645E+02  0.00000000000E+00 0. -1.
</event>
<event>
 7    1  0.6253338E-006  0.2040332E+03  0.7818608E-02  0.1236266E+00
          2   -1    0    0  502    0  0.00000000000E+00  0.00000000000E+00  0.12419418688E+04  0.12419418688E+04  0.00000000000E+00 0. -1.
          1   -1    0    0  501    0 -0.00000000000E+00 -0.00000000000E+00 -0.11082401308E+04  0.11082401308E+04  0.00000000000E+00 0. -1.
         25    2    1    2    0    0 -0.12234784004E+03  0.71914000201E+02  0.18261388338E+02  0.18999825099E+03  0.12500095875E+03 0.  0.
          2    1    1    2  501    0  0.15939240513E+03 -0.13787239754E+03 -0.10102279359E+04  0.10319763657E+04  0.00000000000E+00 0. -1.
          1    1    1    2  502    0 -0.37044565088E+02  0.65958397343E+02  0.11256682855E+04  0.11282073830E+04  0.00000000000E+00 0. -1.
         22    1    3    3    0    0 -0.44385635776E+02 -0.22387379299E+02 -0.30457217942E+02  0.58300270496E+02  0.00000000000E+00 0.  1.
         22    1    3    3    0    0 -0.77962204265E+02  0.94301379500E+02  0.48718606280E+02  0.13169798050E+03  0.00000000000E+00 0.  1.
</event>
<event>
 7    1  0.6253338E-006  0.7175729E+02  0.7818608E-02  0.1380940E+00
          2   -1    0    0  502    0  0.00000000000E+00  0.00000000000E+00  0.74444853614E+03  0.74444853614E+03  0.00000000000E+00 0. -1.
          1   -1    0    0  501    0 -0.00000000000E+00 -0.00000000000E+00 -0.35023062966E+03  0.35023062966E+03  0.00000000000E+00 0. -1.
         25    2    1    2    0    0 -0.16279413370E+02 -0.11704982166E+03  0.35811264420E+03  0.39728535057E+03  0.12500121517E+03 0.  0.
          2    1    1    2  501    0  0.23984661190E+02  0.52225394926E+02 -0.32519971645E+03  0.33023871885E+03  0.00000000000E+00 0. -1.
          1    1    1    2  502    0 -0.77052478195E+01  0.64824426733E+02  0.36130497873E+03  0.36715509638E+03  0.00000000000E+00 0. -1.
         22    1    3    3    0    0  0.49756741185E+02 -0.48930431352E+02  0.21093396638E+03  0.22217798851E+03  0.00000000000E+00 0.  1.
         22    1    3    3    0    0 -0.66036154555E+02 -0.68119390307E+02  0.14717867782E+03  0.17510736207E+03  0.00000000000E+00 0.  1.
</event>
<event>
 7    1  0.6253338E-006  0.5460647E+02  0.7818608E-02  0.1514823E+00
          2   -1    0    0  502    0  0.00000000000E+00  0.00000000000E+00  0.18479102708E+03  0.18479102708E+03  0.00000000000E+00 0. -1.
          1   -1    0    0  501    0 -0.00000000000E+00 -0.00000000000E+00 -0.73424051028E+03  0.73424051028E+03  0.00000000000E+00 0. -1.
         25    2    1    2    0    0  0.20075193025E+02 -0.18772199977E+02 -0.67467268042E+02  0.14468378483E+03  0.12500462579E+03 0.  0.
          2    1    1    2  501    0 -0.39138467323E+02  0.39306488435E+02 -0.62558383614E+03  0.62803818013E+03  0.00000000000E+00 0. -1.
          1    1    1    2  502    0  0.19063274298E+02 -0.20534288458E+02  0.14360162098E+03  0.14630957241E+03  0.00000000000E+00 0. -1.
         22    1    3    3    0    0  0.51776183699E+02 -0.33763551335E+02  0.71626257114E+01  0.62225829076E+02  0.00000000000E+00 0.  1.
         22    1    3    3    0    0 -0.31700990673E+02  0.14991351358E+02 -0.74629893753E+02  0.82457955752E+02  0.00000000000E+00 0.  1.
</event>
<event>
 7    1  0.6253338E-006  0.8770550E+02  0.7818608E-02  0.1462836E+00
          2   -1    0    0  502    0  0.00000000000E+00  0.00000000000E+00  0.10066014632E+04  0.10066014632E+04  0.00000000000E+00 0. -1.
          1   -1    0    0  501    0 -0.00000000000E+00 -0.00000000000E+00 -0.85615277815E+02  0.85615277815E+02  0.00000000000E+00 0. -1.
         25    2    1    2    0    0  0.64617859137E+02 -0.91364576113E+00  0.11960309632E+03  0.18467926073E+03  0.12500090490E+03 0.  0.
          2    1    1    2  501    0  0.24690496566E+02  0.43804772092E+01 -0.47632831497E+02  0.53830250210E+02  0.00000000000E+00 0. -1.
          1    1    1    2  502    0 -0.89308355703E+02 -0.34668314481E+01  0.84901592056E+03  0.85370723007E+03  0.00000000000E+00 0. -1.
         22    1    3    3    0    0  0.54825320494E+02 -0.36460305946E+02  0.13055330003E+03  0.14621673579E+03  0.00000000000E+00 0. -1.
         22    1    3    3    0    0  0.97925386436E+01  0.35546660185E+02 -0.10950203707E+02  0.38462524938E+02  0.00000000000E+00 0. -1.
</event>
<event>
 7    1  0.6253338E-006  0.1330105E+03  0.7818608E-02  0.1298618E+00
          2   -1    0    0  502    0  0.00000000000E+00  0.00000000000E+00  0.49832904280E+03  0.49832904280E+03  0.00000000000E+00 0. -1.
          1   -1    0    0  501    0 -0.00000000000E+00 -0.00000000000E+00 -0.11715761479E+04  0.11715761479E+04  0.00000000000E+00 0. -1.
         25    2    1    2    0    0  0.87815919617E+02  0.38080403222E+02 -0.96651726129E+02  0.18473404325E+03  0.12499343073E+03 0.  0.
          2    1    1    2  501    0  0.34115521021E+01  0.63226276978E+02 -0.10196512503E+04  0.10216153254E+04  0.00000000000E+00 0. -1.
          1    1    1    2  502    0 -0.91227471719E+02 -0.10130668020E+03  0.44305587133E+03  0.46355582207E+03  0.00000000000E+00 0. -1.
         22    1    3    3    0    0  0.82475489649E+01  0.10780021905E+02  0.29864250708E+02  0.32804030340E+02  0.00000000000E+00 0.  1.
         22    1    3    3    0    0  0.79568370652E+02  0.27300381317E+02 -0.12651597684E+03  0.15193001291E+03  0.00000000000E+00 0.  1.
</event>
<event>
 7    1  0.6253338E-006  0.8676922E+02  0.7818608E-02  0.1397776E+00
          2   -1    0    0  502    0  0.00000000000E+00  0.00000000000E+00  0.20378215793E+04  0.20378215793E+04  0.00000000000E+00 0. -1.
          1   -1    0    0  501    0 -0.00000000000E+00 -0.00000000000E+00 -0.36043958014E+03  0.36043958014E+03  0.00000000000E+00 0. -1.
         25    2    1    2    0    0  0.81222899500E+02 -0.92719552818E+02  0.53869079307E+03  0.56657522483E+03  0.12500255986E+03 0.  0.
          2    1    1    2  501    0 -0.34331598408E+02  0.23328803949E+02 -0.34406840482E+03  0.34656306632E+03  0.00000000000E+00 0. -1.
          1    1    1    2  502    0 -0.46891301093E+02  0.69390748870E+02  0.14827596109E+04  0.14851228683E+04  0.00000000000E+00 0. -1.
         22    1    3    3    0    0  0.65676027331E+02 -0.12102618149E+03  0.36935865806E+03  0.39419093782E+03  0.00000000000E+00 0.  1.
         22    1    3    3    0    0  0.15546872169E+02  0.28306628676E+02  0.16933213501E+03  0.17238428701E+03  0.00000000000E+00 0.  1.
</event>
<event>
 7    1  0.6253338E-006  0.8296944E+02  0.7818608E-02  0.1328296E+00
          2   -1    0    0  502    0  0.00000000000E+00  0.00000000000E+00  0.28605337129E+04  0.28605337129E+04  0.00000000000E+00 0. -1.
          1   -1    0    0  501    0 -0.00000000000E+00 -0.00000000000E+00 -0.63884752131E+03  0.63884752131E+03  0.00000000000E+00 0. -1.
         25    2    1    2    0    0 -0.67054771228E+02 -0.31572506928E+02  0.10141236167E+03  0.17720698456E+03  0.12499873095E+03 0.  0.
          2    1    1    2  501    0  0.70140730207E+02 -0.46018282078E+02 -0.59746532798E+03  0.60332596700E+03  0.00000000000E+00 0. -1.
          1    1    1    2  502    0 -0.30859589785E+01  0.77590789005E+02  0.27177391579E+04  0.27188482827E+04  0.00000000000E+00 0. -1.
         22    1    3    3    0    0 -0.43614954405E+02 -0.74838702815E+00  0.12463864638E+03  0.13205156759E+03  0.00000000000E+00 0. -1.
         22    1    3    3    0    0 -0.23439816823E+02 -0.30824119899E+02 -0.23226284712E+02  0.45155416971E+02  0.00000000000E+00 0. -1.
</event>
<event>
 7    1  0.6253338E-006  0.6953661E+02  0.7818608E-02  0.1450128E+00
          2   -1    0    0  502    0  0.00000000000E+00  0.00000000000E+00  0.13047408831E+04  0.13047408831E+04  0.00000000000E+00 0. -1.
          1   -1    0    0  501    0 -0.00000000000E+00 -0.00000000000E+00 -0.13296258542E+03  0.13296258542E+03  0.00000000000E+00 0. -1.
         25    2    1    2    0    0  0.69676858069E+02  0.27338337722E+02  0.35339333864E+03  0.38224881868E+03  0.12500023333E+03 0.  0.
          2    1    1    2  501    0 -0.45750416935E+02 -0.52473976288E+02 -0.10795992934E+03  0.12845997502E+03  0.00000000000E+00 0. -1.
          1    1    1    2  502    0 -0.23926441134E+02  0.25135638566E+02  0.92634488836E+03  0.92699467480E+03  0.00000000000E+00 0. -1.
         22    1    3    3    0    0  0.94838313707E+02  0.45564324545E+01  0.16122444187E+03  0.18710528448E+03  0.00000000000E+00 0. -1.
         22    1    3    3    0    0 -0.25161455638E+02  0.22781905268E+02  0.19216889676E+03  0.19514353420E+03  0.00000000000E+00 0. -1.
</event>
<event>
 7    1  0.6253338E-006  0.1366102E+03  0.7818608E-02  0.1431549E+00
          2   -1    0    0  502    0  0.00000000000E+00  0.00000000000E+00  0.50185583813E+03  0.50185583813E+03  0.00000000000E+00 0. -1.
          1   -1    0    0  501    0 -0.00000000000E+00 -0.00000000000E+00 -0.31511632497E+03  0.31511632497E+03  0.00000000000E+00 0. -1.
         25    2    1    2    0    0  0.32052614304E+02  0.12904257236E+03 -0.14115775701E+03  0.23071576632E+03  0.12499958759E+03 0.  0.
          2    1    1    2  501    0 -0.52310928225E+02 -0.13020569902E+03 -0.90755412326E+02  0.16711224412E+03  0.00000000000E+00 0. -1.
          1    1    1    2  502    0  0.20258313921E+02  0.11631266580E+01  0.41865268250E+03  0.41914415266E+03  0.00000000000E+00 0. -1.
         22    1    3    3    0    0  0.62388335716E+02  0.12796978203E+03 -0.82177841559E+02  0.16438298936E+03  0.00000000000E+00 0.  1.
         22    1    3    3    0    0 -0.30335721412E+02  0.10727903316E+01 -0.58979915454E+02  0.66332776963E+02  0.00000000000E+00 0.  1.
</event>
<event>
 7    1  0.6253338E-006  0.1883442E+03  0.7818608E-02  0.1313586E+00
          2   -1    0    0  502    0  0.00000000000E+00  0.00000000000E+00  0.71657392193E+03  0.71657392193E+03  0.00000000000E+00 0. -1.
          1   -1    0    0  501    0 -0.00000000000E+00 -0.00000000000E+00 -0.67271569865E+03  0.67271569865E+03  0.00000000000E+00 0. -1.
         25    2    1    2    0    0 -0.17679096267E+03  0.30086909456E+02  0.12247222006E+03  0.25056830178E+03  0.12499905026E+03 0.  0.
          2    1    1    2  501    0  0.17627737594E+03 -0.69087702914E+02 -0.59318824281E+03  0.62267095272E+03  0.00000000000E+00 0. -1.
          1    1    1    2  502    0  0.51358673025E+00  0.39000793458E+02  0.51457424602E+03  0.51605036608E+03  0.00000000000E+00 0. -1.
         22    1    3    3    0    0 -0.18428653190E+03  0.27990778047E+02  0.13885257329E+03  0.23243288624E+03  0.00000000000E+00 0. -1.
         22    1    3    3    0    0  0.74955692248E+01  0.20961314088E+01 -0.16380353231E+02  0.18135415542E+02  0.00000000000E+00 0. -1.
</event>
<event>
 7    1  0.6253338E-006  0.1161996E+03  0.7818608E-02  0.1317073E+00
          2   -1    0    0  502    0  0.00000000000E+00  0.00000000000E+00  0.20702581951E+04  0.20702581951E+04  0.00000000000E+00 0. -1.
          1   -1    0    0  501    0 -0.00000000000E+00 -0.00000000000E+00 -0.30195300872E+03  0.30195300872E+03  0.00000000000E+00 0. -1.
         25    2    1    2    0    0 -0.22072467948E+02  0.65346512273E+02  0.19982086026E+03  0.24558415874E+03  0.12500336925E+03 0.  0.
          2    1    1    2  501    0  0.26558932868E+02  0.55211565054E+02 -0.27371172481E+03  0.28048494101E+03  0.00000000000E+00 0. -1.
          1    1    1    2  502    0 -0.44864649198E+01 -0.12055807733E+03  0.18421960510E+04  0.18461421041E+04  0.00000000000E+00 0. -1.
         22    1    3    3    0    0  0.17368018213E+02  0.79282168755E+02  0.63680956284E+02  0.10316285442E+03  0.00000000000E+00 0.  1.
         22    1    3    3    0    0 -0.39440486162E+02 -0.13935656482E+02  0.13613990398E+03  0.14242130432E+03  0.00000000000E+00 0.  1.
</event>
<event>
 7    1  0.6253338E-006  0.1903869E+03  0.7818608E-02  0.1279903E+00
          2   -1    0    0  502    0  0.00000000000E+00  0.00000000000E+00  0.24261027493E+04  0.24261027493E+04  0.00000000000E+00 0. -1.
          1   -1    0    0  501    0 -0.00000000000E+00 -0.00000000000E+00 -0.60141315225E+03  0.60141315225E+03  0.00000000000E+00 0. -1.
         25    2    1    2    0    0  0.12562516408E+03 -0.58549061944E+02  0.89501915053E+03  0.91427258525E+03  0.12500162327E+03 0.  0.
          2    1    1    2  501    0 -0.17446297748E+03  0.78408405050E+02 -0.57585755290E+03  0.60679249314E+03  0.00000000000E+00 0. -1.
          1    1    1    2  502    0  0.48837813401E+02 -0.19859343107E+02  0.15055279994E+04  0.15064508232E+04  0.00000000000E+00 0. -1.
         22    1    3    3    0    0  0.39341340184E+02 -0.75130590320E+01  0.62438560641E+03  0.62566890014E+03  0.00000000000E+00 0. -1.
         22    1    3    3    0    0  0.86283823898E+02 -0.51036002912E+02  0.27063354412E+03  0.28860368511E+03  0.00000000000E+00 0. -1.
</event>
<event>
 7    1  0.6253338E-006  0.4264837E+02  0.7818608E-02  0.1573099E+00
          2   -1    0    0  502    0  0.00000000000E+00  0.00000000000E+00  0.57363613046E+02  0.57363613046E+02  0.00000000000E+00 0. -1.
          1   -1    0    0  501    0 -0.00000000000E+00 -0.00000000000E+00 -0.15024881203E+04  0.15024881203E+04  0.00000000000E+00 0. -1.
         25    2    1    2    0    0 -0.22612456784E+02  0.19269157458E+02 -0.56131780105E+03  0.57583480549E+03  0.12500170321E+03 0.  0.
          2    1    1    2  501    0 -0.20034245739E+02 -0.14268775754E+02 -0.92451874106E+03  0.92484586366E+03  0.00000000000E+00 0. -1.
          1    1    1    2  502    0  0.42646702523E+02 -0.50003817039E+01  0.40712034868E+02  0.59171064181E+02  0.00000000000E+00 0. -1.
         22    1    3    3    0    0 -0.17199378828E+01 -0.16334035322E+02 -0.50865930992E+03  0.50892440742E+03  0.00000000000E+00 0. -1.
         22    1    3    3    0    0 -0.20892518901E+02  0.35603192780E+02 -0.52658491129E+02  0.66910398072E+02  0.00000000000E+00 0. -1.
</event>
<event>
 7    1  0.6253338E-006  0.1244742E+03  0.7818608E-02  0.1330722E+00
          2   -1    0    0  502    0  0.00000000000E+00  0.00000000000E+00  0.37203693522E+03  0.37203693522E+03  0.00000000000E+00 0. -1.
          1   -1    0    0  501    0 -0.00000000000E+00 -0.00000000000E+00 -0.65317234909E+03  0.65317234909E+03  0.00000000000E+00 0. -1.
         25    2    1    2    0    0 -0.84270338456E+02  0.11740133454E+00 -0.27976917435E+03  0.31780425463E+03  0.12500899814E+03 0.  0.
          2    1    1    2  501    0 -0.36958166082E+02  0.34657434747E+02 -0.34119094207E+03  0.34493231622E+03  0.00000000000E+00 0. -1.
          1    1    1    2  502    0  0.12122850454E+03 -0.34774836082E+02  0.33982470255E+03  0.36247271346E+03  0.00000000000E+00 0. -1.
         22    1    3    3    0    0 -0.10759569098E+03  0.15702347347E+02 -0.26424461075E+03  0.28574221029E+03  0.00000000000E+00 0. -1.
         22    1    3    3    0    0  0.23325352520E+02 -0.15584946013E+02 -0.15524563605E+02  0.32062044344E+02  0.00000000000E+00 0. -1.
</event>
<event>
 7    1  0.6253338E-006  0.2038971E+03  0.7818608E-02  0.1328755E+00
          2   -1    0    0  502    0  0.00000000000E+00  0.00000000000E+00  0.83313274671E+03  0.83313274671E+03  0.00000000000E+00 0. -1.
          1   -1    0    0  501    0 -0.00000000000E+00 -0.00000000000E+00 -0.10918192865E+04  0.10918192865E+04  0.00000000000E+00 0. -1.
         25    2    1    2    0    0 -0.15070349705E+03  0.93762622258E+02  0.30398187989E+03  0.37354034217E+03  0.12499772225E+03 0.  0.
          2    1    1    2  501    0  0.16422042041E+03 -0.12218251537E+03 -0.10466151590E+04  0.10664427807E+04  0.00000000000E+00 0. -1.
          1    1    1    2  502    0 -0.13516923355E+02  0.28419893114E+02  0.48394673928E+03  0.48496891035E+03  0.00000000000E+00 0. -1.
         22    1    3    3    0    0 -0.12541632237E+02  0.51745978102E+01 -0.11588135215E+02  0.17842474028E+02  0.00000000000E+00 0.  1.
         22    1    3    3    0    0 -0.13816186482E+03  0.88588024448E+02  0.31557001511E+03  0.35569786814E+03  0.00000000000E+00 0.  1.
</event>
<event>
 7    1  0.6253338E-006  0.8571584E+02  0.7818608E-02  0.1333286E+00
          2   -1    0    0  502    0  0.00000000000E+00  0.00000000000E+00  0.91816984602E+03  0.91816984602E+03  0.00000000000E+00 0. -1.
          1   -1    0    0  501    0 -0.00000000000E+00 -0.00000000000E+00 -0.53921117319E+03  0.53921117319E+03  0.00000000000E+00 0. -1.
         25    2    1    2    0    0 -0.15677292279E+03 -0.52963671261E+01 -0.27703714343E+03  0.34201967228E+03  0.12498830568E+03 0.  0.
          2    1    1    2  501    0  0.71556324564E+02  0.74226834261E+01 -0.22193413894E+03  0.23330273432E+03  0.00000000000E+00 0. -1.
          1    1    1    2  502    0  0.85216598227E+02 -0.21263163001E+01  0.87792995520E+03  0.88205861261E+03  0.00000000000E+00 0. -1.
         22    1    3    3    0    0 -0.30874609071E+02 -0.39401577342E+02 -0.15688716787E+03  0.16467941348E+03  0.00000000000E+00 0. -1.
         22    1    3    3    0    0 -0.12589831372E+03  0.34105210216E+02 -0.12014997556E+03  0.17734025879E+03  0.00000000000E+00 0. -1.
</event>
<event>
 7    1  0.6253338E-006  0.1740039E+03  0.7818608E-02  0.1369646E+00
          2   -1    0    0  502    0  0.00000000000E+00  0.00000000000E+00  0.27339587944E+03  0.27339587944E+03  0.00000000000E+00 0. -1.
          1   -1    0    0  501    0 -0.00000000000E+00 -0.00000000000E+00 -0.92797352906E+03  0.92797352906E+03  0.00000000000E+00 0. -1.
         25    2    1    2    0    0  0.33416602142E+02 -0.18012630200E+03 -0.58706938984E+03  0.62756471238E+03  0.12499938305E+03 0.  0.
          2    1    1    2  501    0 -0.47069251556E+02  0.15799543195E+03 -0.29868988989E+03  0.34116524043E+03  0.00000000000E+00 0. -1.
          1    1    1    2  502    0  0.13652649414E+02  0.22130870045E+02  0.23118163011E+03  0.23263945569E+03  0.00000000000E+00 0. -1.
         22    1    3    3    0    0  0.59442001503E+02 -0.18527804152E+03 -0.53119911595E+03  0.56571530384E+03  0.00000000000E+00 0. -1.
         22    1    3    3    0    0 -0.26025399361E+02  0.51517395189E+01 -0.55870273896E+02  0.61849408543E+02  0.00000000000E+00 0. -1.
</event>
<event>
 7    1  0.6253338E-006  0.2985189E+03  0.7818608E-02  0.1135592E+00
          2   -1    0    0  502    0  0.00000000000E+00  0.00000000000E+00  0.38967492069E+04  0.38967492069E+04  0.00000000000E+00 0. -1.
          1   -1    0    0  501    0 -0.00000000000E+00 -0.00000000000E+00 -0.13586861195E+03  0.13586861195E+03  0.00000000000E+00 0. -1.
         25    2    1    2    0    0 -0.15842002395E+03 -0.10811280130E+03  0.23410047415E+04  0.23521721147E+04  0.12500070287E+03 0.  0.
          2    1    1    2  501    0  0.15492877022E+03  0.26686918928E+03  0.63803790530E+02  0.31510793661E+03  0.00000000000E+00 0. -1.
          1    1    1    2  502    0  0.34912537292E+01 -0.15875638798E+03  0.13560720629E+04  0.13653377675E+04  0.00000000000E+00 0. -1.
         22    1    3    3    0    0 -0.88469956860E+01 -0.86141003598E+01  0.89045587072E+03  0.89054148121E+03  0.00000000000E+00 0. -1.
         22    1    3    3    0    0 -0.14957302826E+03 -0.99498700940E+02  0.14505488708E+04  0.14616306335E+04  0.00000000000E+00 0. -1.
</event>
<event>
 7    1  0.6253338E-006  0.4828891E+02  0.7818608E-02  0.1474572E+00
          2   -1    0    0  502    0  0.00000000000E+00  0.00000000000E+00  0.42268570254E+03  0.42268570254E+03  0.00000000000E+00 0. -1.
          1   -1    0    0  501    0 -0.00000000000E+00 -0.00000000000E+00 -0.26903261942E+03  0.26903261942E+03  0.00000000000E+00 0. -1.
         25    2    1    2    0    0  0.41609439026E+02  0.12971461980E+02  0.15273460999E+03  0.20212191326E+03  0.12500320992E+03 0.  0.
          2    1    1    2  501    0 -0.25152442775E+00 -0.41865585058E+02 -0.23991228718E+03  0.24353787388E+03  0.00000000000E+00 0. -1.
          1    1    1    2  502    0 -0.41357914598E+02  0.28894123078E+02  0.24083076031E+03  0.24605853482E+03  0.00000000000E+00 0. -1.
         22    1    3    3    0    0  0.84009084987E+02  0.95940880924E+01  0.12646986996E+03  0.15213218231E+03  0.00000000000E+00 0.  1.
         22    1    3    3    0    0 -0.42399645962E+02  0.33773738874E+01  0.26264740036E+02  0.49989730958E+02  0.00000000000E+00 0.  1.
</event>
<event>
 7    1  0.6253338E-006  0.6353946E+02  0.7818608E-02  0.1501999E+00
          2   -1    0    0  502    0  0.00000000000E+00  0.00000000000E+00  0.58716948782E+02  0.58716948782E+02  0.00000000000E+00 0. -1.
          1   -1    0    0  501    0 -0.00000000000E+00 -0.00000000000E+00 -0.29309153620E+04  0.29309153620E+04  0.00000000000E+00 0. -1.
         25    2    1    2    0    0 -0.84671417569E+02  0.12300533329E+02 -0.12762356045E+03  0.19807591975E+03  0.12500297888E+03 0.  0.
          2    1    1    2  501    0  0.59813761866E+02 -0.20803090510E+02 -0.27602416849E+04  0.27609680574E+04  0.00000000000E+00 0. -1.
          1    1    1    2  502    0  0.24857655703E+02  0.85025571816E+01  0.15666832160E+02  0.30588333652E+02  0.00000000000E+00 0. -1.
         22    1    3    3    0    0 -0.46365804083E+02 -0.34061005377E+02 -0.12531732296E+03  0.13789260788E+03  0.00000000000E+00 0. -1.
         22    1    3    3    0    0 -0.38305613486E+02  0.46361538705E+02 -0.23062374947E+01  0.60183311865E+02  0.00000000000E+00 0. -1.
</event>
<event>
 7    1  0.6253338E-006  0.9199155E+02  0.7818608E-02  0.1399379E+00
          2   -1    0    0  502    0  0.00000000000E+00  0.00000000000E+00  0.45005224330E+03  0.45005224330E+03  0.00000000000E+00 0. -1.
          1   -1    0    0  501    0 -0.00000000000E+00 -0.00000000000E+00 -0.12559777259E+04  0.12559777259E+04  0.00000000000E+00 0. -1.
         25    2    1    2    0    0 -0.95921525596E+02 -0.43500207142E+02 -0.83775558163E+03  0.85355300138E+03  0.12500041809E+03 0.  0.
          2    1    1    2  501    0  0.61425915890E+02  0.60946750303E+02 -0.40489813918E+03  0.41404124508E+03  0.00000000000E+00 0. -1.
          1    1    1    2  502    0  0.34495609707E+02 -0.17446543161E+02  0.43672823819E+03  0.43843572276E+03  0.00000000000E+00 0. -1.
         22    1    3    3    0    0  0.28089672321E+02 -0.13790685086E+02 -0.97635027019E+02  0.10252712415E+03  0.00000000000E+00 0.  1.
         22    1    3    3    0    0 -0.12401119792E+03 -0.29709522056E+02 -0.74012055461E+03  0.75102587723E+03  0.00000000000E+00 0.  1.
</event>
<event>
 7    1  0.7316130E-006  0.4399534E+02  0.7818608E-02  0.1506745E+00
          2   -1    0    0  502    0  0.00000000000E+00  0.00000000000E+00  0.18843467762E+04  0.18843467762E+04  0.00000000000E+00 0. -1.
          1   -1    0    0  501    0 -0.00000000000E+00 -0.00000000000E+00 -0.50947406121E+03  0.50947406121E+03  0.00000000000E+00 0. -1.
         25    2    1    2    0    0 -0.70851046282E+02  0.34886496188E+02 -0.71839291257E+02  0.16440050746E+03  0.12501881742E+03 0.  0.
          2    1    1    2  501    0  0.35732555478E+02 -0.85101012906E+01 -0.39022918594E+03  0.39195414899E+03  0.00000000000E+00 0. -1.
          1    1    1    2  502    0  0.35118490805E+02 -0.26376394898E+02  0.18369411921E+04  0.18374661809E+04  0.00000000000E+00 0. -1.
         22    1    3    3    0    0 -0.81393825105E+02  0.50766144181E+02 -0.94590416341E+02  0.13472009139E+03  0.00000000000E+00 0. -1.
         22    1    3    3    0    0  0.10542778823E+02 -0.15879647992E+02  0.22751125084E+02  0.29680416073E+02  0.00000000000E+00 0. -1.
</event>
<event>
 7    1  0.6253338E-006  0.1245851E+03  0.7818608E-02  0.1401568E+00
          2   -1    0    0  502    0  0.00000000000E+00  0.00000000000E+00  0.45532612349E+03  0.45532612349E+03  0.00000000000E+00 0. -1.
          1   -1    0    0  501    0 -0.00000000000E+00 -0.00000000000E+00 -0.22421642972E+03  0.22421642972E+03  0.00000000000E+00 0. -1.
         25    2    1    2    0    0  0.76165596906E+02 -0.11805555337E+03 -0.44091253177E+02  0.19315752231E+03  0.12500991155E+03 0.  0.
          2    1    1    2  501    0 -0.76104924718E+02  0.90002277067E+02 -0.71957417040E+02  0.13809503724E+03  0.00000000000E+00 0. -1.
          1    1    1    2  502    0 -0.60672187760E-01  0.28053276304E+02  0.34715836399E+03  0.34828999366E+03  0.00000000000E+00 0. -1.
         22    1    3    3    0    0  0.53339558102E+01 -0.11410783376E+03 -0.43439134708E+02  0.12221295854E+03  0.00000000000E+00 0.  1.
         22    1    3    3    0    0  0.70831641096E+02 -0.39477196104E+01 -0.65211846869E+00  0.70944563773E+02  0.00000000000E+00 0.  1.
</event>
<event>
 7    1  0.6253338E-006  0.9222034E+02  0.7818608E-02  0.1374269E+00
          2   -1    0    0  502    0  0.00000000000E+00  0.00000000000E+00  0.38735848843E+04  0.38735848843E+04  0.00000000000E+00 0. -1.
          1   -1    0    0  501    0 -0.00000000000E+00 -0.00000000000E+00 -0.20145620803E+04  0.20145620803E+04  0.00000000000E+00 0. -1.
         25    2    1    2    0    0  0.27769779812E+02 -0.61294172939E+02  0.12739381781E+04  0.12818238735E+04  0.12500329895E+03 0.  0.
          2    1    1    2  501    0  0.82131279806E+01  0.91881852708E+02 -0.20093461195E+04  0.20114625421E+04  0.00000000000E+00 0. -1.
          1    1    1    2  502    0 -0.35982907793E+02 -0.30587679770E+02  0.25944307454E+04  0.25948605489E+04  0.00000000000E+00 0. -1.
         22    1    3    3    0    0  0.87627167034E+01  0.38774806504E+01  0.45253983646E+01  0.10597135961E+02  0.00000000000E+00 0.  1.
         22    1    3    3    0    0  0.19007063109E+02 -0.65171653589E+02  0.12694127797E+04  0.12712267375E+04  0.00000000000E+00 0.  1.
</event>
<event>
 7    1  0.6253338E-006  0.2994696E+03  0.7818608E-02  0.1100373E+00
          2   -1    0    0  502    0  0.00000000000E+00  0.00000000000E+00  0.25302843427E+04  0.25302843427E+04  0.00000000000E+00 0. -1.
          1   -1    0    0  501    0 -0.00000000000E+00 -0.00000000000E+00 -0.19917422086E+03  0.19917422086E+03  0.00000000000E+00 0. -1.
         25    2    1    2    0    0  0.13416793610E+03 -0.23694791304E+03  0.74975554905E+03  0.80740549970E+03  0.12499963616E+03 0.  0.
          2    1    1    2  501    0 -0.22368496085E+03 -0.10311190052E+03 -0.51609976413E+02  0.25165574781E+03  0.00000000000E+00 0. -1.
          1    1    1    2  502    0  0.89517024743E+02  0.34005981357E+03  0.16329645492E+04  0.16703973160E+04  0.00000000000E+00 0. -1.
         22    1    3    3    0    0  0.12230120877E+03 -0.89854695499E+02  0.39770438173E+03  0.42567619997E+03  0.00000000000E+00 0.  1.
         22    1    3    3    0    0  0.11866727337E+02 -0.14709321754E+03  0.35205116732E+03  0.38172929974E+03  0.00000000000E+00 0.  1.
</event>
<event>
 7    1  0.6253338E-006  0.8061345E+02  0.7818608E-02  0.1488715E+00
          2   -1    0    0  502    0  0.00000000000E+00  0.00000000000E+00  0.14760718737E+04  0.14760718737E+04  0.00000000000E+00 0. -1.
          1   -1    0    0  501    0 -0.00000000000E+00 -0.00000000000E+00 -0.62702984532E+03  0.62702984532E+03  0.00000000000E+00 0. -1.
         25    2    1    2    0    0 -0.95217779843E+02 -0.11696957480E+02 -0.19569692019E+03  0.25124901687E+03  0.12500215796E+03 0.  0.
          2    1    1    2  501    0  0.14858072156E+02  0.17161217696E+02 -0.40211667799E+03  0.40275686514E+03  0.00000000000E+00 0. -1.
          1    1    1    2  502    0  0.80359707687E+02 -0.54642602151E+01  0.14468556265E+04  0.14490958370E+04  0.00000000000E+00 0. -1.
         22    1    3    3    0    0  0.22978775611E+02  0.39960885564E+01 -0.86427465305E+02  0.89519269498E+02  0.00000000000E+00 0. -1.
         22    1    3    3    0    0 -0.11819655545E+03 -0.15693046037E+02 -0.10926945488E+03  0.16172974737E+03  0.00000000000E+00 0. -1.
</event>
<event>
 7    1  0.6253338E-006  0.7265218E+02  0.7818608E-02  0.1492643E+00
          2   -1    0    0  502    0  0.00000000000E+00  0.00000000000E+00  0.29123483419E+03  0.29123483419E+03  0.00000000000E+00 0. -1.
          1   -1    0    0  501    0 -0.00000000000E+00 -0.00000000000E+00 -0.26815001523E+03  0.26815001523E+03  0.00000000000E+00 0. -1.
         25    2    1    2    0    0  0.88246830475E+02  0.13690156658E+02  0.22480849269E+02  0.15525677151E+03  0.12499741212E+03 0.  0.
          2    1    1    2  501    0 -0.66844498802E+02 -0.25630525602E+02 -0.19462126212E+03  0.20737055367E+03  0.00000000000E+00 0. -1.
          1    1    1    2  502    0 -0.21402331673E+02  0.11940368944E+02  0.19522523181E+03  0.19675752424E+03  0.00000000000E+00 0. -1.
         22    1    3    3    0    0  0.58571034005E+02  0.15626462925E+02 -0.48928644426E+02  0.77902276047E+02  0.00000000000E+00 0.  1.
         22    1    3    3    0    0  0.29675796470E+02 -0.19363062676E+01  0.71409493695E+02  0.77354495460E+02  0.00000000000E+00 0.  1.
</event>
<event>
 7    1  0.6253338E-006  0.1236632E+03  0.7818608E-02  0.1317263E+00
          2   -1    0    0  502    0  0.00000000000E+00  0.00000000000E+00  0.76146053601E+03  0.76146053601E+03  0.00000000000E+00 0. -1.
          1   -1    0    0  501    0 -0.00000000000E+00 -0.00000000000E+00 -0.20620671799E+03  0.20620671799E+03  0.00000000000E+00 0. -1.
         25    2    1    2    0    0  0.93810180135E+02  0.77365156623E+02  0.75510779465E+02  0.19003426023E+03  0.12500169954E+03 0.  0.
          2    1    1    2  501    0 -0.50902430783E+02 -0.11560005831E+03 -0.12054441415E+03  0.17460064926E+03  0.00000000000E+00 0. -1.
          1    1    1    2  502    0 -0.42907749353E+02  0.38234901683E+02  0.60028745270E+03  0.60303234452E+03  0.00000000000E+00 0. -1.
         22    1    3    3    0    0  0.11969282660E+03  0.34957013513E+02  0.55009214864E+02  0.13628785438E+03  0.00000000000E+00 0. -1.
         22    1    3    3    0    0 -0.25882646463E+02  0.42408143110E+02  0.20501564601E+02  0.53746405843E+02  0.00000000000E+00 0. -1.
</event>
<event>
 7    1  0.6253338E-006  0.9764152E+02  0.7818608E-02  0.1378792E+00
          2   -1    0    0  502    0  0.00000000000E+00  0.00000000000E+00  0.21584933433E+03  0.21584933433E+03  0.00000000000E+00 0. -1.
          1   -1    0    0  501    0 -0.00000000000E+00 -0.00000000000E+00 -0.62119604178E+03  0.62119604178E+03  0.00000000000E+00 0. -1.
         25    2    1    2    0    0 -0.12931040812E+03  0.18619030605E+02 -0.37307679706E+02  0.18462092432E+03  0.12500069113E+03 0.  0.
          2    1    1    2  501    0  0.89371909560E+02 -0.34503308330E+02 -0.50235024374E+03  0.51140354309E+03  0.00000000000E+00 0. -1.
          1    1    1    2  502    0  0.39938498560E+02  0.15884277725E+02  0.13431121599E+03  0.14102090869E+03  0.00000000000E+00 0. -1.
         22    1    3    3    0    0 -0.21093673829E+02 -0.20140964422E+02  0.37475478176E+02  0.47486977036E+02  0.00000000000E+00 0. -1.
         22    1    3    3    0    0 -0.10821673429E+03  0.38759995027E+02 -0.74783157882E+02  0.13713394729E+03  0.00000000000E+00 0. -1.
</event>
<event>
 7    1  0.6253338E-006  0.1185928E+03  0.7818608E-02  0.1418822E+00
          2   -1    0    0  502    0  0.00000000000E+00  0.00000000000E+00  0.15941021823E+04  0.15941021823E+04  0.00000000000E+00 0. -1.
          1   -1    0    0  501    0 -0.00000000000E+00 -0.00000000000E+00 -0.97581866126E+02  0.97581866126E+02  0.00000000000E+00 0. -1.
         25    2    1    2    0    0 -0.94398151371E+02  0.10389116624E+02  0.49894044155E+03  0.52305289771E+03  0.12499529935E+03 0.  0.
          2    1    1    2  501    0  0.12015347806E+03 -0.99357742571E+01 -0.42797917077E+02  0.12793451296E+03  0.00000000000E+00 0. -1.
          1    1    1    2  502    0 -0.25755326692E+02 -0.45334236658E+00  0.10403777917E+04  0.10406966377E+04  0.00000000000E+00 0. -1.
         22    1    3    3    0    0 -0.49731245947E+02  0.60317265472E+02  0.16662735855E+03  0.18405446464E+03  0.00000000000E+00 0.  1.
         22    1    3    3    0    0 -0.44666905424E+02 -0.49928148849E+02  0.33231308300E+03  0.33899843306E+03  0.00000000000E+00 0.  1.
</event>
<event>
 7    1  0.6253338E-006  0.7841639E+02  0.7818608E-02  0.1389011E+00
          2   -1    0    0  502    0  0.00000000000E+00  0.00000000000E+00  0.16644589982E+04  0.16644589982E+04  0.00000000000E+00 0. -1.
          1   -1    0    0  501    0 -0.00000000000E+00 -0.00000000000E+00 -0.19064885951E+03  0.19064885951E+03  0.00000000000E+00 0. -1.
         25    2    1    2    0    0  0.20324173288E+02  0.50827348628E+02  0.14117975878E+04  0.14183759351E+04  0.12498549077E+03 0.  0.
          2    1    1    2  501    0  0.22390215113E+02 -0.75370357082E+02 -0.17648109404E+03  0.19320349120E+03  0.00000000000E+00 0. -1.
          1    1    1    2  502    0 -0.42714388401E+02  0.24543008455E+02  0.23849364496E+03  0.24352843145E+03  0.00000000000E+00 0. -1.
         22    1    3    3    0    0  0.23427617480E+02  0.70660626644E+02  0.43161283727E+03  0.43798563757E+03  0.00000000000E+00 0.  1.
         22    1    3    3    0    0 -0.31034441925E+01 -0.19833278016E+02  0.98018475052E+03  0.98039029750E+03  0.00000000000E+00 0.  1.
</event>
<event>
 7    1  0.6253338E-006  0.2912132E+02  0.7818608E-02  0.1629500E+00
          2   -1    0    0  502    0  0.00000000000E+00  0.00000000000E+00  0.18735299194E+03  0.18735299194E+03  0.00000000000E+00 0. -1.
          1   -1    0    0  501    0 -0.00000000000E+00 -0.00000000000E+00 -0.39767695968E+03  0.39767695968E+03  0.00000000000E+00 0. -1.
         25    2    1    2    0    0 -0.19742292588E+02 -0.41764907079E+02 -0.32284315966E+02  0.13711204058E+03  0.12499347597E+03 0.  0.
          2    1    1    2  501    0  0.22163148632E+02  0.12947303533E+02 -0.31089436216E+03  0.31195214737E+03  0.00000000000E+00 0. -1.
          1    1    1    2  502    0 -0.24208560437E+01  0.28817603546E+02  0.13285471039E+03  0.13596576367E+03  0.00000000000E+00 0. -1.
         22    1    3    3    0    0 -0.17671273050E+02 -0.86045791298E+02 -0.13113843616E+02  0.88815116876E+02  0.00000000000E+00 0.  1.
         22    1    3    3    0    0 -0.20710195380E+01  0.44280884219E+02 -0.19170472350E+02  0.48296923704E+02  0.00000000000E+00 0.  1.
</event>
<event>
 7    1  0.6253338E-006  0.1784748E+03  0.7818608E-02  0.1262182E+00
          2   -1    0    0  502    0  0.00000000000E+00  0.00000000000E+00  0.35449613260E+02  0.35449613260E+02  0.00000000000E+00 0. -1.
          1   -1    0    0  501    0 -0.00000000000E+00 -0.00000000000E+00 -0.27208726931E+04  0.27208726931E+04  0.00000000000E+00 0. -1.
         25    2    1    2    0    0  0.16669966891E+01  0.12543121614E+03 -0.17813955008E+04  0.17901772439E+04  0.12501546167E+03 0.  0.
          2    1    1    2  501    0 -0.28715650556E+02  0.60238983007E+02 -0.63299690947E+03  0.63650483978E+03  0.00000000000E+00 0. -1.
          1    1    1    2  502    0  0.27048653867E+02 -0.18567019915E+03 -0.27103066961E+03  0.32964022266E+03  0.00000000000E+00 0. -1.
         22    1    3    3    0    0  0.56851267117E+02  0.80193743488E+02 -0.76673896022E+03  0.77301470632E+03  0.00000000000E+00 0.  1.
         22    1    3    3    0    0 -0.55184270428E+02  0.45237472657E+02 -0.10146565405E+04  0.10171625376E+04  0.00000000000E+00 0.  1.
</event>
<event>
 7    1  0.6253338E-006  0.8440177E+02  0.7818608E-02  0.1384781E+00
          2   -1    0    0  502    0  0.00000000000E+00  0.00000000000E+00  0.47559957889E+03  0.47559957889E+03  0.00000000000E+00 0. -1.
          1   -1    0    0  501    0 -0.00000000000E+00 -0.00000000000E+00 -0.13592105298E+04  0.13592105298E+04  0.00000000000E+00 0. -1.
         25    2    1    2    0    0 -0.45496983218E+02 -0.18345257137E+02 -0.75677822445E+03  0.76860083014E+03  0.12500972422E+03 0.  0.
          2    1    1    2  501    0 -0.38624029100E+02  0.27406069380E+02 -0.59175705243E+03  0.59364915342E+03  0.00000000000E+00 0. -1.
          1    1    1    2  502    0  0.84121012318E+02 -0.90608122423E+01  0.46492432594E+03  0.47256012516E+03  0.00000000000E+00 0. -1.
         22    1    3    3    0    0 -0.31205248454E+02 -0.72132923315E+02 -0.43340659536E+03  0.44047497438E+03  0.00000000000E+00 0.  1.
         22    1    3    3    0    0 -0.14291734764E+02  0.53787666177E+02 -0.32337162910E+03  0.32812585576E+03  0.00000000000E+00 0.  1.
</event>
<event>
 7    1  0.6253338E-006  0.7095620E+02  0.7818608E-02  0.1465554E+00
          2   -1    0    0  502    0  0.00000000000E+00  0.00000000000E+00  0.10149124921E+03  0.10149124921E+03  0.00000000000E+00 0. -1.
          1   -1    0    0  501    0 -0.00000000000E+00 -0.00000000000E+00 -0.16328536889E+04  0.16328536889E+04  0.00000000000E+00 0. -1.
         25    2    1    2    0    0 -0.55698784825E+02 -0.22643383375E+02 -0.94887760936E+03  0.95896243155E+03  0.12500060057E+03 0.  0.
          2    1    1    2  501    0  0.72569943802E+01 -0.29513905315E+02 -0.66540550619E+03  0.66609925856E+03  0.00000000000E+00 0. -1.
          1    1    1    2  502    0  0.48441790445E+02  0.52157288690E+02  0.82920675823E+02  0.10928324805E+03  0.00000000000E+00 0. -1.
         22    1    3    3    0    0 -0.79845537324E+02  0.14921660762E+02 -0.39372248842E+03  0.40201413368E+03  0.00000000000E+00 0.  1.
         22    1    3    3    0    0  0.24146752499E+02 -0.37565044137E+02 -0.55515512094E+03  0.55694829787E+03  0.00000000000E+00 0.  1.
</event>
<event>
 7    1  0.6253338E-006  0.2046684E+03  0.7818608E-02  0.1327395E+00
          2   -1    0    0  502    0  0.00000000000E+00  0.00000000000E+00  0.11027522343E+04  0.11027522343E+04  0.00000000000E+00 0. -1.
          1   -1    0    0  501    0 -0.00000000000E+00 -0.00000000000E+00 -0.16963112188E+04  0.16963112188E+04  0.00000000000E+00 0. -1.
         25    2    1    2    0    0 -0.22400978363E+02 -0.20328564243E+03  0.62010074257E+02  0.24758231740E+03  0.12499959331E+03 0.  0.
          2    1    1    2  501    0 -0.31252646181E+02  0.54845642165E+01 -0.15922876777E+04  0.15926037979E+04  0.00000000000E+00 0. -1.
          1    1    1    2  502    0  0.53653624544E+02  0.19780107822E+03  0.93671861895E+03  0.95887733786E+03  0.00000000000E+00 0. -1.
         22    1    3    3    0    0  0.29217946459E+02 -0.17779173392E+03  0.60252937973E+02  0.18998422456E+03  0.00000000000E+00 0. -1.
         22    1    3    3    0    0 -0.51618924823E+02 -0.25493908510E+02  0.17571362846E+01  0.57598092841E+02  0.00000000000E+00 0. -1.
</event>
<event>
 7    1  0.6253338E-006  0.1000392E+03  0.7818608E-02  0.1304239E+00
          2   -1    0    0  502    0  0.00000000000E+00  0.00000000000E+00  0.11345513642E+04  0.11345513642E+04  0.00000000000E+00 0. -1.
          1   -1    0    0  501    0 -0.00000000000E+00 -0.00000000000E+00 -0.55422897320E+03  0.55422897320E+03  0.00000000000E+00 0. -1.
         25    2    1    2    0    0 -0.36312126796E+01 -0.13352215079E+03  0.93460204977E+02  0.20543030606E+03  0.12500180110E+03 0.  0.
          2    1    1    2  501    0 -0.57893582582E+02  0.55132558429E+02 -0.49249230614E+03  0.49893881139E+03  0.00000000000E+00 0. -1.
          1    1    1    2  502    0  0.61524795261E+02  0.78389592365E+02  0.97935449213E+03  0.98441121990E+03  0.00000000000E+00 0. -1.
         22    1    3    3    0    0 -0.58384739243E+02 -0.33495216936E+02  0.21807774415E+02  0.70755115427E+02  0.00000000000E+00 0.  1.
         22    1    3    3    0    0  0.54753526564E+02 -0.10002693386E+03  0.71652430561E+02  0.13467519064E+03  0.00000000000E+00 0.  1.
</event>
<event>
 7    1  0.6253338E-006  0.6809548E+02  0.7818608E-02  0.1429254E+00
          2   -1    0    0  502    0  0.00000000000E+00  0.00000000000E+00  0.61477698848E+03  0.61477698848E+03  0.00000000000E+00 0. -1.
          1   -1    0    0  501    0 -0.00000000000E+00 -0.00000000000E+00 -0.74939942296E+02  0.74939942296E+02  0.00000000000E+00 0. -1.
         25    2    1    2    0    0  0.77694492733E+01  0.29982926764E+02  0.29742997498E+03  0.32411377361E+03  0.12500323189E+03 0.  0.
          2    1    1    2  501    0 -0.34439029172E+02 -0.61677540071E+02 -0.39320171641E+02  0.80847025780E+02  0.00000000000E+00 0. -1.
          1    1    1    2  502    0  0.26669579899E+02  0.31694613307E+02  0.28172724284E+03  0.28475613138E+03  0.00000000000E+00 0. -1.
         22    1    3    3    0    0 -0.54587024198E+01  0.23102685502E+02 -0.24485756859E+01  0.23864765500E+02  0.00000000000E+00 0.  1.
         22    1    3    3    0    0  0.13228151693E+02  0.68802412626E+01  0.29987855067E+03  0.30024900811E+03  0.00000000000E+00 0.  1.
</event>
<event>
 7    1  0.6253338E-006  0.1409987E+03  0.7818608E-02  0.1309269E+00
          2   -1    0    0  502    0  0.00000000000E+00  0.00000000000E+00  0.22604853553E+03  0.22604853553E+03  0.00000000000E+00 0. -1.
          1   -1    0    0  501    0 -0.00000000000E+00 -0.00000000000E+00 -0.57815107870E+03  0.57815107870E+03  0.00000000000E+00 0. -1.
         25    2    1    2    0    0  0.41730878593E+02 -0.17859736932E+03 -0.66133933335E+02  0.23159829000E+03  0.12500233693E+03 0.  0.
          2    1    1    2  501    0 -0.26848748404E+02  0.47057650718E+02 -0.39647555358E+03  0.40016014590E+03  0.00000000000E+00 0. -1.
          1    1    1    2  502    0 -0.14882130189E+02  0.13153971860E+03  0.11050694374E+03  0.17244117833E+03  0.00000000000E+00 0. -1.
         22    1    3    3    0    0 -0.11519845501E+02  0.15515620442E+02 -0.13414324949E+02  0.23524145721E+02  0.00000000000E+00 0.  1.
         22    1    3    3    0    0  0.53250724094E+02 -0.19411298976E+03 -0.52719608386E+02  0.20807414428E+03  0.00000000000E+00 0.  1.
</event>
<event>
 7    1  0.6253338E-006  0.9530695E+02  0.7818608E-02  0.1310962E+00
          2   -1    0    0  502    0  0.00000000000E+00  0.00000000000E+00  0.17506447973E+04  0.17506447973E+04  0.00000000000E+00 0. -1.
          1   -1    0    0  501    0 -0.00000000000E+00 -0.00000000000E+00 -0.11852055503E+04  0.11852055503E+04  0.00000000000E+00 0. -1.
         25    2    1    2    0    0 -0.29533121648E+02  0.69224418219E+02  0.13739344267E+03  0.20041616968E+03  0.12500183050E+03 0.  0.
          2    1    1    2  501    0 -0.64989784293E+02 -0.44792357543E+02 -0.11508346240E+04  0.11535381914E+04  0.00000000000E+00 0. -1.
          1    1    1    2  502    0  0.94522905941E+02 -0.24432060676E+02  0.15788804283E+04  0.15818959865E+04  0.00000000000E+00 0. -1.
         22    1    3    3    0    0 -0.38427591768E+02  0.88573965910E+02  0.46691922768E+02  0.10724813704E+03  0.00000000000E+00 0.  1.
         22    1    3    3    0    0  0.88944701204E+01 -0.19349547691E+02  0.90701519902E+02  0.93168032645E+02  0.00000000000E+00 0.  1.
</event>
<event>
 7    1  0.6253338E-006  0.1050927E+03  0.7818608E-02  0.1324368E+00
          2   -1    0    0  502    0  0.00000000000E+00  0.00000000000E+00  0.13648577611E+04  0.13648577611E+04  0.00000000000E+00 0. -1.
          1   -1    0    0  501    0 -0.00000000000E+00 -0.00000000000E+00 -0.14170071492E+03  0.14170071492E+03  0.00000000000E+00 0. -1.
         25    2    1    2    0    0 -0.44754744810E+02 -0.48277778836E+02  0.28093236102E+03  0.31445689570E+03  0.12500566657E+03 0.  0.
          2    1    1    2  501    0  0.15830878622E+02 -0.61467530252E+02 -0.11363457230E+03  0.13016024744E+03  0.00000000000E+00 0. -1.
          1    1    1    2  502    0  0.28923866188E+02  0.10974530909E+03  0.10558592575E+04  0.10619413329E+04  0.00000000000E+00 0. -1.
         22    1    3    3    0    0  0.43744704951E+02 -0.13915807993E+02  0.80249233030E+02  0.92451004998E+02  0.00000000000E+00 0.  1.
         22    1    3    3    0    0 -0.88499449761E+02 -0.34361970843E+02  0.20068312799E+03  0.22200589070E+03  0.00000000000E+00 0.  1.
</event>
<event>
 7    1  0.6253338E-006  0.4998562E+02  0.7818608E-02  0.1473025E+00
          2   -1    0    0  502    0  0.00000000000E+00  0.00000000000E+00  0.59080039015E+03  0.59080039015E+03  0.00000000000E+00 0. -1.
          1   -1    0    0  501    0 -0.00000000000E+00 -0.00000000000E+00 -0.69014426862E+02  0.69014426862E+02  0.00000000000E+00 0. -1.
         25    2    1    2    0    0 -0.88649155445E+01  0.33879212302E+02  0.29408990058E+03  0.32146437597E+03  0.12499635052E+03 0.  0.
          2    1    1    2  501    0 -0.31533551681E+02 -0.40222584138E+02 -0.41641597750E+02  0.65926048111E+02  0.00000000000E+00 0. -1.
          1    1    1    2  502    0  0.40398467226E+02  0.63433718365E+01  0.26933766046E+03  0.27242439293E+03  0.00000000000E+00 0. -1.
         22    1    3    3    0    0  0.27352539701E+02 -0.27900405513E+02  0.19690658477E+03  0.20074560314E+03  0.00000000000E+00 0. -1.
         22    1    3    3    0    0 -0.36217455246E+02  0.61779617815E+02  0.97183315810E+02  0.12071877283E+03  0.00000000000E+00 0. -1.
</event>
<event>
 7    1  0.6253338E-006  0.6261850E+02  0.7818608E-02  0.1394670E+00
          2   -1    0    0  502    0  0.00000000000E+00  0.00000000000E+00  0.28687887304E+03  0.28687887304E+03  0.00000000000E+00 0. -1.
          1   -1    0    0  501    0 -0.00000000000E+00 -0.00000000000E+00 -0.52263918521E+03  0.52263918521E+03  0.00000000000E+00 0. -1.
         25    2    1    2    0    0  0.13975062506E+02 -0.86130858886E+02 -0.61229746146E+02  0.16428125891E+03  0.12500169195E+03 0.  0.
          2    1    1    2  501    0  0.34269092085E+02  0.52243365738E+02 -0.40375054915E+03  0.40855629462E+03  0.00000000000E+00 0. -1.
          1    1    1    2  502    0 -0.48244154591E+02  0.33887493147E+02  0.22921998313E+03  0.23668050471E+03  0.00000000000E+00 0. -1.
         22    1    3    3    0    0 -0.35945972912E+02 -0.20452729902E+02  0.22210663671E+02  0.46944016762E+02  0.00000000000E+00 0. -1.
         22    1    3    3    0    0  0.49921035418E+02 -0.65678128983E+02 -0.83440409817E+02  0.11733724215E+03  0.00000000000E+00 0. -1.
</event>
<event>
 7    1  0.6253338E-006  0.5104675E+02  0.7818608E-02  0.1481008E+00
          2   -1    0    0  502    0  0.00000000000E+00  0.00000000000E+00  0.88838050923E+03  0.88838050923E+03  0.00000000000E+00 0. -1.
          1   -1    0    0  501    0 -0.00000000000E+00 -0.00000000000E+00 -0.23442672034E+02  0.23442672034E+02  0.00000000000E+00 0. -1.
         25    2    1    2    0    0 -0.19750665330E+02 -0.25670949745E+02  0.37197685903E+03  0.39375241476E+03  0.12500037615E+03 0.  0.
          2    1    1    2  501    0 -0.34308899961E+02  0.15959105463E+02  0.21699810150E+02  0.43619667861E+02  0.00000000000E+00 0. -1.
          1    1    1    2  502    0  0.54059565291E+02  0.97118442821E+01  0.47126116803E+03  0.47445109865E+03  0.00000000000E+00 0. -1.
         22    1    3    3    0    0 -0.19566299731E+02  0.48682740358E+02  0.11851521202E+03  0.12960981743E+03  0.00000000000E+00 0.  1.
         22    1    3    3    0    0 -0.18436559938E+00 -0.74353690103E+02  0.25346164701E+03  0.26414259733E+03  0.00000000000E+00 0.  1.
</event>
<event>
 7    1  0.8197233E-006  0.6007101E+02  0.7818608E-02  0.1444092E+00
          2   -1    0    0  502    0  0.00000000000E+00  0.00000000000E+00  0.17838228137E+04  0.17838228137E+04  0.00000000000E+00 0. -1.
          1   -1    0    0  501    0 -0.00000000000E+00 -0.00000000000E+00 -0.41290851731E+03  0.41290851731E+03  0.00000000000E+00 0. -1.
         25    2    1    2    0    0 -0.59569197615E+02  0.25739723967E+02 -0.19392985622E+03  0.23967787801E+03  0.12500269349E+03 0.  0.
          2    1    1    2  501    0  0.17087523329E+01 -0.41970447309E+02 -0.19333604335E+03  0.19784656666E+03  0.00000000000E+00 0. -1.
          1    1    1    2  502    0  0.57860445282E+02  0.16230723343E+02  0.17581801960E+04  0.17592068864E+04  0.00000000000E+00 0. -1.
         22    1    3    3    0    0  0.26020588120E+02 -0.12649477936E+02 -0.11021729695E+03  0.11395144950E+03  0.00000000000E+00 0.  1.
         22    1    3    3    0    0 -0.85589785735E+02  0.38389201903E+02 -0.83712559278E+02  0.12572642851E+03  0.00000000000E+00 0.  1.
</event>
<event>
 7    1  0.6253338E-006  0.5738448E+02  0.7818608E-02  0.1445839E+00
          2   -1    0    0  502    0  0.00000000000E+00  0.00000000000E+00  0.35889382441E+03  0.35889382441E+03  0.00000000000E+00 0. -1.
          1   -1    0    0  501    0 -0.00000000000E+00 -0.00000000000E+00 -0.76910162980E+03  0.76910162980E+03  0.00000000000E+00 0. -1.
         25    2    1    2    0    0  0.52813366363E+02  0.14800454157E+02 -0.33513117016E+03  0.36186416546E+03  0.12499787166E+03 0.  0.
          2    1    1    2  501    0 -0.28634899576E+01 -0.43310838114E+02 -0.41707654895E+03  0.41932907836E+03  0.00000000000E+00 0. -1.
          1    1    1    2  502    0 -0.49949876406E+02  0.28510383956E+02  0.34199991372E+03  0.34680221039E+03  0.00000000000E+00 0. -1.
         22    1    3    3    0    0  0.75182288061E+02 -0.15149709984E+02 -0.30304975034E+03  0.31260364894E+03  0.00000000000E+00 0.  1.
         22    1    3    3    0    0 -0.22368921698E+02  0.29950164142E+02 -0.32081419826E+02  0.49260516523E+02  0.00000000000E+00 0.  1.
</event>
<event>
 7    1  0.6253338E-006  0.8351336E+02  0.7818608E-02  0.1336151E+00
          2   -1    0    0  502    0  0.00000000000E+00  0.00000000000E+00  0.99910827584E+03  0.99910827584E+03  0.00000000000E+00 0. -1.
          1   -1    0    0  501    0 -0.00000000000E+00 -0.00000000000E+00 -0.17381654938E+04  0.17381654938E+04  0.00000000000E+00 0. -1.
         25    2    1    2    0    0 -0.48954184440E+02  0.14723118145E+03  0.15993956169E+03  0.25548426326E+03  0.12497204653E+03 0.  0.
          2    1    1    2  501    0  0.25162131854E+02 -0.79262250431E+02 -0.16877290501E+04  0.16897766077E+04  0.00000000000E+00 0. -1.
          1    1    1    2  502    0  0.23792052586E+02 -0.67968931022E+02  0.78873227043E+03  0.79201289874E+03  0.00000000000E+00 0. -1.
         22    1    3    3    0    0 -0.37441872100E+02  0.14442135119E+03  0.70059620053E+02  0.16482648704E+03  0.00000000000E+00 0.  1.
         22    1    3    3    0    0 -0.11512312340E+02  0.28098302590E+01  0.89879941637E+02  0.90657776225E+02  0.00000000000E+00 0.  1.
</event>
<event>
 7    1  0.6253338E-006  0.1526859E+03  0.7818608E-02  0.1321316E+00
          2   -1    0    0  502    0  0.00000000000E+00  0.00000000000E+00  0.13037078465E+04  0.13037078465E+04  0.00000000000E+00 0. -1.
          1   -1    0    0  501    0 -0.00000000000E+00 -0.00000000000E+00 -0.50169090078E+02  0.50169090078E+02  0.00000000000E+00 0. -1.
         25    2    1    2    0    0  0.52397218934E+02 -0.10673660414E+03  0.27764469136E+03  0.32687884947E+03  0.12500014550E+03 0.  0.
          2    1    1    2  501    0  0.56976485562E+01 -0.44527366929E+02  0.79547792437E+01  0.45589780846E+02  0.00000000000E+00 0. -1.
          1    1    1    2  502    0 -0.58094867490E+02  0.15126397107E+03  0.96793928579E+03  0.98140830623E+03  0.00000000000E+00 0. -1.
         22    1    3    3    0    0  0.91600434983E+02 -0.79652595163E+02  0.16742209425E+03  0.20679780765E+03  0.00000000000E+00 0.  1.
         22    1    3    3    0    0 -0.39203216048E+02 -0.27084008979E+02  0.11022259711E+03  0.12008104182E+03  0.00000000000E+00 0.  1.
</event>
<event>
 7    1  0.6253338E-006  0.4442768E+02  0.7818608E-02  0.1572595E+00
          2   -1    0    0  502    0  0.00000000000E+00  0.00000000000E+00  0.18762975692E+04  0.18762975692E+04  0.00000000000E+00 0. -1.
          1   -1    0    0  501    0 -0.00000000000E+00 -0.00000000000E+00 -0.11927854836E+02  0.11927854836E+02  0.00000000000E+00 0. -1.
         25    2    1    2    0    0  0.15790370043E+02 -0.50836724044E+02  0.15449962273E+04  0.15509584497E+04  0.12500024783E+03 0.  0.
          2    1    1    2  501    0 -0.21714364440E+02  0.94593621454E+01  0.11073012273E+02  0.26145836304E+02  0.00000000000E+00 0. -1.
          1    1    1    2  502    0  0.59239943970E+01  0.41377361899E+02  0.30830047477E+03  0.31112113803E+03  0.00000000000E+00 0. -1.
         22    1    3    3    0    0  0.83682826855E+01  0.39479274281E+02  0.68845920098E+03  0.68964100274E+03  0.00000000000E+00 0. -1.
         22    1    3    3    0    0  0.74220873578E+01 -0.90315998325E+02  0.85653702637E+03  0.86131744698E+03  0.00000000000E+00 0. -1.
</event>
<event>
 7    1  0.6253338E-006  0.1816212E+03  0.7818608E-02  0.1255062E+00
          2   -1    0    0  502    0  0.00000000000E+00  0.00000000000E+00  0.11680105480E+04  0.11680105480E+04  0.00000000000E+00 0. -1.
          1   -1    0    0  501    0 -0.00000000000E+00 -0.00000000000E+00 -0.71157402437E+03  0.71157402437E+03  0.00000000000E+00 0. -1.
         25    2    1    2    0    0  0.87546950519E+02 -0.18087004505E+03 -0.16400026102E+03  0.28792097502E+03  0.12499584192E+03 0.  0.
          2    1    1    2  501    0 -0.17256038531E+02  0.17820666557E+03 -0.46793685774E+03  0.50101925048E+03  0.00000000000E+00 0. -1.
          1    1    1    2  502    0 -0.70290911988E+02  0.26633794891E+01  0.10883736424E+04  0.10906443469E+04  0.00000000000E+00 0. -1.
         22    1    3    3    0    0  0.24137631596E+02 -0.13067654565E+02 -0.89618651202E+02  0.93727752017E+02  0.00000000000E+00 0.  1.
         22    1    3    3    0    0  0.63409318922E+02 -0.16780239049E+03 -0.74381609821E+02  0.19419322300E+03  0.00000000000E+00 0.  1.
</event>
<event>
 7    1  0.6253338E-006  0.3390123E+03  0.7818608E-02  0.1164117E+00
          2   -1    0    0  502    0  0.00000000000E+00  0.00000000000E+00  0.16301776083E+04  0.16301776083E+04  0.00000000000E+00 0. -1.
          1   -1    0    0  501    0 -0.00000000000E+00 -0.00000000000E+00 -0.60573301159E+03  0.60573301159E+03  0.00000000000E+00 0. -1.
         25    2    1    2    0    0 -0.38601186296E+02  0.29228520796E+03  0.86188812803E+02  0.33162125392E+03  0.12499380074E+03 0.  0.
          2    1    1    2  501    0  0.13087429600E+03 -0.33008768993E+03 -0.41567497073E+03  0.54669154529E+03  0.00000000000E+00 0. -1.
          1    1    1    2  502    0 -0.92273109703E+02  0.37802481977E+02  0.13539307546E+04  0.13575978207E+04  0.00000000000E+00 0. -1.
         22    1    3    3    0    0 -0.16264027440E+02  0.11272898846E+02  0.41802134820E+02  0.46249489861E+02  0.00000000000E+00 0.  1.
         22    1    3    3    0    0 -0.22337158856E+02  0.28101230911E+03  0.44386677983E+02  0.28537176406E+03  0.00000000000E+00 0.  1.
</event>
<event>
 7    1  0.6253338E-006  0.8391163E+02  0.7818608E-02  0.1369697E+00
          2   -1    0    0  502    0  0.00000000000E+00  0.00000000000E+00  0.21945379900E+04  0.21945379900E+04  0.00000000000E+00 0. -1.
          1   -1    0    0  501    0 -0.00000000000E+00 -0.00000000000E+00 -0.21945682328E+03  0.21945682328E+03  0.00000000000E+00 0. -1.
         25    2    1    2    0    0  0.37847823168E+02  0.36266562977E+02  0.71707214420E+03  0.72977023400E+03  0.12499765250E+03 0.  0.
          2    1    1    2  501    0  0.52033062811E+02 -0.14060526038E+02 -0.20821613754E+03  0.21507928294E+03  0.00000000000E+00 0. -1.
          1    1    1    2  502    0 -0.89880885979E+02 -0.22206036940E+02  0.14662251601E+04  0.14691452963E+04  0.00000000000E+00 0. -1.
         22    1    3    3    0    0 -0.41557334032E+02  0.37118894930E+02  0.32409646075E+03  0.32885154743E+03  0.00000000000E+00 0.  1.
         22    1    3    3    0    0  0.79405157200E+02 -0.85233195304E+00  0.39297568345E+03  0.40091868657E+03  0.00000000000E+00 0.  1.
</event>
<event>
 7    1  0.6253338E-006  0.1332092E+03  0.7818608E-02  0.1425936E+00
          2   -1    0    0  502    0  0.00000000000E+00  0.00000000000E+00  0.13808480546E+04  0.13808480546E+04  0.00000000000E+00 0. -1.
          1   -1    0    0  501    0 -0.00000000000E+00 -0.00000000000E+00 -0.25384761370E+03  0.25384761370E+03  0.00000000000E+00 0. -1.
         25    2    1    2    0    0  0.70575228009E+02 -0.87203901996E+02 -0.37348013846E+02  0.17206228404E+03  0.12500068847E+03 0.  0.
          2    1    1    2  501    0  0.14087682000E+02 -0.16526534784E+02 -0.14491909443E+03  0.14653713886E+03  0.00000000000E+00 0. -1.
          1    1    1    2  502    0 -0.84662910008E+02  0.10373043678E+03  0.13092675491E+04  0.13160962454E+04  0.00000000000E+00 0. -1.
         22    1    3    3    0    0  0.86392639287E+02 -0.44995123733E+02  0.19675502808E+02  0.99374919842E+02  0.00000000000E+00 0. -1.
         22    1    3    3    0    0 -0.15817411279E+02 -0.42208778262E+02 -0.57023516654E+02  0.72687364195E+02  0.00000000000E+00 0. -1.
</event>
<event>
 7    1  0.6253338E-006  0.2659495E+03  0.7818608E-02  0.1267519E+00
          2   -1    0    0  502    0  0.00000000000E+00  0.00000000000E+00  0.26375431924E+04  0.26375431924E+04  0.00000000000E+00 0. -1.
          1   -1    0    0  501    0 -0.00000000000E+00 -0.00000000000E+00 -0.14666963783E+03  0.14666963783E+03  0.00000000000E+00 0. -1.
         25    2    1    2    0    0  0.15912938931E+03 -0.19835734890E+03  0.14716778745E+03  0.31929746297E+03  0.12499884717E+03 0.  0.
          2    1    1    2  501    0 -0.20162721022E+03  0.19948451283E+03  0.27266541585E+03  0.39343872682E+03  0.00000000000E+00 0. -1.
          1    1    1    2  502    0  0.42497820915E+02 -0.11271639286E+01  0.20710403513E+04  0.20714766405E+04  0.00000000000E+00 0. -1.
         22    1    3    3    0    0  0.84578560071E+02 -0.14911353896E+03  0.15297825588E+03  0.22976232741E+03  0.00000000000E+00 0. -1.
         22    1    3    3    0    0  0.74550829237E+02 -0.49243809939E+02 -0.58104684293E+01  0.89535135565E+02  0.00000000000E+00 0. -1.
</event>
<event>
 7    1  0.6253338E-006  0.3687427E+02  0.7818608E-02  0.1565282E+00
          2   -1    0    0  502    0  0.00000000000E+00  0.00000000000E+00  0.21881201020E+04  0.21881201020E+04  0.00000000000E+00 0. -1.
          1   -1    0    0  501    0 -0.00000000000E+00 -0.00000000000E+00 -0.14068487040E+03  0.14068487040E+03  0.00000000000E+00 0. -1.
         25    2    1    2    0    0 -0.24574845142E+02 -0.61794838581E+02  0.40361473757E+03  0.42772598810E+03  0.12498855716E+03 0.  0.
          2    1    1    2  501    0  0.12233931157E+02  0.34588073190E+02 -0.12588455298E+03  0.13112179284E+03  0.00000000000E+00 0. -1.
          1    1    1    2  502    0  0.12340913985E+02  0.27206765391E+02  0.17697050470E+04  0.17699571914E+04  0.00000000000E+00 0. -1.
         22    1    3    3    0    0 -0.13022580165E+02 -0.91338290499E+02  0.18403608168E+03  0.20586779803E+03  0.00000000000E+00 0.  1.
         22    1    3    3    0    0 -0.11552264977E+02  0.29543451918E+02  0.21957865590E+03  0.22185819008E+03  0.00000000000E+00 0.  1.
</event>
<event>
 7    1  0.6253338E-006  0.1696073E+03  0.7818608E-02  0.1286961E+00
          2   -1    0    0  502    0  0.00000000000E+00  0.00000000000E+00  0.98579193637E+03  0.98579193637E+03  0.00000000000E+00 0. -1.
          1   -1    0    0  501    0 -0.00000000000E+00 -0.00000000000E+00 -0.47901201297E+03  0.47901201297E+03  0.00000000000E+00 0. -1.
         25    2    1    2    0    0  0.11371930807E+03  0.73796115225E+02 -0.70242900772E+02  0.19732369757E+03  0.12499851544E+03 0.  0.
          2    1    1    2  501    0 -0.21267860226E+00  0.55356255014E+02 -0.33492286466E+03  0.33946676638E+03  0.00000000000E+00 0. -1.
          1    1    1    2  502    0 -0.11350662947E+03 -0.12915237024E+03  0.91194568884E+03  0.92801348539E+03  0.00000000000E+00 0. -1.
         22    1    3    3    0    0  0.31697205038E+02 -0.25470917924E+02  0.14500522731E+02  0.43171120284E+02  0.00000000000E+00 0.  1.
         22    1    3    3    0    0  0.82022103033E+02  0.99267033149E+02 -0.84743423503E+02  0.15415257728E+03  0.00000000000E+00 0.  1.
</event>
<event>
 7    1  0.6253338E-006  0.1723481E+03  0.7818608E-02  0.1273059E+00
          2   -1    0    0  502    0  0.00000000000E+00  0.00000000000E+00  0.10283369025E+04  0.10283369025E+04  0.00000000000E+00 0. -1.
          1   -1    0    0  501    0 -0.00000000000E+00 -0.00000000000E+00 -0.18806253556E+03  0.18806253556E+03  0.00000000000E+00 0. -1.
         25    2    1    2    0    0  0.16062414757E+03  0.78513838221E+01  0.10960027946E+03  0.23129844439E+03  0.12499995245E+03 0.  0.
          2    1    1    2  501    0 -0.17130643505E+03  0.53405765585E+02 -0.62108951051E+02  0.18988310164E+03  0.00000000000E+00 0. -1.
          1    1    1    2  502    0  0.10682287485E+02 -0.61257149407E+02  0.79278303851E+03  0.79521789201E+03  0.00000000000E+00 0. -1.
         22    1    3    3    0    0  0.49866671753E+02  0.61311513249E+02  0.28648579411E+02  0.84062641588E+02  0.00000000000E+00 0.  1.
         22    1    3    3    0    0  0.11075747581E+03 -0.53460129427E+02  0.80951700047E+02  0.14723580280E+03  0.00000000000E+00 0.  1.
</event>
<event>
 7    1  0.6253338E-006  0.1575219E+03  0.7818608E-02  0.1287574E+00
          2   -1    0    0  502    0  0.00000000000E+00  0.00000000000E+00  0.69806103133E+03  0.69806103133E+03  0.00000000000E+00 0. -1.
          1   -1    0    0  501    0 -0.00000000000E+00 -0.00000000000E+00 -0.11326954405E+04  0.11326954405E+04  0.00000000000E+00 0. -1.
         25    2    1    2    0    0  0.11107622039E+03 -0.90160900151E+02  0.11116671268E+02  0.19030341214E+03  0.12499957456E+03 0.  0.
          2    1    1    2  501    0  0.41857538008E+02  0.41950303603E+02 -0.10314749891E+04  0.10331759456E+04  0.00000000000E+00 0. -1.
          1    1    1    2  502    0 -0.15293375840E+03  0.48210596548E+02  0.58572390867E+03  0.60727711407E+03  0.00000000000E+00 0. -1.
         22    1    3    3    0    0  0.85652774524E+02 -0.73984856945E+01 -0.34268414703E+02  0.92549768344E+02  0.00000000000E+00 0.  1.
         22    1    3    3    0    0  0.25423445866E+02 -0.82762414457E+02  0.45385085971E+02  0.97753643794E+02  0.00000000000E+00 0.  1.
</event>
<event>
 7    1  0.6253338E-006  0.9019090E+02  0.7818608E-02  0.1355279E+00
          2   -1    0    0  502    0  0.00000000000E+00  0.00000000000E+00  0.17072948906E+04  0.17072948906E+04  0.00000000000E+00 0. -1.
          1   -1    0    0  501    0 -0.00000000000E+00 -0.00000000000E+00 -0.12455823971E+04  0.12455823971E+04  0.00000000000E+00 0. -1.
         25    2    1    2    0    0  0.14116947208E+03  0.34595227781E+02  0.97050332691E+01  0.19195027256E+03  0.12500027933E+03 0.  0.
          2    1    1    2  501    0 -0.85125225433E+02 -0.26825494702E+02 -0.11522352726E+04  0.11556868237E+04  0.00000000000E+00 0. -1.
          1    1    1    2  502    0 -0.56044246650E+02 -0.77697330798E+01  0.16042427328E+04  0.16052401914E+04  0.00000000000E+00 0. -1.
         22    1    3    3    0    0  0.14973514475E+03  0.51401760566E+02  0.33264785309E+02  0.16176928171E+03  0.00000000000E+00 0.  1.
         22    1    3    3    0    0 -0.85656726684E+01 -0.16806532785E+02 -0.23559752040E+02  0.30180990850E+02  0.00000000000E+00 0.  1.
</event>
<event>
 7    1  0.6253338E-006  0.5470263E+02  0.7818608E-02  0.1492834E+00
          2   -1    0    0  502    0  0.00000000000E+00  0.00000000000E+00  0.35319498629E+03  0.35319498629E+03  0.00000000000E+00 0. -1.
          1   -1    0    0  501    0 -0.00000000000E+00 -0.00000000000E+00 -0.43603209266E+03  0.43603209266E+03  0.00000000000E+00 0. -1.
         25    2    1    2    0    0 -0.30741059675E+01  0.23181818053E+02 -0.45043630979E+02  0.13491026631E+03  0.12500001779E+03 0.  0.
          2    1    1    2  501    0  0.26468807226E+01  0.32398380435E+02 -0.34277448241E+03  0.34431236810E+03  0.00000000000E+00 0. -1.
          1    1    1    2  502    0  0.42722524495E+00 -0.55580198488E+02  0.30498100702E+03  0.31000444453E+03  0.00000000000E+00 0. -1.
         22    1    3    3    0    0 -0.28278843470E+02 -0.45679047771E+02 -0.21897751876E+02  0.58015342199E+02  0.00000000000E+00 0.  1.
         22    1    3    3    0    0  0.25204737502E+02  0.68860865824E+02 -0.23145879104E+02  0.76894924111E+02  0.00000000000E+00 0.  1.
</event>
<event>
 7    1  0.6253338E-006  0.1363140E+03  0.7818608E-02  0.1307953E+00
          2   -1    0    0  502    0  0.00000000000E+00  0.00000000000E+00  0.37524936898E+02  0.37524936898E+02  0.00000000000E+00 0. -1.
          1   -1    0    0  501    0 -0.00000000000E+00 -0.00000000000E+00 -0.24390970421E+04  0.24390970421E+04  0.00000000000E+00 0. -1.
         25    2    1    2    0    0 -0.22263551598E+02 -0.16439954132E+03 -0.81856741980E+03  0.84450914319E+03  0.12498078751E+03 0.  0.
          2    1    1    2  501    0  0.44569050842E+02  0.35073744707E+02 -0.14275251666E+04  0.14286513463E+04  0.00000000000E+00 0. -1.
          1    1    1    2  502    0 -0.22305499244E+02  0.12932579662E+03 -0.15547951878E+03  0.20346148954E+03  0.00000000000E+00 0. -1.
         22    1    3    3    0    0 -0.58877313698E+02 -0.11738870194E+03 -0.38310869163E+03  0.40499248760E+03  0.00000000000E+00 0. -1.
         22    1    3    3    0    0  0.36613762100E+02 -0.47010839382E+02 -0.43545872818E+03  0.43951665559E+03  0.00000000000E+00 0. -1.
</event>
<event>
 7    1  0.6253338E-006  0.1583153E+03  0.7818608E-02  0.1359424E+00
          2   -1    0    0  502    0  0.00000000000E+00  0.00000000000E+00  0.12017678702E+04  0.12017678702E+04  0.00000000000E+00 0. -1.
          1   -1    0    0  501    0 -0.00000000000E+00 -0.00000000000E+00 -0.13887841392E+03  0.13887841392E+03  0.00000000000E+00 0. -1.
         25    2    1    2    0    0 -0.15714525032E+03  0.73693095696E+02  0.50130908034E+03  0.54503358648E+03  0.12500205724E+03 0.  0.
          2    1    1    2  501    0  0.15091569472E+03 -0.43197336220E+02 -0.63808787936E+02  0.16944945614E+03  0.00000000000E+00 0. -1.
          1    1    1    2  502    0  0.62295556072E+01 -0.30495759476E+02  0.62538916384E+03  0.62616324146E+03  0.00000000000E+00 0. -1.
         22    1    3    3    0    0 -0.30898529218E+02  0.58379789307E+01  0.27742635369E+03  0.27920276293E+03  0.00000000000E+00 0. -1.
         22    1    3    3    0    0 -0.12624672111E+03  0.67855116765E+02  0.22388272665E+03  0.26583082356E+03  0.00000000000E+00 0. -1.
</event>
<event>
 7    1  0.6253338E-006  0.5416669E+02  0.7818608E-02  0.1513142E+00
          2   -1    0    0  502    0  0.00000000000E+00  0.00000000000E+00  0.13648941034E+03  0.13648941034E+03  0.00000000000E+00 0. -1.
          1   -1    0    0  501    0 -0.00000000000E+00 -0.00000000000E+00 -0.72775965783E+03  0.72775965783E+03  0.00000000000E+00 0. -1.
         25    2    1    2    0    0  0.10949415968E+02  0.41075788972E+02 -0.20739381487E+03  0.24585464365E+03  0.12500080483E+03 0.  0.
          2    1    1    2  501    0 -0.26185501036E+02  0.11422574278E+02 -0.49432955234E+03  0.49515438197E+03  0.00000000000E+00 0. -1.
          1    1    1    2  502    0  0.15236085068E+02 -0.52498363250E+02  0.11045311972E+03  0.12324004255E+03  0.00000000000E+00 0. -1.
         22    1    3    3    0    0  0.96394137972E+01 -0.44907121116E+02 -0.67508710074E+02  0.81651661105E+02  0.00000000000E+00 0.  1.
         22    1    3    3    0    0  0.13100021712E+01  0.85982910088E+02 -0.13988510480E+03  0.16420298254E+03  0.00000000000E+00 0.  1.
</event>
<event>
 7    1  0.6253338E-006  0.1149661E+03  0.7818608E-02  0.1374791E+00
          2   -1    0    0  502    0  0.00000000000E+00  0.00000000000E+00  0.57855168176E+02  0.57855168176E+02  0.00000000000E+00 0. -1.
          1   -1    0    0  501    0 -0.00000000000E+00 -0.00000000000E+00 -0.21492871435E+04  0.21492871435E+04  0.00000000000E+00 0. -1.
         25    2    1    2    0    0 -0.13230075870E+03  0.33879719554E+02 -0.15122411256E+03  0.23905143403E+03  0.12500211896E+03 0.  0.
          2    1    1    2  501    0  0.10056998663E+03 -0.54276372464E+02 -0.19234044888E+04  0.19267965836E+04  0.00000000000E+00 0. -1.
          1    1    1    2  502    0  0.31730772063E+02  0.20396652910E+02 -0.16803373903E+02  0.41294294039E+02  0.00000000000E+00 0. -1.
         22    1    3    3    0    0 -0.13995090908E+03  0.35323722100E+02 -0.75434642588E+02  0.16286315604E+03  0.00000000000E+00 0. -1.
         22    1    3    3    0    0  0.76501503793E+01 -0.14440025460E+01 -0.75789469969E+02  0.76188277985E+02  0.00000000000E+00 0. -1.
</event>
<event>
 7    1  0.6253338E-006  0.2680102E+02  0.7818608E-02  0.1653410E+00
          2   -1    0    0  502    0  0.00000000000E+00  0.00000000000E+00  0.20221917553E+03  0.20221917553E+03  0.00000000000E+00 0. -1.
          1   -1    0    0  501    0 -0.00000000000E+00 -0.00000000000E+00 -0.20432425172E+03  0.20432425172E+03  0.00000000000E+00 0. -1.
         25    2    1    2    0    0 -0.24087842958E+02 -0.24468639449E+02 -0.47299797733E+02  0.13798986499E+03  0.12499997392E+03 0.  0.
          2    1    1    2  501    0 -0.12500430469E+00  0.26875003378E+02 -0.10909520817E+03  0.11235677941E+03  0.00000000000E+00 0. -1.
          1    1    1    2  502    0  0.24212847262E+02 -0.24063639281E+01  0.15428992972E+03  0.15619678285E+03  0.00000000000E+00 0. -1.
         22    1    3    3    0    0 -0.24784833635E+01 -0.11446568177E+02  0.42826366377E+02  0.44398924084E+02  0.00000000000E+00 0.  1.
         22    1    3    3    0    0 -0.21609359594E+02 -0.13022071273E+02 -0.90126164109E+02  0.93590940904E+02  0.00000000000E+00 0.  1.
</event>
<event>
 7    1  0.6253338E-006  0.4330535E+02  0.7818608E-02  0.1527722E+00
          2   -1    0    0  502    0  0.00000000000E+00  0.00000000000E+00  0.23110943220E+03  0.23110943220E+03  0.00000000000E+00 0. -1.
          1   -1    0    0  501    0 -0.00000000000E+00 -0.00000000000E+00 -0.44443346064E+03  0.44443346064E+03  0.00000000000E+00 0. -1.
         25    2    1    2    0    0 -0.33505696316E+02  0.17673522961E+02 -0.25255395880E+02  0.13303101622E+03  0.12499772461E+03 0.  0.
          2    1    1    2  501    0  0.12092161652E+02 -0.42010295833E+02 -0.36248354597E+03  0.36511012917E+03  0.00000000000E+00 0. -1.
          1    1    1    2  502    0  0.21413534664E+02  0.24336772872E+02  0.17441491340E+03  0.17740174745E+03  0.00000000000E+00 0. -1.
         22    1    3    3    0    0  0.21884983054E+02  0.36304948876E+02 -0.53388795410E+02  0.68171586981E+02  0.00000000000E+00 0. -1.
         22    1    3    3    0    0 -0.55390679370E+02 -0.18631425915E+02  0.28133399530E+02  0.64859429244E+02  0.00000000000E+00 0. -1.
</event>
<event>
 7    1  0.6253338E-006  0.6688480E+02  0.7818608E-02  0.1389718E+00
          2   -1    0    0  502    0  0.00000000000E+00  0.00000000000E+00  0.67640591675E+03  0.67640591675E+03  0.00000000000E+00 0. -1.
          1   -1    0    0  501    0 -0.00000000000E+00 -0.00000000000E+00 -0.50590081606E+02  0.50590081606E+02  0.00000000000E+00 0. -1.
         25    2    1    2    0    0  0.40437063777E+02 -0.14761254159E+02  0.17293700649E+03  0.21768082660E+03  0.12499873322E+03 0.  0.
          2    1    1    2  501    0 -0.68909126841E+02 -0.35113194546E+02  0.30638547916E+02  0.83187287560E+02  0.00000000000E+00 0. -1.
          1    1    1    2  502    0  0.28472063064E+02  0.49874448705E+02  0.42224028074E+03  0.42612788420E+03  0.00000000000E+00 0. -1.
         22    1    3    3    0    0 -0.37450437871E+02 -0.14623225197E+02  0.17553531759E+02  0.43869129113E+02  0.00000000000E+00 0.  1.
         22    1    3    3    0    0  0.77887501649E+02 -0.13802896260E+00  0.15538347473E+03  0.17381169749E+03  0.00000000000E+00 0.  1.
</event>
<event>
 7    1  0.6253338E-006  0.5366230E+02  0.7818608E-02  0.1478660E+00
          2   -1    0    0  502    0  0.00000000000E+00  0.00000000000E+00  0.10117026792E+04  0.10117026792E+04  0.00000000000E+00 0. -1.
          1   -1    0    0  501    0 -0.00000000000E+00 -0.00000000000E+00 -0.22084923490E+03  0.22084923490E+03  0.00000000000E+00 0. -1.
         25    2    1    2    0    0 -0.28056850323E+02 -0.14174345544E+02  0.38188203220E+03  0.40304699666E+03  0.12499958428E+03 0.  0.
          2    1    1    2  501    0  0.17675368917E+01 -0.36554042972E+02 -0.20734290529E+03  0.21054786301E+03  0.00000000000E+00 0. -1.
          1    1    1    2  502    0  0.26289313432E+02  0.50728388516E+02  0.61631431739E+03  0.61895705443E+03  0.00000000000E+00 0. -1.
         22    1    3    3    0    0 -0.66039046627E+02  0.51826802262E+01  0.32653038280E+03  0.33318179234E+03  0.00000000000E+00 0. -1.
         22    1    3    3    0    0  0.37982196303E+02 -0.19357025770E+02  0.55351649403E+02  0.69865204318E+02  0.00000000000E+00 0. -1.
</event>
<event>
 7    1  0.6865092E-006  0.9548567E+02  0.7818608E-02  0.1345469E+00
          2   -1    0    0  502    0  0.00000000000E+00  0.00000000000E+00  0.12127743717E+04  0.12127743717E+04  0.00000000000E+00 0. -1.
          1   -1    0    0  501    0 -0.00000000000E+00 -0.00000000000E+00 -0.10910193932E+04  0.10910193932E+04  0.00000000000E+00 0. -1.
         25    2    1    2    0    0 -0.47170116327E+02 -0.13088582102E+03 -0.60175722710E+02  0.19647517258E+03  0.12500103127E+03 0.  0.
          2    1    1    2  501    0  0.45632998437E+02  0.35969891881E+02 -0.95984567780E+03  0.96160279162E+03  0.00000000000E+00 0. -1.
          1    1    1    2  502    0  0.15371178896E+01  0.94915929137E+02  0.11417763790E+04  0.11457158007E+04  0.00000000000E+00 0. -1.
         22    1    3    3    0    0  0.23451690405E+02 -0.10048688927E+03 -0.60446165929E+02  0.11958819203E+03  0.00000000000E+00 0.  1.
         22    1    3    3    0    0 -0.70621806732E+02 -0.30398931746E+02  0.27044321871E+00  0.76886980543E+02  0.00000000000E+00 0.  1.
</event>
<event>
 7    1  0.6253338E-006  0.1352315E+03  0.7818608E-02  0.1394165E+00
          2   -1    0    0  502    0  0.00000000000E+00  0.00000000000E+00  0.12855963074E+04  0.12855963074E+04  0.00000000000E+00 0. -1.
          1   -1    0    0  501    0 -0.00000000000E+00 -0.00000000000E+00 -0.75459293281E+03  0.75459293281E+03  0.00000000000E+00 0. -1.
         25    2    1    2    0    0  0.17467114127E+02 -0.13838703755E+03  0.50868785384E+03  0.54207432142E+03  0.12500066027E+03 0.  0.
          2    1    1    2  501    0 -0.42921589408E+02  0.12821963418E+03 -0.73145439336E+03  0.74384680345E+03  0.00000000000E+00 0. -1.
          1    1    1    2  502    0  0.25454475282E+02  0.10167403370E+02  0.75376991415E+03  0.75426811538E+03  0.00000000000E+00 0. -1.
         22    1    3    3    0    0  0.65959224379E+02 -0.79500555244E+02  0.21333031544E+03  0.23702485323E+03  0.00000000000E+00 0.  1.
         22    1    3    3    0    0 -0.48492110252E+02 -0.58886482307E+02  0.29535753840E+03  0.30504946819E+03  0.00000000000E+00 0.  1.
</event>
<event>
 7    1  0.6253338E-006  0.4196482E+02  0.7818608E-02  0.1506640E+00
          2   -1    0    0  502    0  0.00000000000E+00  0.00000000000E+00  0.35088946925E+03  0.35088946925E+03  0.00000000000E+00 0. -1.
          1   -1    0    0  501    0 -0.00000000000E+00 -0.00000000000E+00 -0.39883005445E+03  0.39883005445E+03  0.00000000000E+00 0. -1.
         25    2    1    2    0    0  0.12465153693E+01 -0.62098306692E+01  0.38966969999E+02  0.13108593636E+03  0.12499992865E+03 0.  0.
          2    1    1    2  501    0  0.25069274472E+02  0.34362494238E+02 -0.35008000096E+03  0.35265458540E+03  0.00000000000E+00 0. -1.
          1    1    1    2  502    0 -0.26315789842E+02 -0.28152663568E+02  0.26317244576E+03  0.26597900194E+03  0.00000000000E+00 0. -1.
         22    1    3    3    0    0 -0.58873379659E+02 -0.19870271113E+02  0.98806174168E+01  0.62916842794E+02  0.00000000000E+00 0. -1.
         22    1    3    3    0    0  0.60119895029E+02  0.13660440444E+02  0.29086352582E+02  0.68169093568E+02  0.00000000000E+00 0. -1.
</event>
<event>
 7    1  0.6253338E-006  0.7635385E+02  0.7818608E-02  0.1401963E+00
          2   -1    0    0  502    0  0.00000000000E+00  0.00000000000E+00  0.36230480321E+03  0.36230480321E+03  0.00000000000E+00 0. -1.
          1   -1    0    0  501    0 -0.00000000000E+00 -0.00000000000E+00 -0.11822172893E+03  0.11822172893E+03  0.00000000000E+00 0. -1.
         25    2    1    2    0    0 -0.99916590902E+01 -0.68681503678E+02 -0.24321232094E+02  0.14502905211E+03  0.12499968570E+03 0.  0.
          2    1    1    2  501    0  0.45631032890E+02 -0.20946258921E+00 -0.98094354312E+01  0.46673976268E+02  0.00000000000E+00 0. -1.
          1    1    1    2  502    0 -0.35639373800E+02  0.68890966267E+02  0.27821374180E+03  0.28882350376E+03  0.00000000000E+00 0. -1.
         22    1    3    3    0    0  0.40058971031E+02 -0.36473656150E+02 -0.55737331720E+02  0.77728366124E+02  0.00000000000E+00 0.  1.
         22    1    3    3    0    0 -0.50050630121E+02 -0.32207847528E+02  0.31416099626E+02  0.67300685981E+02  0.00000000000E+00 0.  1.
</event>
<event>
 7    1  0.6253338E-006  0.2778072E+03  0.7818608E-02  0.1184960E+00
          2   -1    0    0  502    0  0.00000000000E+00  0.00000000000E+00  0.16839485247E+04  0.16839485247E+04  0.00000000000E+00 0. -1.
          1   -1    0    0  501    0 -0.00000000000E+00 -0.00000000000E+00 -0.10412466400E+03  0.10412466400E+03  0.00000000000E+00 0. -1.
         25    2    1    2    0    0  0.21955733684E+03 -0.10883620213E+03  0.65483887359E+03  0.71027450634E+03  0.12500072378E+03 0.  0.
          2    1    1    2  501    0  0.16984424956E+02 -0.94542237230E+02 -0.56990484828E+01  0.96224656223E+02  0.00000000000E+00 0. -1.
          1    1    1    2  502    0 -0.23654176179E+03  0.20337843936E+03  0.93068403561E+03  0.98157402615E+03  0.00000000000E+00 0. -1.
         22    1    3    3    0    0  0.18743885815E+03 -0.96633872519E+02  0.63812284354E+03  0.67206561756E+03  0.00000000000E+00 0.  1.
         22    1    3    3    0    0  0.32118478692E+02 -0.12202329612E+02  0.16716030051E+02  0.38208888784E+02  0.00000000000E+00 0.  1.
</event>
<event>
 7    1  0.6253338E-006  0.2931958E+03  0.7818608E-02  0.1213929E+00
          2   -1    0    0  502    0  0.00000000000E+00  0.00000000000E+00  0.14284982311E+04  0.14284982311E+04  0.00000000000E+00 0. -1.
          1   -1    0    0  501    0 -0.00000000000E+00 -0.00000000000E+00 -0.11184843106E+04  0.11184843106E+04  0.00000000000E+00 0. -1.
         25    2    1    2    0    0  0.28502929567E+03  0.18352740431E+03  0.14631729699E+03  0.38981753390E+03  0.12499980328E+03 0.  0.
          2    1    1    2  501    0 -0.66388140118E+02  0.22128686149E+01 -0.97785899327E+03  0.98011248980E+03  0.00000000000E+00 0. -1.
          1    1    1    2  502    0 -0.21864115555E+03 -0.18574027292E+03  0.11415556168E+04  0.11770525180E+04  0.00000000000E+00 0. -1.
         22    1    3    3    0    0  0.48661905965E+02  0.98891842485E+02  0.42096596197E+02  0.11798178255E+03  0.00000000000E+00 0. -1.
         22    1    3    3    0    0  0.23636738970E+03  0.84635561823E+02  0.10422070079E+03  0.27183575135E+03  0.00000000000E+00 0. -1.
</event>
<event>
 7    1  0.6253338E-006  0.1105823E+03  0.7818608E-02  0.1441915E+00
          2   -1    0    0  502    0  0.00000000000E+00  0.00000000000E+00  0.69620453660E+03  0.69620453660E+03  0.00000000000E+00 0. -1.
          1   -1    0    0  501    0 -0.00000000000E+00 -0.00000000000E+00 -0.10483421902E+03  0.10483421902E+03  0.00000000000E+00 0. -1.
         25    2    1    2    0    0  0.81701738033E+02 -0.44679756249E+02  0.27673222901E+02  0.15830997652E+03  0.12499914713E+03 0.  0.
          2    1    1    2  501    0  0.22796189668E+02  0.42602924322E+01 -0.30356659450E+02  0.38201349818E+02  0.00000000000E+00 0. -1.
          1    1    1    2  502    0 -0.10449792770E+03  0.40419463817E+02  0.59405375413E+03  0.60452742928E+03  0.00000000000E+00 0. -1.
         22    1    3    3    0    0 -0.13452831439E+02  0.29726181251E+02  0.17666958089E+02  0.37104527131E+02  0.00000000000E+00 0.  1.
         22    1    3    3    0    0  0.95154569471E+02 -0.74405937500E+02  0.10006264812E+02  0.12120544939E+03  0.00000000000E+00 0.  1.
</event>
<event>
 7    1  0.6253338E-006  0.6204059E+02  0.7818608E-02  0.1483787E+00
          2   -1    0    0  502    0  0.00000000000E+00  0.00000000000E+00  0.12468787419E+04  0.12468787419E+04  0.00000000000E+00 0. -1.
          1   -1    0    0  501    0 -0.00000000000E+00 -0.00000000000E+00 -0.85481856598E+02  0.85481856598E+02  0.00000000000E+00 0. -1.
         25    2    1    2    0    0 -0.57193300515E+02  0.55230499338E+02  0.64901675349E+03  0.66570969657E+03  0.12500068845E+03 0.  0.
          2    1    1    2  501    0  0.56650033324E+02 -0.24704669882E+02 -0.64287059777E+02  0.89176078879E+02  0.00000000000E+00 0. -1.
          1    1    1    2  502    0  0.54326719136E+00 -0.30525829455E+02  0.57666719163E+03  0.57747482310E+03  0.00000000000E+00 0. -1.
         22    1    3    3    0    0  0.51771714606E+01  0.67203644247E+02  0.17629288572E+03  0.18873874657E+03  0.00000000000E+00 0.  1.
         22    1    3    3    0    0 -0.62370471976E+02 -0.11973144910E+02  0.47272386778E+03  0.47697095000E+03  0.00000000000E+00 0.  1.
</event>
<event>
 7    1  0.6253338E-006  0.6507054E+02  0.7818608E-02  0.1410615E+00
          2   -1    0    0  502    0  0.00000000000E+00  0.00000000000E+00  0.45009283989E+03  0.45009283989E+03  0.00000000000E+00 0. -1.
          1   -1    0    0  501    0 -0.00000000000E+00 -0.00000000000E+00 -0.22028670711E+03  0.22028670711E+03  0.00000000000E+00 0. -1.
         25    2    1    2    0    0 -0.40323976016E+02 -0.11294230215E+02 -0.71778436161E+02  0.15010303789E+03  0.12500078163E+03 0.  0.
          2    1    1    2  501    0  0.69633797665E+02 -0.29251384138E+02 -0.94539778057E+02  0.12100528454E+03  0.00000000000E+00 0. -1.
          1    1    1    2  502    0 -0.29309821650E+02  0.40545614353E+02  0.39612434700E+03  0.39927122458E+03  0.00000000000E+00 0. -1.
         22    1    3    3    0    0 -0.11653247858E+02  0.54556129035E+02 -0.12964850455E+02  0.57273525719E+02  0.00000000000E+00 0. -1.
         22    1    3    3    0    0 -0.28670728157E+02 -0.65850359251E+02 -0.58813585706E+02  0.92829512172E+02  0.00000000000E+00 0. -1.
</event>
<event>
 7    1  0.6253338E-006  0.7837450E+02  0.7818608E-02  0.1340376E+00
          2   -1    0    0  502    0  0.00000000000E+00  0.00000000000E+00  0.16639451103E+04  0.16639451103E+04  0.00000000000E+00 0. -1.
          1   -1    0    0  501    0 -0.00000000000E+00 -0.00000000000E+00 -0.21546480521E+03  0.21546480521E+03  0.00000000000E+00 0. -1.
         25    2    1    2    0    0 -0.62957355960E+02  0.10369347740E+03  0.74801218152E+03  0.76802560248E+03  0.12500054576E+03 0.  0.
          2    1    1    2  501    0  0.72069779500E+02 -0.30287343553E+02 -0.19644378877E+03  0.21142738338E+03  0.00000000000E+00 0. -1.
          1    1    1    2  502    0 -0.91124235404E+01 -0.73406133845E+02  0.89691191233E+03  0.89995692965E+03  0.00000000000E+00 0. -1.
         22    1    3    3    0    0 -0.47815585497E+02  0.31017490783E+02  0.94840106021E+02  0.11064836493E+03  0.00000000000E+00 0. -1.
         22    1    3    3    0    0 -0.15141770463E+02  0.72675986615E+02  0.65317207550E+03  0.65737723756E+03  0.00000000000E+00 0. -1.
</event>
<event>
 7    1  0.6253338E-006  0.8271626E+02  0.7818608E-02  0.1384527E+00
          2   -1    0    0  502    0  0.00000000000E+00  0.00000000000E+00  0.25533159884E+03  0.25533159884E+03  0.00000000000E+00 0. -1.
          1   -1    0    0  501    0 -0.00000000000E+00 -0.00000000000E+00 -0.16185216997E+04  0.16185216997E+04  0.00000000000E+00 0. -1.
         25    2    1    2    0    0  0.74827173117E+02  0.18358550576E+02 -0.28954302724E+03  0.32465307599E+03  0.12501325095E+03 0.  0.
          2    1    1    2  501    0 -0.19936011932E+02  0.44129753367E+02 -0.13036869099E+04  0.13045859262E+04  0.00000000000E+00 0. -1.
          1    1    1    2  502    0 -0.54891161185E+02 -0.62488303943E+02  0.23003983630E+03  0.24461429637E+03  0.00000000000E+00 0. -1.
         22    1    3    3    0    0 -0.17565476832E+02  0.46868840492E+02 -0.93015223849E+02  0.10562701384E+03  0.00000000000E+00 0.  1.
         22    1    3    3    0    0  0.92392649949E+02 -0.28510289916E+02 -0.19652780339E+03  0.21902606215E+03  0.00000000000E+00 0.  1.
</event>
<event>
 7    1  0.6253338E-006  0.7406681E+02  0.7818608E-02  0.1372253E+00
          2   -1    0    0  502    0  0.00000000000E+00  0.00000000000E+00  0.42937521119E+03  0.42937521119E+03  0.00000000000E+00 0. -1.
          1   -1    0    0  501    0 -0.00000000000E+00 -0.00000000000E+00 -0.24097963573E+03  0.24097963573E+03  0.00000000000E+00 0. -1.
         25    2    1    2    0    0 -0.60898896773E+02 -0.66390354169E+01  0.47960438895E+01  0.13928816861E+03  0.12500175782E+03 0.  0.
          2    1    1    2  501    0  0.18742624158E+02 -0.56772985395E+02 -0.16434781660E+03  0.17488471246E+03  0.00000000000E+00 0. -1.
          1    1    1    2  502    0  0.42156272616E+02  0.63412020812E+02  0.34794734817E+03  0.35618196586E+03  0.00000000000E+00 0. -1.
         22    1    3    3    0    0 -0.54304345408E+01 -0.22144829992E+02 -0.52998651438E+02  0.57695235236E+02  0.00000000000E+00 0.  1.
         22    1    3    3    0    0 -0.55468462233E+02  0.15505794575E+02  0.57794695328E+02  0.81592933370E+02  0.00000000000E+00 0.  1.
</event>
<event>
 7    1  0.6253338E-006  0.4612506E+02  0.7818608E-02  0.1560714E+00
          2   -1    0    0  502    0  0.00000000000E+00  0.00000000000E+00  0.47299138642E+03  0.47299138642E+03  0.00000000000E+00 0. -1.
          1   -1    0    0  501    0 -0.00000000000E+00 -0.00000000000E+00 -0.30355403629E+04  0.30355403629E+04  0.00000000000E+00 0. -1.
         25    2    1    2    0    0 -0.35357349909E+02 -0.53789802462E+01 -0.93560991634E+03  0.94459974963E+03  0.12499478318E+03 0.  0.
          2    1    1    2  501    0  0.43515894285E+02 -0.17809605073E+02 -0.20948490891E+04  0.20953767015E+04  0.00000000000E+00 0. -1.
          1    1    1    2  502    0 -0.81585443767E+01  0.23188585319E+02  0.46791002892E+03  0.46855529823E+03  0.00000000000E+00 0. -1.
         22    1    3    3    0    0  0.30264253651E+02 -0.41419976515E+02 -0.49762518895E+03  0.50026229938E+03  0.00000000000E+00 0. -1.
         22    1    3    3    0    0 -0.65621603559E+02  0.36040996269E+02 -0.43798472740E+03  0.44433745026E+03  0.00000000000E+00 0. -1.
</event>
<event>
 7    1  0.6253338E-006  0.5433198E+02  0.7818608E-02  0.1529408E+00
          2   -1    0    0  502    0  0.00000000000E+00  0.00000000000E+00  0.20336379730E+04  0.20336379730E+04  0.00000000000E+00 0. -1.
          1   -1    0    0  501    0 -0.00000000000E+00 -0.00000000000E+00 -0.19982917340E+03  0.19982917340E+03  0.00000000000E+00 0. -1.
         25    2    1    2    0    0 -0.32688215808E+02  0.13310184052E+02  0.92090986005E+02  0.15922519112E+03  0.12500492523E+03 0.  0.
          2    1    1    2  501    0 -0.64663891617E+01  0.24719327037E+02 -0.16488750868E+03  0.16685547589E+03  0.00000000000E+00 0. -1.
          1    1    1    2  502    0  0.39154604969E+02 -0.38029511090E+02  0.19066053223E+04  0.19073864794E+04  0.00000000000E+00 0. -1.
         22    1    3    3    0    0  0.24466501390E+02 -0.25718134616E+02  0.81910828379E+02  0.89271585312E+02  0.00000000000E+00 0.  1.
         22    1    3    3    0    0 -0.57154717198E+02  0.39028318669E+02  0.10180157626E+02  0.69953605807E+02  0.00000000000E+00 0.  1.
</event>
<event>
 7    1  0.6253338E-006  0.5199262E+02  0.7818608E-02  0.1461211E+00
          2   -1    0    0  502    0  0.00000000000E+00  0.00000000000E+00  0.16087314538E+04  0.16087314538E+04  0.00000000000E+00 0. -1.
          1   -1    0    0  501    0 -0.00000000000E+00 -0.00000000000E+00 -0.14384951084E+03  0.14384951084E+03  0.00000000000E+00 0. -1.
         25    2    1    2    0    0  0.56897220933E+01 -0.44522870992E+02 -0.11752796280E+02  0.13333197430E+03  0.12499851268E+03 0.  0.
          2    1    1    2  501    0  0.38991715346E+02  0.17651815549E+02 -0.64403566425E+02  0.77328906794E+02  0.00000000000E+00 0. -1.
          1    1    1    2  502    0 -0.44681437439E+02  0.26871055443E+02  0.15410383057E+04  0.15419200836E+04  0.00000000000E+00 0. -1.
         22    1    3    3    0    0 -0.56261289507E+01 -0.17723959355E+02 -0.67735907421E+02  0.70242047353E+02  0.00000000000E+00 0. -1.
         22    1    3    3    0    0  0.11315851044E+02 -0.26798911637E+02  0.55983111141E+02  0.63089926952E+02  0.00000000000E+00 0. -1.
</event>
<event>
 7    1  0.6253338E-006  0.1102715E+03  0.7818608E-02  0.1415691E+00
          2   -1    0    0  502    0  0.00000000000E+00  0.00000000000E+00  0.13140207060E+04  0.13140207060E+04  0.00000000000E+00 0. -1.
          1   -1    0    0  501    0 -0.00000000000E+00 -0.00000000000E+00 -0.23692057460E+03  0.23692057460E+03  0.00000000000E+00 0. -1.
         25    2    1    2    0    0  0.39858735643E+02 -0.83253920897E+02 -0.16396862656E+03  0.22589980135E+03  0.12500030241E+03 0.  0.
          2    1    1    2  501    0 -0.14598885662E+02 -0.24338431071E+02 -0.34511459740E+02  0.44682519434E+02  0.00000000000E+00 0. -1.
          1    1    1    2  502    0 -0.25259849981E+02  0.10759235197E+03  0.12755802177E+04  0.12803589599E+04  0.00000000000E+00 0. -1.
         22    1    3    3    0    0  0.14702296314E+01 -0.10846422575E+03 -0.12640557386E+03  0.16656836118E+03  0.00000000000E+00 0.  1.
         22    1    3    3    0    0  0.38388506012E+02  0.25210304853E+02 -0.37563052701E+02  0.59331440172E+02  0.00000000000E+00 0.  1.
</event>
<event>
 7    1  0.6253338E-006  0.8242219E+02  0.7818608E-02  0.1502688E+00
          2   -1    0    0  502    0  0.00000000000E+00  0.00000000000E+00  0.70260596488E+03  0.70260596488E+03  0.00000000000E+00 0. -1.
          1   -1    0    0  501    0 -0.00000000000E+00 -0.00000000000E+00 -0.11589490471E+04  0.11589490471E+04  0.00000000000E+00 0. -1.
         25    2    1    2    0    0  0.36294968021E+02  0.70059803679E+02 -0.27617423290E+02  0.15037843071E+03  0.12500099822E+03 0.  0.
          2    1    1    2  501    0 -0.18970865409E+02 -0.80365058483E+02 -0.10681989071E+04  0.10713857108E+04  0.00000000000E+00 0. -1.
          1    1    1    2  502    0 -0.17324102612E+02  0.10305254804E+02  0.63947324813E+03  0.63979087043E+03  0.00000000000E+00 0. -1.
         22    1    3    3    0    0  0.40574349450E+01  0.87821880038E+02 -0.55705801785E+02  0.10407824818E+03  0.00000000000E+00 0.  1.
         22    1    3    3    0    0  0.32237533076E+02 -0.17762076358E+02  0.28088378495E+02  0.46300182525E+02  0.00000000000E+00 0.  1.
</event>
<event>
 7    1  0.6253338E-006  0.1129371E+03  0.7818608E-02  0.1315281E+00
          2   -1    0    0  502    0  0.00000000000E+00  0.00000000000E+00  0.19053143043E+04  0.19053143043E+04  0.00000000000E+00 0. -1.
          1   -1    0    0  501    0 -0.00000000000E+00 -0.00000000000E+00 -0.11803312119E+04  0.11803312119E+04  0.00000000000E+00 0. -1.
         25    2    1    2    0    0 -0.11449840575E+03 -0.11541095974E+03  0.33976092534E+03  0.39685474641E+03  0.12500651508E+03 0.  0.
          2    1    1    2  501    0  0.18895267242E+02  0.61211130339E+02 -0.11489264168E+04  0.11507109737E+04  0.00000000000E+00 0. -1.
          1    1    1    2  502    0  0.95603138509E+02  0.54199829402E+02  0.15341485839E+04  0.15380797961E+04  0.00000000000E+00 0. -1.
         22    1    3    3    0    0 -0.85913782082E+02 -0.13473125164E+03  0.21794700802E+03  0.27024911920E+03  0.00000000000E+00 0.  1.
         22    1    3    3    0    0 -0.28584623669E+02  0.19320291902E+02  0.12181391732E+03  0.12660562721E+03  0.00000000000E+00 0.  1.
</event>
<event>
 7    1  0.6253338E-006  0.1173698E+03  0.7818608E-02  0.1279459E+00
          2   -1    0    0  502    0  0.00000000000E+00  0.00000000000E+00  0.23169844881E+04  0.23169844881E+04  0.00000000000E+00 0. -1.
          1   -1    0    0  501    0 -0.00000000000E+00 -0.00000000000E+00 -0.11740722257E+03  0.11740722257E+03  0.00000000000E+00 0. -1.
         25    2    1    2    0    0 -0.87719673997E+02 -0.34942975747E+02  0.85334448876E+03  0.86760450753E+03  0.12500004892E+03 0.  0.
          2    1    1    2  501    0  0.10910072266E+03 -0.48235303693E+02 -0.76340129507E+02  0.14162424786E+03  0.00000000000E+00 0. -1.
          1    1    1    2  502    0 -0.21381048666E+02  0.83178279440E+02  0.14225729063E+04  0.14251629553E+04  0.00000000000E+00 0. -1.
         22    1    3    3    0    0 -0.10145289882E+03 -0.32184654324E+01  0.39069348285E+03  0.40366377933E+03  0.00000000000E+00 0.  1.
         22    1    3    3    0    0  0.13733224818E+02 -0.31724510314E+02  0.46265100591E+03  0.46394072820E+03  0.00000000000E+00 0.  1.
</event>
<event>
 7    1  0.6253338E-006  0.1217596E+03  0.7818608E-02  0.1318657E+00
          2   -1    0    0  502    0  0.00000000000E+00  0.00000000000E+00  0.46914453523E+03  0.46914453523E+03  0.00000000000E+00 0. -1.
          1   -1    0    0  501    0 -0.00000000000E+00 -0.00000000000E+00 -0.67539675474E+03  0.67539675474E+03  0.00000000000E+00 0. -1.
         25    2    1    2    0    0  0.10067054863E+03 -0.14309487943E+03  0.24110852853E+02  0.21637111295E+03  0.12499768564E+03 0.  0.
          2    1    1    2  501    0 -0.77734092439E+02  0.90208576441E+02 -0.57069727453E+03  0.58298846948E+03  0.00000000000E+00 0. -1.
          1    1    1    2  502    0 -0.22936456187E+02  0.52886302984E+02  0.34033420216E+03  0.34518170755E+03  0.00000000000E+00 0. -1.
         22    1    3    3    0    0  0.11893578877E+02 -0.53309771374E+02 -0.46474272961E+02  0.71716434586E+02  0.00000000000E+00 0. -1.
         22    1    3    3    0    0  0.88776969750E+02 -0.89785108051E+02  0.70585125815E+02  0.14465467836E+03  0.00000000000E+00 0. -1.
</event>
<event>
 7    1  0.6253338E-006  0.3458542E+02  0.7818608E-02  0.1618889E+00
          2   -1    0    0  502    0  0.00000000000E+00  0.00000000000E+00  0.54787811859E+03  0.54787811859E+03  0.00000000000E+00 0. -1.
          1   -1    0    0  501    0 -0.00000000000E+00 -0.00000000000E+00 -0.25938117080E+03  0.25938117080E+03  0.00000000000E+00 0. -1.
         25    2    1    2    0    0  0.13589039140E+02  0.45836815361E+02  0.51428236737E+02  0.14338359172E+03  0.12501326015E+03 0.  0.
          2    1    1    2  501    0 -0.23587969885E+02 -0.25132206388E+02 -0.21171551560E+03  0.21450286634E+03  0.00000000000E+00 0. -1.
          1    1    1    2  502    0  0.99989307445E+01 -0.20704608973E+02  0.44878422665E+03  0.44937283133E+03  0.00000000000E+00 0. -1.
         22    1    3    3    0    0 -0.48886018827E+02  0.90557681064E+01  0.50518212440E+02  0.70879754239E+02  0.00000000000E+00 0. -1.
         22    1    3    3    0    0  0.62475057968E+02  0.36781047254E+02  0.91002429693E+00  0.72503837481E+02  0.00000000000E+00 0. -1.
</event>
<event>
 7    1  0.6253338E-006  0.6876677E+02  0.7818608E-02  0.1377717E+00
          2   -1    0    0  502    0  0.00000000000E+00  0.00000000000E+00  0.12105895929E+04  0.12105895929E+04  0.00000000000E+00 0. -1.
          1   -1    0    0  501    0 -0.00000000000E+00 -0.00000000000E+00 -0.76010457058E+02  0.76010457058E+02  0.00000000000E+00 0. -1.
         25    2    1    2    0    0  0.10049080131E+03  0.26950491665E+02  0.24711685255E+03  0.29583065199E+03  0.12499722273E+03 0.  0.
          2    1    1    2  501    0 -0.56429792677E+02  0.24621849641E+02 -0.31602703147E+02  0.69204680676E+02  0.00000000000E+00 0. -1.
          1    1    1    2  502    0 -0.44061008632E+02 -0.51572341305E+02  0.91906498641E+03  0.92156471727E+03  0.00000000000E+00 0. -1.
         22    1    3    3    0    0  0.39011133356E+02 -0.26849451416E+02  0.19083812215E+03  0.19662642353E+03  0.00000000000E+00 0.  1.
         22    1    3    3    0    0  0.61479667953E+02  0.53799943080E+02  0.56278730406E+02  0.99204228454E+02  0.00000000000E+00 0.  1.
</event>
<event>
 7    1  0.6253338E-006  0.7679160E+02  0.7818608E-02  0.1507474E+00
          2   -1    0    0  502    0  0.00000000000E+00  0.00000000000E+00  0.21368883704E+02  0.21368883704E+02  0.00000000000E+00 0. -1.
          1   -1    0    0  501    0 -0.00000000000E+00 -0.00000000000E+00 -0.12011737218E+04  0.12011737218E+04  0.00000000000E+00 0. -1.
         25    2    1    2    0    0  0.22578283203E+02  0.69112473795E+02 -0.55950987922E+03  0.57789498121E+03  0.12499996584E+03 0.  0.
          2    1    1    2  501    0 -0.18908708162E+02  0.89977411056E+01 -0.50442942705E+03  0.50486388805E+03  0.00000000000E+00 0. -1.
          1    1    1    2  502    0 -0.36695750416E+01 -0.78110214901E+02 -0.11586553188E+03  0.13978373628E+03  0.00000000000E+00 0. -1.
         22    1    3    3    0    0 -0.28502139247E+02 -0.23274460772E+02 -0.19336070319E+03  0.19683097827E+03  0.00000000000E+00 0. -1.
         22    1    3    3    0    0  0.51080422451E+02  0.92386934567E+02 -0.36614917603E+03  0.38106400295E+03  0.00000000000E+00 0. -1.
</event>
<event>
 7    1  0.6253338E-006  0.1512909E+03  0.7818608E-02  0.1369861E+00
          2   -1    0    0  502    0  0.00000000000E+00  0.00000000000E+00  0.25014502634E+04  0.25014502634E+04  0.00000000000E+00 0. -1.
          1   -1    0    0  501    0 -0.00000000000E+00 -0.00000000000E+00 -0.32977648215E+02  0.32977648215E+02  0.00000000000E+00 0. -1.
         25    2    1    2    0    0  0.82837984132E+02  0.11005238297E+03  0.66880388228E+03  0.69418829400E+03  0.12500038387E+03 0.  0.
          2    1    1    2  501    0 -0.75177089343E+02 -0.13890668251E+03  0.28955987007E+03  0.32983568570E+03  0.00000000000E+00 0. -1.
          1    1    1    2  502    0 -0.76608947894E+01  0.28854299540E+02  0.15101088628E+04  0.15104039319E+04  0.00000000000E+00 0. -1.
         22    1    3    3    0    0  0.11362777087E+03  0.71306057336E+02  0.43549684184E+03  0.45568994216E+03  0.00000000000E+00 0.  1.
         22    1    3    3    0    0 -0.30789786737E+02  0.38746325634E+02  0.23330704044E+03  0.23849835185E+03  0.00000000000E+00 0.  1.
</event>
<event>
 7    1  0.6253338E-006  0.8712262E+02  0.7818608E-02  0.1375755E+00
          2   -1    0    0  502    0  0.00000000000E+00  0.00000000000E+00  0.86703201465E+03  0.86703201465E+03  0.00000000000E+00 0. -1.
          1   -1    0    0  501    0 -0.00000000000E+00 -0.00000000000E+00 -0.10889234094E+04  0.10889234094E+04  0.00000000000E+00 0. -1.
         25    2    1    2    0    0 -0.10147789928E+03 -0.40801584053E+02  0.22809580365E+03  0.28216192843E+03  0.12500049964E+03 0.  0.
          2    1    1    2  501    0  0.15961111581E+02  0.46732955320E+02 -0.10583095100E+04  0.10594610636E+04  0.00000000000E+00 0. -1.
          1    1    1    2  502    0  0.85516787699E+02 -0.59313712668E+01  0.60832231167E+03  0.61433243201E+03  0.00000000000E+00 0. -1.
         22    1    3    3    0    0 -0.45304341231E+02 -0.76258037253E+02  0.17829161449E+03  0.19913731789E+03  0.00000000000E+00 0. -1.
         22    1    3    3    0    0 -0.56173558048E+02  0.35456453199E+02  0.49804189162E+02  0.83024610540E+02  0.00000000000E+00 0. -1.
</event>
<event>
 7    1  0.6253338E-006  0.7786262E+02  0.7818608E-02  0.1428382E+00
          2   -1    0    0  502    0  0.00000000000E+00  0.00000000000E+00  0.52647924048E+02  0.52647924048E+02  0.00000000000E+00 0. -1.
          1   -1    0    0  501    0 -0.00000000000E+00 -0.00000000000E+00 -0.14915339707E+04  0.14915339707E+04  0.00000000000E+00 0. -1.
         25    2    1    2    0    0  0.27326311112E+02  0.94372918338E+02 -0.85024903830E+03  0.86498691566E+03  0.12500384850E+03 0.  0.
          2    1    1    2  501    0 -0.40810517157E+02 -0.60490511432E+02 -0.62408610005E+03  0.62833753712E+03  0.00000000000E+00 0. -1.
          1    1    1    2  502    0  0.13484206045E+02 -0.33882406907E+02  0.35449091642E+02  0.50857442019E+02  0.00000000000E+00 0. -1.
         22    1    3    3    0    0  0.45005838073E+02  0.11952798944E+03 -0.65568133713E+03  0.66800485147E+03  0.00000000000E+00 0.  1.
         22    1    3    3    0    0 -0.17679526961E+02 -0.25155071106E+02 -0.19456770116E+03  0.19698206419E+03  0.00000000000E+00 0.  1.
</event>
<event>
 7    1  0.6253338E-006  0.3878503E+02  0.7818608E-02  0.1567053E+00
          2   -1    0    0  502    0  0.00000000000E+00  0.00000000000E+00  0.10739046988E+04  0.10739046988E+04  0.00000000000E+00 0. -1.
          1   -1    0    0  501    0 -0.00000000000E+00 -0.00000000000E+00 -0.37633626138E+03  0.37633626138E+03  0.00000000000E+00 0. -1.
         25    2    1    2    0    0 -0.36244856382E+02  0.24395635799E+02  0.37025352903E+03  0.39321797031E+03  0.12499543895E+03 0.  0.
          2    1    1    2  501    0  0.38631776554E+02  0.35913622207E+01 -0.36353639685E+03  0.36560090792E+03  0.00000000000E+00 0. -1.
          1    1    1    2  502    0 -0.23869201720E+01 -0.27986998020E+02  0.69085130525E+03  0.69142208195E+03  0.00000000000E+00 0. -1.
         22    1    3    3    0    0  0.84517819529E+01  0.64803972490E+02  0.12972231093E+03  0.14525448503E+03  0.00000000000E+00 0.  1.
         22    1    3    3    0    0 -0.44696638335E+02 -0.40408336691E+02  0.24053121810E+03  0.24796348528E+03  0.00000000000E+00 0.  1.
</event>
<event>
 7    1  0.6253338E-006  0.1206787E+03  0.7818608E-02  0.1257361E+00
          2   -1    0    0  502    0  0.00000000000E+00  0.00000000000E+00  0.46384221002E+03  0.46384221002E+03  0.00000000000E+00 0. -1.
          1   -1    0    0  501    0 -0.00000000000E+00 -0.00000000000E+00 -0.13350957159E+04  0.13350957159E+04  0.00000000000E+00 0. -1.
         25    2    1    2    0    0  0.13227943303E+03 -0.16842852447E+03  0.92915000431E+01  0.24814365635E+03  0.12499170354E+03 0.  0.
          2    1    1    2  501    0 -0.49876312975E+02  0.90671056304E+02 -0.12038100069E+04  0.12082497340E+04  0.00000000000E+00 0. -1.
          1    1    1    2  502    0 -0.82403120057E+02  0.77757468168E+02  0.32326500092E+03  0.34254453560E+03  0.00000000000E+00 0. -1.
         22    1    3    3    0    0  0.88209702389E+02 -0.47570388112E+02  0.51599713861E+02  0.11272277450E+03  0.00000000000E+00 0.  1.
         22    1    3    3    0    0  0.44069730642E+02 -0.12085813636E+03 -0.42308213818E+02  0.13542088185E+03  0.00000000000E+00 0.  1.
</event>
<event>
 7    1  0.6253338E-006  0.1114422E+03  0.7818608E-02  0.1342031E+00
          2   -1    0    0  502    0  0.00000000000E+00  0.00000000000E+00  0.18088814420E+03  0.18088814420E+03  0.00000000000E+00 0. -1.
          1   -1    0    0  501    0 -0.00000000000E+00 -0.00000000000E+00 -0.97029012654E+03  0.97029012654E+03  0.00000000000E+00 0. -1.
         25    2    1    2    0    0  0.62201004906E+02 -0.42102082499E+02 -0.30947665143E+02  0.14903735403E+03  0.12495128873E+03 0.  0.
          2    1    1    2  501    0 -0.65589188401E+02  0.93272101487E+02 -0.87101602015E+03  0.87844779805E+03  0.00000000000E+00 0. -1.
          1    1    1    2  502    0  0.33881834946E+01 -0.51170018989E+02  0.11256170296E+03  0.12369311866E+03  0.00000000000E+00 0. -1.
         22    1    3    3    0    0 -0.26188132040E+02  0.23863960017E+02 -0.55898573410E+01  0.35868556600E+02  0.00000000000E+00 0.  1.
         22    1    3    3    0    0  0.88389136947E+02 -0.65966042515E+02 -0.25357807802E+02  0.11316879743E+03  0.00000000000E+00 0.  1.
</event>
<event>
 7    1  0.6253338E-006  0.5793733E+02  0.7818608E-02  0.1443124E+00
          2   -1    0    0  502    0  0.00000000000E+00  0.00000000000E+00  0.71843827594E+01  0.71843827594E+01  0.00000000000E+00 0. -1.
          1   -1    0    0  501    0 -0.00000000000E+00 -0.00000000000E+00 -0.31639555763E+04  0.31639555763E+04  0.00000000000E+00 0. -1.
         25    2    1    2    0    0 -0.15258681812E+02  0.47117221210E+02 -0.10855585494E+04  0.10938533625E+04  0.12499981819E+03 0.  0.
          2    1    1    2  501    0 -0.28125769189E+02 -0.53603396579E+02 -0.18851945123E+04  0.18861661465E+04  0.00000000000E+00 0. -1.
          1    1    1    2  502    0  0.43384451002E+02  0.64861753685E+01 -0.18601813184E+03  0.19112045006E+03  0.00000000000E+00 0. -1.
         22    1    3    3    0    0 -0.29507619562E+02  0.18868838201E+01 -0.57093689610E+02  0.64295795633E+02  0.00000000000E+00 0.  1.
         22    1    3    3    0    0  0.14248937750E+02  0.45230337390E+02 -0.10284648598E+04  0.10295575668E+04  0.00000000000E+00 0.  1.
</event>
<event>
 7    1  0.6253338E-006  0.4645283E+02  0.7818608E-02  0.1568889E+00
          2   -1    0    0  502    0  0.00000000000E+00  0.00000000000E+00  0.14767728721E+04  0.14767728721E+04  0.00000000000E+00 0. -1.
          1   -1    0    0  501    0 -0.00000000000E+00 -0.00000000000E+00 -0.21091792528E+03  0.21091792528E+03  0.00000000000E+00 0. -1.
         25    2    1    2    0    0  0.26754338132E+02  0.19768832263E+02  0.38934904028E+03  0.41027186687E+03  0.12499491286E+03 0.  0.
          2    1    1    2  501    0 -0.46051219801E+02 -0.69195129058E+01 -0.19762517289E+03  0.20303768976E+03  0.00000000000E+00 0. -1.
          1    1    1    2  502    0  0.19296881669E+02 -0.12849319357E+02  0.10741310795E+04  0.10743812408E+04  0.00000000000E+00 0. -1.
         22    1    3    3    0    0  0.71991752457E+02 -0.11833278616E+02  0.24885350341E+03  0.25932779462E+03  0.00000000000E+00 0. -1.
         22    1    3    3    0    0 -0.45237414325E+02  0.31602110880E+02  0.14049553687E+03  0.15094407225E+03  0.00000000000E+00 0. -1.
</event>
<event>
 7    1  0.6253338E-006  0.1039258E+03  0.7818608E-02  0.1382392E+00
          2   -1    0    0  502    0  0.00000000000E+00  0.00000000000E+00  0.14723840807E+03  0.14723840807E+03  0.00000000000E+00 0. -1.
          1   -1    0    0  501    0 -0.00000000000E+00 -0.00000000000E+00 -0.60349041197E+03  0.60349041197E+03  0.00000000000E+00 0. -1.
         25    2    1    2    0    0  0.64285178416E+02 -0.71961252324E+02 -0.39101877113E+03  0.42170094797E+03  0.12500001660E+03 0.  0.
          2    1    1    2  501    0  0.29604975822E+02  0.25716753177E+02 -0.17383459997E+03  0.17820290159E+03  0.00000000000E+00 0. -1.
          1    1    1    2  502    0 -0.93890154239E+02  0.46244499147E+02  0.10860136720E+03  0.15082497048E+03  0.00000000000E+00 0. -1.
         22    1    3    3    0    0 -0.17305915240E+02 -0.22725882817E+02 -0.24924416513E+03  0.25087569492E+03  0.00000000000E+00 0. -1.
         22    1    3    3    0    0  0.81591093656E+02 -0.49235369507E+02 -0.14177460600E+03  0.17082525305E+03  0.00000000000E+00 0. -1.
</event>
<event>
 7    1  0.6253338E-006  0.1258890E+03  0.7818608E-02  0.1235934E+00
          2   -1    0    0  502    0  0.00000000000E+00  0.00000000000E+00  0.18905038490E+04  0.18905038490E+04  0.00000000000E+00 0. -1.
          1   -1    0    0  501    0 -0.00000000000E+00 -0.00000000000E+00 -0.30264324160E+04  0.30264324160E+04  0.00000000000E+00 0. -1.
         25    2    1    2    0    0  0.22832629933E+03  0.77542678542E+02  0.13735257349E+04  0.14001231266E+04  0.12500423729E+03 0.  0.
          2    1    1    2  501    0 -0.12537255136E+03 -0.10196814221E+02 -0.30042857878E+04  0.30069179148E+04  0.00000000000E+00 0. -1.
          1    1    1    2  502    0 -0.10295374797E+03 -0.67345864320E+02  0.49483148590E+03  0.50989522364E+03  0.00000000000E+00 0. -1.
         22    1    3    3    0    0  0.23017315540E+03  0.63754212756E+02  0.13596726269E+04  0.13804904684E+04  0.00000000000E+00 0.  1.
         22    1    3    3    0    0 -0.18468560703E+01  0.13788465786E+02  0.13853107961E+02  0.19632658156E+02  0.00000000000E+00 0.  1.
</event>
<event>
 7    1  0.6253338E-006  0.1196820E+03  0.7818608E-02  0.1408465E+00
          2   -1    0    0  502    0  0.00000000000E+00  0.00000000000E+00  0.12128396964E+04  0.12128396964E+04  0.00000000000E+00 0. -1.
          1   -1    0    0  501    0 -0.00000000000E+00 -0.00000000000E+00 -0.35811557417E+02  0.35811557417E+02  0.00000000000E+00 0. -1.
         25    2    1    2    0    0  0.55320475194E+02  0.95404217396E+02  0.70595416345E+03  0.72536810529E+03  0.12500115037E+03 0.  0.
          2    1    1    2  501    0 -0.10864214601E+02  0.25438889254E+02 -0.67008873766E+01  0.28461731096E+02  0.00000000000E+00 0. -1.
          1    1    1    2  502    0 -0.44456260593E+02 -0.12084310665E+03  0.47777486293E+03  0.49482141746E+03  0.00000000000E+00 0. -1.
         22    1    3    3    0    0  0.51243304422E+02  0.13139181062E+02  0.93729882743E+02  0.10762808763E+03  0.00000000000E+00 0.  1.
         22    1    3    3    0    0  0.40771707719E+01  0.82265036334E+02  0.61222428071E+03  0.61774001766E+03  0.00000000000E+00 0.  1.
</event>
<event>
 7    1  0.7580335E-006  0.1065209E+03  0.7818608E-02  0.1398647E+00
          2   -1    0    0  502    0  0.00000000000E+00  0.00000000000E+00  0.20074097931E+04  0.20074097931E+04  0.00000000000E+00 0. -1.
          1   -1    0    0  501    0 -0.00000000000E+00 -0.00000000000E+00 -0.24946413602E+04  0.24946413602E+04  0.00000000000E+00 0. -1.
         25    2    1    2    0    0 -0.61095922575E+02  0.41954876800E+02 -0.20010546463E+03  0.24730685982E+03  0.12500224996E+03 0.  0.
          2    1    1    2  501    0 -0.31947921195E+02  0.10335644645E+02 -0.22693753539E+04  0.22696237556E+04  0.00000000000E+00 0. -1.
          1    1    1    2  502    0  0.93043843770E+02 -0.52290521444E+02  0.19822492514E+04  0.19851205379E+04  0.00000000000E+00 0. -1.
         22    1    3    3    0    0  0.21517448292E+02 -0.13731574297E+02 -0.20539992410E+01  0.25608116420E+02  0.00000000000E+00 0.  1.
         22    1    3    3    0    0 -0.82613370867E+02  0.55686451097E+02 -0.19805146539E+03  0.22169874340E+03  0.00000000000E+00 0.  1.
</event>
<event>
 7    1  0.6253338E-006  0.4700239E+02  0.7818608E-02  0.1588938E+00
          2   -1    0    0  502    0  0.00000000000E+00  0.00000000000E+00  0.67787353570E+03  0.67787353570E+03  0.00000000000E+00 0. -1.
          1   -1    0    0  501    0 -0.00000000000E+00 -0.00000000000E+00 -0.74077829643E+03  0.74077829643E+03  0.00000000000E+00 0. -1.
         25    2    1    2    0    0  0.54751311490E+02 -0.66928922280E+01  0.42284915800E+03  0.44437576672E+03  0.12500364282E+03 0.  0.
          2    1    1    2  501    0 -0.41520872820E+02  0.22011389622E+02 -0.72883761140E+03  0.73035111278E+03  0.00000000000E+00 0. -1.
          1    1    1    2  502    0 -0.13230438671E+02 -0.15318497394E+02  0.24308369268E+03  0.24392495263E+03  0.00000000000E+00 0. -1.
         22    1    3    3    0    0  0.64497347264E+02 -0.36170635427E+02  0.12744583815E+03  0.14734539129E+03  0.00000000000E+00 0.  1.
         22    1    3    3    0    0 -0.97460357736E+01  0.29477743199E+02  0.29540331984E+03  0.29703037544E+03  0.00000000000E+00 0.  1.
</event>
<event>
 7    1  0.6253338E-006  0.6287228E+02  0.7818608E-02  0.1472208E+00
          2   -1    0    0  502    0  0.00000000000E+00  0.00000000000E+00  0.30223756698E+03  0.30223756698E+03  0.00000000000E+00 0. -1.
          1   -1    0    0  501    0 -0.00000000000E+00 -0.00000000000E+00 -0.53547458351E+03  0.53547458351E+03  0.00000000000E+00 0. -1.
         25    2    1    2    0    0 -0.72910582863E+02 -0.60482234369E+02 -0.30074557229E+03  0.33918672471E+03  0.12500272477E+03 0.  0.
          2    1    1    2  501    0  0.21963024682E+02  0.24228972021E+02 -0.21077829190E+03  0.21330003721E+03  0.00000000000E+00 0. -1.
          1    1    1    2  502    0  0.50947558181E+02  0.36253262349E+02  0.27828684765E+03  0.28522538858E+03  0.00000000000E+00 0. -1.
         22    1    3    3    0    0 -0.20208315617E+02 -0.54613798530E+02 -0.34443816512E+02  0.67656629430E+02  0.00000000000E+00 0. -1.
         22    1    3    3    0    0 -0.52702267246E+02 -0.58684358395E+01 -0.26630175578E+03  0.27153009528E+03  0.00000000000E+00 0. -1.
</event>
<event>
 7    1  0.6253338E-006  0.5816141E+02  0.7818608E-02  0.1506018E+00
          2   -1    0    0  502    0  0.00000000000E+00  0.00000000000E+00  0.39475938728E+03  0.39475938728E+03  0.00000000000E+00 0. -1.
          1   -1    0    0  501    0 -0.00000000000E+00 -0.00000000000E+00 -0.38435911080E+03  0.38435911080E+03  0.00000000000E+00 0. -1.
         25    2    1    2    0    0 -0.45412870890E+02  0.44135491279E+02  0.83400317567E+02  0.16306653447E+03  0.12499924504E+03 0.  0.
          2    1    1    2  501    0 -0.99465736621E+01 -0.26091788727E+02 -0.34082697928E+03  0.34196892487E+03  0.00000000000E+00 0. -1.
          1    1    1    2  502    0  0.55359444552E+02 -0.18043702551E+02  0.26782693820E+03  0.27408303874E+03  0.00000000000E+00 0. -1.
         22    1    3    3    0    0 -0.60416356189E+02  0.64032556329E+02  0.13763555710E+02  0.89105217754E+02  0.00000000000E+00 0. -1.
         22    1    3    3    0    0  0.15003485299E+02 -0.19897065050E+02  0.69636761857E+02  0.73961316718E+02  0.00000000000E+00 0. -1.
</event>
<event>
 7    1  0.6253338E-006  0.3266187E+02  0.7818608E-02  0.1592892E+00
          2   -1    0    0  502    0  0.00000000000E+00  0.00000000000E+00  0.49440053408E+03  0.49440053408E+03  0.00000000000E+00 0. -1.
          1   -1    0    0  501    0 -0.00000000000E+00 -0.00000000000E+00 -0.73872280963E+03  0.73872280963E+03  0.00000000000E+00 0. -1.
         25    2    1    2    0    0  0.30612059503E+02  0.98166631058E+01 -0.30154664858E+03  0.32800646230E+03  0.12499757189E+03 0.  0.
          2    1    1    2  501    0 -0.35924623610E+01 -0.28207490297E+02 -0.42291322380E+03  0.42386809642E+03  0.00000000000E+00 0. -1.
          1    1    1    2  502    0 -0.27019597142E+02  0.18390827192E+02  0.48013759684E+03  0.48124878499E+03  0.00000000000E+00 0. -1.
         22    1    3    3    0    0  0.33698661526E+02 -0.19677263252E+02 -0.18106252670E+02  0.43018959349E+02  0.00000000000E+00 0. -1.
         22    1    3    3    0    0 -0.30866020233E+01  0.29493926358E+02 -0.28344039591E+03  0.28498750295E+03  0.00000000000E+00 0. -1.
</event>
<event>
 7    1  0.6253338E-006  0.2895633E+03  0.7818608E-02  0.1172728E+00
          2   -1    0    0  502    0  0.00000000000E+00  0.00000000000E+00  0.10201604243E+04  0.10201604243E+04  0.00000000000E+00 0. -1.
          1   -1    0    0  501    0 -0.00000000000E+00 -0.00000000000E+00 -0.11019179839E+04  0.11019179839E+04  0.00000000000E+00 0. -1.
         25    2    1    2    0    0 -0.38421760331E+03 -0.74995743360E+02  0.58438468930E+03  0.71440770596E+03  0.12500150809E+03 0.  0.
          2    1    1    2  501    0  0.27889259724E+03  0.65333966840E+02 -0.10089992748E+04  0.10488704136E+04  0.00000000000E+00 0. -1.
          1    1    1    2  502    0  0.10532500608E+03  0.96617765203E+01  0.34285702594E+03  0.35880028856E+03  0.00000000000E+00 0. -1.
         22    1    3    3    0    0 -0.35442612652E+02 -0.28553079005E+02  0.20879166824E+02  0.50073912565E+02  0.00000000000E+00 0.  1.
         22    1    3    3    0    0 -0.34877499066E+03 -0.46442664355E+02  0.56350552248E+03  0.66433379339E+03  0.00000000000E+00 0.  1.
</event>
<event>
 7    1  0.6253338E-006  0.6547636E+02  0.7818608E-02  0.1460119E+00
          2   -1    0    0  502    0  0.00000000000E+00  0.00000000000E+00  0.21086530390E+04  0.21086530390E+04  0.00000000000E+00 0. -1.
          1   -1    0    0  501    0 -0.00000000000E+00 -0.00000000000E+00 -0.62050951910E+02  0.62050951910E+02  0.00000000000E+00 0. -1.
         25    2    1    2    0    0  0.84193148133E+02 -0.33156048417E+02  0.30483795357E+03  0.34167133443E+03  0.12500125239E+03 0.  0.
          2    1    1    2  501    0 -0.19594078557E+02  0.28100674276E+02 -0.36227976356E+02  0.49860225432E+02  0.00000000000E+00 0. -1.
          1    1    1    2  502    0 -0.64599069576E+02  0.50553741414E+01  0.17779921099E+04  0.17791724311E+04  0.00000000000E+00 0. -1.
         22    1    3    3    0    0  0.60229888208E+00 -0.30346637020E+02  0.54727598085E+01  0.30842053147E+02  0.00000000000E+00 0.  1.
         22    1    3    3    0    0  0.83590849251E+02 -0.28094113969E+01  0.29936519376E+03  0.31082928129E+03  0.00000000000E+00 0.  1.
</event>
<event>
 7    1  0.6253338E-006  0.6324634E+02  0.7818608E-02  0.1421086E+00
          2   -1    0    0  502    0  0.00000000000E+00  0.00000000000E+00  0.57557323658E+03  0.57557323658E+03  0.00000000000E+00 0. -1.
          1   -1    0    0  501    0 -0.00000000000E+00 -0.00000000000E+00 -0.36002763003E+03  0.36002763003E+03  0.00000000000E+00 0. -1.
         25    2    1    2    0    0 -0.44179384791E+02 -0.90693404106E+02  0.44974324540E+02  0.16680964795E+03  0.12500262874E+03 0.  0.
          2    1    1    2  501    0  0.64132201140E+01  0.61938111457E+02 -0.29464833551E+03  0.30115627282E+03  0.00000000000E+00 0. -1.
          1    1    1    2  502    0  0.37766164677E+02  0.28755292649E+02  0.46521961752E+03  0.46763494584E+03  0.00000000000E+00 0. -1.
         22    1    3    3    0    0 -0.34595663752E+02 -0.99836445204E+02  0.77930673251E+02  0.13129114812E+03  0.00000000000E+00 0.  1.
         22    1    3    3    0    0 -0.95837210386E+01  0.91430410983E+01 -0.32956348711E+02  0.35518499825E+02  0.00000000000E+00 0.  1.
</event>
<event>
 7    1  0.6253338E-006  0.2720656E+03  0.7818608E-02  0.1206834E+00
          2   -1    0    0  502    0  0.00000000000E+00  0.00000000000E+00  0.20649589704E+04  0.20649589704E+04  0.00000000000E+00 0. -1.
          1   -1    0    0  501    0 -0.00000000000E+00 -0.00000000000E+00 -0.39047320218E+03  0.39047320218E+03  0.00000000000E+00 0. -1.
         25    2    1    2    0    0 -0.10323120742E+03 -0.17663908689E+03  0.57982238077E+02  0.24667748899E+03  0.12501917629E+03 0.  0.
          2    1    1    2  501    0 -0.18243978661E+02 -0.75027416306E+02 -0.28067672779E+03  0.29110372975E+03  0.00000000000E+00 0. -1.
          1    1    1    2  502    0  0.12147518608E+03  0.25166650319E+03  0.18971802580E+04  0.19176509539E+04  0.00000000000E+00 0. -1.
         22    1    3    3    0    0 -0.99662001819E+02 -0.19551152639E+03  0.46565945434E+02  0.22433381116E+03  0.00000000000E+00 0.  1.
         22    1    3    3    0    0 -0.35692056002E+01  0.18872439499E+02  0.11416292643E+02  0.22343677830E+02  0.00000000000E+00 0.  1.
</event>
<event>
 7    1  0.6253338E-006  0.6239140E+02  0.7818608E-02  0.1443893E+00
          2   -1    0    0  502    0  0.00000000000E+00  0.00000000000E+00  0.19161962098E+03  0.19161962098E+03  0.00000000000E+00 0. -1.
          1   -1    0    0  501    0 -0.00000000000E+00 -0.00000000000E+00 -0.24513706136E+03  0.24513706136E+03  0.00000000000E+00 0. -1.
         25    2    1    2    0    0 -0.55815862664E+02 -0.10090656604E+02  0.12352492956E+03  0.18466298204E+03  0.12499910735E+03 0.  0.
          2    1    1    2  501    0  0.55138621936E+02 -0.30406545013E+02 -0.19708772818E+03  0.20690190479E+03  0.00000000000E+00 0. -1.
          1    1    1    2  502    0  0.67724072819E+00  0.40497201617E+02  0.20045358241E+02  0.45191795503E+02  0.00000000000E+00 0. -1.
         22    1    3    3    0    0 -0.38408509276E+02 -0.57834603053E+02  0.11321870279E+03  0.13281012595E+03  0.00000000000E+00 0.  1.
         22    1    3    3    0    0 -0.17407353388E+02  0.47743946449E+02  0.10306226772E+02  0.51852856091E+02  0.00000000000E+00 0.  1.
</event>
<event>
 7    1  0.6253338E-006  0.5144231E+02  0.7818608E-02  0.1473966E+00
          2   -1    0    0  502    0  0.00000000000E+00  0.00000000000E+00  0.21969451090E+04  0.21969451090E+04  0.00000000000E+00 0. -1.
          1   -1    0    0  501    0 -0.00000000000E+00 -0.00000000000E+00 -0.40847586994E+02  0.40847586994E+02  0.00000000000E+00 0. -1.
         25    2    1    2    0    0  0.42093373987E+02 -0.12863377526E+02  0.67624593962E+03  0.68910898464E+03  0.12500121294E+03 0.  0.
          2    1    1    2  501    0 -0.44810620981E+02 -0.26512793485E+02 -0.14312938460E+02  0.53997964577E+02  0.00000000000E+00 0. -1.
          1    1    1    2  502    0  0.27172469945E+01  0.39376171011E+02  0.14941645208E+04  0.14946857467E+04  0.00000000000E+00 0. -1.
         22    1    3    3    0    0  0.27458986280E+02  0.75834992633E+01  0.65655304884E+03  0.65717076269E+03  0.00000000000E+00 0.  1.
         22    1    3    3    0    0  0.14634387707E+02 -0.20446876789E+02  0.19692890781E+02  0.31938221949E+02  0.00000000000E+00 0.  1.
</event>
<event>
 7    1  0.6253338E-006  0.9387325E+02  0.7818608E-02  0.1470138E+00
          2   -1    0    0  502    0  0.00000000000E+00  0.00000000000E+00  0.12313522485E+04  0.12313522485E+04  0.00000000000E+00 0. -1.
          1   -1    0    0  501    0 -0.00000000000E+00 -0.00000000000E+00 -0.19374222749E+03  0.19374222749E+03  0.00000000000E+00 0. -1.
         25    2    1    2    0    0  0.41609413924E+02 -0.10103787962E+03  0.57713864507E+02  0.17577096739E+03  0.12499818548E+03 0.  0.
          2    1    1    2  501    0 -0.19734075270E+02  0.10231768571E+02 -0.13182472498E+03  0.13368575441E+03  0.00000000000E+00 0. -1.
          1    1    1    2  502    0 -0.21875338655E+02  0.90806111048E+02  0.11117208815E+04  0.11156377542E+04  0.00000000000E+00 0. -1.
         22    1    3    3    0    0  0.67984373797E+02 -0.11175313996E+03  0.26389886370E+02  0.13344311700E+03  0.00000000000E+00 0. -1.
         22    1    3    3    0    0 -0.26374959873E+02  0.10715260338E+02  0.31323978137E+02  0.42327850391E+02  0.00000000000E+00 0. -1.
</event>
<event>
 7    1  0.6253338E-006  0.9350274E+02  0.7818608E-02  0.1424263E+00
          2   -1    0    0  502    0  0.00000000000E+00  0.00000000000E+00  0.67162841042E+03  0.67162841042E+03  0.00000000000E+00 0. -1.
          1   -1    0    0  501    0 -0.00000000000E+00 -0.00000000000E+00 -0.13900718429E+03  0.13900718429E+03  0.00000000000E+00 0. -1.
         25    2    1    2    0    0 -0.78047193561E+02  0.45392942788E+02  0.13502830551E+03  0.20497617313E+03  0.12502281625E+03 0.  0.
          2    1    1    2  501    0 -0.14766641053E+02 -0.27637939454E+02 -0.97095318594E+02  0.10202651752E+03  0.00000000000E+00 0. -1.
          1    1    1    2  502    0  0.92813834614E+02 -0.17755003334E+02  0.49468823921E+03  0.50363290406E+03  0.00000000000E+00 0. -1.
         22    1    3    3    0    0  0.69485787550E+01 -0.35604666899E+02  0.39341062884E+02  0.53513496247E+02  0.00000000000E+00 0.  1.
         22    1    3    3    0    0 -0.84995772315E+02  0.80997609687E+02  0.95687242626E+02  0.15146267688E+03  0.00000000000E+00 0.  1.
</event>
<event>
 7    1  0.6253338E-006  0.1173312E+03  0.7818608E-02  0.1271637E+00
          2   -1    0    0  502    0  0.00000000000E+00  0.00000000000E+00  0.14028154225E+04  0.14028154225E+04  0.00000000000E+00 0. -1.
          1   -1    0    0  501    0 -0.00000000000E+00 -0.00000000000E+00 -0.18052780503E+03  0.18052780503E+03  0.00000000000E+00 0. -1.
         25    2    1    2    0    0  0.46388990969E+01 -0.61088342428E+02  0.12802209090E+03  0.18913816784E+03  0.12502114146E+03 0.  0.
          2    1    1    2  501    0 -0.86344766325E+02 -0.33452100409E+02 -0.13219253984E+03  0.16139804610E+03  0.00000000000E+00 0. -1.
          1    1    1    2  502    0  0.81705867228E+02  0.94540442837E+02  0.12264580664E+04  0.12328070136E+04  0.00000000000E+00 0. -1.
         22    1    3    3    0    0 -0.56522807470E+02 -0.40489510917E+02  0.91709631289E+02  0.11508642287E+03  0.00000000000E+00 0. -1.
         22    1    3    3    0    0  0.61161706567E+02 -0.20598831511E+02  0.36312459609E+02  0.74051744967E+02  0.00000000000E+00 0. -1.
</event>
<event>
 7    1  0.6253338E-006  0.1498633E+03  0.7818608E-02  0.1266486E+00
          2   -1    0    0  502    0  0.00000000000E+00  0.00000000000E+00  0.10499417183E+04  0.10499417183E+04  0.00000000000E+00 0. -1.
          1   -1    0    0  501    0 -0.00000000000E+00 -0.00000000000E+00 -0.11184829603E+04  0.11184829603E+04  0.00000000000E+00 0. -1.
         25    2    1    2    0    0  0.21500822550E+03  0.59657542064E+02 -0.16087446735E+03  0.30214819822E+03  0.12500152031E+03 0.  0.
          2    1    1    2  501    0 -0.75585148231E+02 -0.97028200754E+01 -0.87971550576E+03  0.88300998319E+03  0.00000000000E+00 0. -1.
          1    1    1    2  502    0 -0.13942307727E+03 -0.49954721989E+02  0.97204873113E+03  0.98326649715E+03  0.00000000000E+00 0. -1.
         22    1    3    3    0    0 -0.47885111876E+01  0.31100210275E+02 -0.67449633072E+01  0.32181476792E+02  0.00000000000E+00 0.  1.
         22    1    3    3    0    0  0.21979673669E+03  0.28557331790E+02 -0.15412950405E+03  0.26996672142E+03  0.00000000000E+00 0.  1.
</event>
<event>
 7    1  0.6253338E-006  0.1269659E+03  0.7818608E-02  0.1293659E+00
          2   -1    0    0  502    0  0.00000000000E+00  0.00000000000E+00  0.38407693884E+04  0.38407693884E+04  0.00000000000E+00 0. -1.
          1   -1    0    0  501    0 -0.00000000000E+00 -0.00000000000E+00 -0.99421873325E+03  0.99421873325E+03  0.00000000000E+00 0. -1.
         25    2    1    2    0    0 -0.23703316668E+02 -0.98889529628E+02  0.11130705997E+04  0.11246742262E+04  0.12499987508E+03 0.  0.
          2    1    1    2  501    0 -0.69405174999E+02 -0.26102042749E+01 -0.98545139763E+03  0.98789591991E+03  0.00000000000E+00 0. -1.
          1    1    1    2  502    0  0.93108491667E+02  0.10149973390E+03  0.27189314531E+04  0.27224179756E+04  0.00000000000E+00 0. -1.
         22    1    3    3    0    0 -0.52189837974E+02 -0.84901087146E+02  0.10430170884E+04  0.10477674458E+04  0.00000000000E+00 0.  1.
         22    1    3    3    0    0  0.28486521305E+02 -0.13988442482E+02  0.70053511315E+02  0.76906780369E+02  0.00000000000E+00 0.  1.
</event>
<event>
 7    1  0.6253338E-006  0.4991493E+02  0.7818608E-02  0.1447952E+00
          2   -1    0    0  502    0  0.00000000000E+00  0.00000000000E+00  0.13071642729E+03  0.13071642729E+03  0.00000000000E+00 0. -1.
          1   -1    0    0  501    0 -0.00000000000E+00 -0.00000000000E+00 -0.55012252497E+03  0.55012252497E+03  0.00000000000E+00 0. -1.
         25    2    1    2    0    0 -0.25809201946E+02 -0.13065493456E+02 -0.13106974429E+03  0.18341085325E+03  0.12499376463E+03 0.  0.
          2    1    1    2  501    0 -0.62709026687E+01  0.51306400510E+02 -0.38509759258E+03  0.38855093201E+03  0.00000000000E+00 0. -1.
          1    1    1    2  502    0  0.32080104615E+02 -0.38240907054E+02  0.96761239188E+02  0.10887716700E+03  0.00000000000E+00 0. -1.
         22    1    3    3    0    0 -0.42438837340E+02 -0.80795351780E+01  0.74230149984E+01  0.43834175653E+02  0.00000000000E+00 0. -1.
         22    1    3    3    0    0  0.16629635394E+02 -0.49859582782E+01 -0.13849275929E+03  0.13957667760E+03  0.00000000000E+00 0. -1.
</event>
<event>
 7    1  0.6253338E-006  0.1078053E+03  0.7818608E-02  0.1332940E+00
          2   -1    0    0  502    0  0.00000000000E+00  0.00000000000E+00  0.19330684202E+04  0.19330684202E+04  0.00000000000E+00 0. -1.
          1   -1    0    0  501    0 -0.00000000000E+00 -0.00000000000E+00 -0.48895682379E+03  0.48895682379E+03  0.00000000000E+00 0. -1.
         25    2    1    2    0    0 -0.86297936369E+02 -0.94165757471E+02  0.11935256488E+03  0.21490482275E+03  0.12499809758E+03 0.  0.
          2    1    1    2  501    0  0.56626229235E+02 -0.92255158967E+01 -0.43766879186E+03  0.44141319797E+03  0.00000000000E+00 0. -1.
          1    1    1    2  502    0  0.29671707134E+02  0.10339127337E+03  0.17624278234E+04  0.17657072233E+04  0.00000000000E+00 0. -1.
         22    1    3    3    0    0 -0.69763297326E+02  0.11850299208E+02  0.56516057729E+02  0.90561647657E+02  0.00000000000E+00 0. -1.
         22    1    3    3    0    0 -0.16534639043E+02 -0.10601605668E+03  0.62836507148E+02  0.12434317509E+03  0.00000000000E+00 0. -1.
</event>
<event>
 7    1  0.6253338E-006  0.2165452E+03  0.7818608E-02  0.1176044E+00
          2   -1    0    0  502    0  0.00000000000E+00  0.00000000000E+00  0.39740436243E+03  0.39740436243E+03  0.00000000000E+00 0. -1.
          1   -1    0    0  501    0 -0.00000000000E+00 -0.00000000000E+00 -0.51471596081E+03  0.51471596081E+03  0.00000000000E+00 0. -1.
         25    2    1    2    0    0  0.32336135281E+03  0.45880691002E+02 -0.67284329493E+02  0.35611883127E+03  0.12500335473E+03 0.  0.
          2    1    1    2  501    0 -0.18721142631E+03 -0.41909203150E+02 -0.24933382835E+03  0.31459792976E+03  0.00000000000E+00 0. -1.
          1    1    1    2  502    0 -0.13614992650E+03 -0.39714878521E+01  0.19930655947E+03  0.24140356221E+03  0.00000000000E+00 0. -1.
         22    1    3    3    0    0  0.10011121948E+03  0.28967774869E+02  0.35044803764E+02  0.10995238295E+03  0.00000000000E+00 0.  1.
         22    1    3    3    0    0  0.22325013333E+03  0.16912916133E+02 -0.10232913326E+03  0.24616644832E+03  0.00000000000E+00 0.  1.
</event>
<event>
 7    1  0.6253338E-006  0.4476736E+02  0.7818608E-02  0.1514755E+00
          2   -1    0    0  502    0  0.00000000000E+00  0.00000000000E+00  0.23061590032E+04  0.23061590032E+04  0.00000000000E+00 0. -1.
          1   -1    0    0  501    0 -0.00000000000E+00 -0.00000000000E+00 -0.22351016485E+02  0.22351016485E+02  0.00000000000E+00 0. -1.
         25    2    1    2    0    0 -0.53209741622E+02 -0.37429833928E+02  0.81098611226E+03  0.82313684457E+03  0.12499408606E+03 0.  0.
          2    1    1    2  501    0  0.34115259046E+02 -0.23025530567E+01  0.23853009089E+01  0.34275972792E+02  0.00000000000E+00 0. -1.
          1    1    1    2  502    0  0.19094482576E+02  0.39732386985E+02  0.14704365735E+04  0.14710972023E+04  0.00000000000E+00 0. -1.
         22    1    3    3    0    0 -0.11862223157E+01 -0.23032867804E+02  0.69306170226E+03  0.69344534266E+03  0.00000000000E+00 0. -1.
         22    1    3    3    0    0 -0.52023519307E+02 -0.14396966124E+02  0.11792441000E+03  0.12969150191E+03  0.00000000000E+00 0. -1.
</event>
<event>
 7    1  0.6253338E-006  0.1085502E+03  0.7818608E-02  0.1365562E+00
          2   -1    0    0  502    0  0.00000000000E+00  0.00000000000E+00  0.18276892621E+04  0.18276892621E+04  0.00000000000E+00 0. -1.
          1   -1    0    0  501    0 -0.00000000000E+00 -0.00000000000E+00 -0.15690368888E+03  0.15690368888E+03  0.00000000000E+00 0. -1.
         25    2    1    2    0    0 -0.66289249331E+02 -0.40572235258E+02  0.13777315458E+03  0.20161068306E+03  0.12500021821E+03 0.  0.
          2    1    1    2  501    0  0.78778291838E+02  0.81845390921E+02 -0.98828660056E+02  0.15057154887E+03  0.00000000000E+00 0. -1.
          1    1    1    2  502    0 -0.12489042507E+02 -0.41273155663E+02  0.16318410787E+04  0.16324107191E+04  0.00000000000E+00 0. -1.
         22    1    3    3    0    0 -0.77976716396E+02 -0.14488377572E+02  0.21921319283E+02  0.82285026729E+02  0.00000000000E+00 0. -1.
         22    1    3    3    0    0  0.11687467065E+02 -0.26083857686E+02  0.11585183530E+03  0.11932565634E+03  0.00000000000E+00 0. -1.
</event>
<event>
 7    1  0.6253338E-006  0.1091071E+03  0.7818608E-02  0.1270104E+00
          2   -1    0    0  502    0  0.00000000000E+00  0.00000000000E+00  0.19098308831E+02  0.19098308831E+02  0.00000000000E+00 0. -1.
          1   -1    0    0  501    0 -0.00000000000E+00 -0.00000000000E+00 -0.32132844864E+04  0.32132844864E+04  0.00000000000E+00 0. -1.
         25    2    1    2    0    0 -0.90086196771E+02  0.71960791454E+02 -0.12615107370E+04  0.12729213756E+04  0.12500244224E+03 0.  0.
          2    1    1    2  501    0 -0.12453188806E+02 -0.10924393284E+03 -0.16878132280E+04  0.16913907920E+04  0.00000000000E+00 0. -1.
          1    1    1    2  502    0  0.10253938558E+03  0.37283141387E+02 -0.24486221252E+03  0.26807062753E+03  0.00000000000E+00 0. -1.
         22    1    3    3    0    0 -0.67684358873E+02  0.10172926788E+03 -0.73437476266E+03  0.74447048861E+03  0.00000000000E+00 0.  1.
         22    1    3    3    0    0 -0.22401837898E+02 -0.29768476421E+02 -0.52713597436E+03  0.52845088702E+03  0.00000000000E+00 0.  1.
</event>
<event>
 7    1  0.6253338E-006  0.7391065E+02  0.7818608E-02  0.1377879E+00
          2   -1    0    0  502    0  0.00000000000E+00  0.00000000000E+00  0.86794811266E+03  0.86794811266E+03  0.00000000000E+00 0. -1.
          1   -1    0    0  501    0 -0.00000000000E+00 -0.00000000000E+00 -0.11667109696E+04  0.11667109696E+04  0.00000000000E+00 0. -1.
         25    2    1    2    0    0  0.13659716267E+02 -0.10927309966E+03 -0.21296236850E+02  0.16794797230E+03  0.12500317411E+03 0.  0.
          2    1    1    2  501    0 -0.42584104108E+02  0.59917317512E+02 -0.10697963640E+04  0.10723188664E+04  0.00000000000E+00 0. -1.
          1    1    1    2  502    0  0.28924387841E+02  0.49355782149E+02  0.79232974393E+03  0.79439224351E+03  0.00000000000E+00 0. -1.
         22    1    3    3    0    0  0.20680764545E+02  0.58238957517E+01  0.33878259553E+02  0.40116682992E+02  0.00000000000E+00 0. -1.
         22    1    3    3    0    0 -0.70210482784E+01 -0.11509699541E+03 -0.55174496403E+02  0.12783128931E+03  0.00000000000E+00 0. -1.
</event>
<event>
 7    1  0.6253338E-006  0.7230153E+02  0.7818608E-02  0.1451737E+00
          2   -1    0    0  502    0  0.00000000000E+00  0.00000000000E+00  0.98089908657E+03  0.98089908657E+03  0.00000000000E+00 0. -1.
          1   -1    0    0  501    0 -0.00000000000E+00 -0.00000000000E+00 -0.27038397348E+02  0.27038397348E+02  0.00000000000E+00 0. -1.
         25    2    1    2    0    0 -0.56390813207E+02  0.10417064592E+02  0.54424070029E+03  0.56134691118E+03  0.12499590310E+03 0.  0.
          2    1    1    2  501    0 -0.22914001816E+02 -0.23723782824E+02  0.41725515594E+01  0.33245744648E+02  0.00000000000E+00 0. -1.
          1    1    1    2  502    0  0.79304815023E+02  0.13306718231E+02  0.40544743738E+03  0.41334482809E+03  0.00000000000E+00 0. -1.
         22    1    3    3    0    0 -0.65221360526E+02 -0.84635942558E+01  0.12205175729E+03  0.13864375123E+03  0.00000000000E+00 0.  1.
         22    1    3    3    0    0  0.88305473185E+01  0.18880658848E+02  0.42218894300E+03  0.42270315995E+03  0.00000000000E+00 0.  1.
</event>
<event>
 7    1  0.6253338E-006  0.1079858E+03  0.7818608E-02  0.1338181E+00
          2   -1    0    0  502    0  0.00000000000E+00  0.00000000000E+00  0.20478158336E+04  0.20478158336E+04  0.00000000000E+00 0. -1.
          1   -1    0    0  501    0 -0.00000000000E+00 -0.00000000000E+00 -0.28627773994E+03  0.28627773994E+03  0.00000000000E+00 0. -1.
         25    2    1    2    0    0 -0.82716578005E+02 -0.24704881523E+02 -0.18105907532E+03  0.23634670716E+03  0.12500005513E+03 0.  0.
          2    1    1    2  501    0 -0.22536427127E+02  0.49861314503E+02 -0.66285009041E+02  0.85951984592E+02  0.00000000000E+00 0. -1.
          1    1    1    2  502    0  0.10525300513E+03 -0.25156432981E+02  0.20088821780E+04  0.20117948818E+04  0.00000000000E+00 0. -1.
         22    1    3    3    0    0  0.17787138489E+02 -0.31233049962E+02 -0.91206408567E+01  0.37081960509E+02  0.00000000000E+00 0. -1.
         22    1    3    3    0    0 -0.10050371649E+03  0.65281684394E+01 -0.17193843446E+03  0.19926474665E+03  0.00000000000E+00 0. -1.
</event>
<event>
 7    1  0.6253338E-006  0.1741202E+03  0.7818608E-02  0.1199074E+00
          2   -1    0    0  502    0  0.00000000000E+00  0.00000000000E+00  0.61625977448E+03  0.61625977448E+03  0.00000000000E+00 0. -1.
          1   -1    0    0  501    0 -0.00000000000E+00 -0.00000000000E+00 -0.11624502609E+04  0.11624502609E+04  0.00000000000E+00 0. -1.
         25    2    1    2    0    0 -0.37096493750E+02  0.48962960406E+02 -0.39068983652E+03  0.41479047421E+03  0.12505625851E+03 0.  0.
          2    1    1    2  501    0 -0.13076007893E+03  0.10741374186E+02 -0.74068540148E+03  0.75221568670E+03  0.00000000000E+00 0. -1.
          1    1    1    2  502    0  0.16785657268E+03 -0.59704334592E+02  0.58518475157E+03  0.61170387446E+03  0.00000000000E+00 0. -1.
         22    1    3    3    0    0 -0.63595915613E+02  0.77154379204E+02 -0.29887978275E+03  0.31516085298E+03  0.00000000000E+00 0.  1.
         22    1    3    3    0    0  0.26499421863E+02 -0.28191418798E+02 -0.91810053768E+02  0.99629621227E+02  0.00000000000E+00 0.  1.
</event>
<event>
 7    1  0.6253338E-006  0.1924538E+03  0.7818608E-02  0.1219744E+00
          2   -1    0    0  502    0  0.00000000000E+00  0.00000000000E+00  0.22553245463E+04  0.22553245463E+04  0.00000000000E+00 0. -1.
          1   -1    0    0  501    0 -0.00000000000E+00 -0.00000000000E+00 -0.24838229865E+04  0.24838229865E+04  0.00000000000E+00 0. -1.
         25    2    1    2    0    0  0.16558121305E+03  0.95796098535E+02 -0.17229460407E+03  0.28618758390E+03  0.12499548783E+03 0.  0.
          2    1    1    2  501    0  0.27264925642E+02 -0.91183667840E+02 -0.22493420521E+04  0.22513545933E+04  0.00000000000E+00 0. -1.
          1    1    1    2  502    0 -0.19284613869E+03 -0.46124306948E+01  0.21931382160E+04  0.22016053556E+04  0.00000000000E+00 0. -1.
         22    1    3    3    0    0  0.24397485244E+02 -0.15090306013E+02  0.99577039703E+01  0.30366272246E+02  0.00000000000E+00 0.  1.
         22    1    3    3    0    0  0.14118372781E+03  0.11088640455E+03 -0.18225230804E+03  0.25582131166E+03  0.00000000000E+00 0.  1.
</event>
<event>
 7    1  0.6253338E-006  0.8579051E+02  0.7818608E-02  0.1338864E+00
          2   -1    0    0  502    0  0.00000000000E+00  0.00000000000E+00  0.83037314992E+03  0.83037314992E+03  0.00000000000E+00 0. -1.
          1   -1    0    0  501    0 -0.00000000000E+00 -0.00000000000E+00 -0.79476730845E+03  0.79476730845E+03  0.00000000000E+00 0. -1.
         25    2    1    2    0    0 -0.37020601678E+02 -0.31701681048E+02  0.81790213746E+02  0.15712550797E+03  0.12499305844E+03 0.  0.
          2    1    1    2  501    0  0.85305249894E+02 -0.16840286907E+02 -0.75294332736E+03  0.75794738283E+03  0.00000000000E+00 0. -1.
          1    1    1    2  502    0 -0.48284648217E+02  0.48541967955E+02  0.70675895509E+03  0.71006756757E+03  0.00000000000E+00 0. -1.
         22    1    3    3    0    0 -0.40004599034E+02 -0.69063602473E+02  0.15990111246E+02  0.81399218597E+02  0.00000000000E+00 0. -1.
         22    1    3    3    0    0  0.29839973564E+01  0.37361921425E+02  0.65800102500E+02  0.75726289370E+02  0.00000000000E+00 0. -1.
</event>
<event>
 7    1  0.6253338E-006  0.5319744E+02  0.7818608E-02  0.1537123E+00
          2   -1    0    0  502    0  0.00000000000E+00  0.00000000000E+00  0.28701675585E+04  0.28701675585E+04  0.00000000000E+00 0. -1.
          1   -1    0    0  501    0 -0.00000000000E+00 -0.00000000000E+00 -0.91147237404E+02  0.91147237404E+02  0.00000000000E+00 0. -1.
         25    2    1    2    0    0 -0.22677703832E+02  0.17236037844E+02 -0.78605834935E+01  0.12844344976E+03  0.12499828704E+03 0.  0.
          2    1    1    2  501    0 -0.19502938007E+02  0.15329913199E+02 -0.15977243818E+02  0.29506662800E+02  0.00000000000E+00 0. -1.
          1    1    1    2  502    0  0.42180641839E+02 -0.32565951043E+02  0.28028581484E+04  0.28033646833E+04  0.00000000000E+00 0. -1.
         22    1    3    3    0    0  0.62884824026E+01  0.68769967712E+02 -0.55989927747E+01  0.69283491469E+02  0.00000000000E+00 0.  1.
         22    1    3    3    0    0 -0.28966186235E+02 -0.51533929868E+02 -0.22615907188E+01  0.59159958293E+02  0.00000000000E+00 0.  1.
</event>
<event>
 7    1  0.6253338E-006  0.1556405E+03  0.7818608E-02  0.1307120E+00
          2   -1    0    0  502    0  0.00000000000E+00  0.00000000000E+00  0.20630578035E+04  0.20630578035E+04  0.00000000000E+00 0. -1.
          1   -1    0    0  501    0 -0.00000000000E+00 -0.00000000000E+00 -0.82244239680E+03  0.82244239680E+03  0.00000000000E+00 0. -1.
         25    2    1    2    0    0  0.13813310092E+02  0.16248125480E+03 -0.65258074250E+03  0.68416027060E+03  0.12499073843E+03 0.  0.
          2    1    1    2  501    0 -0.48863392806E+02 -0.10836837750E+02 -0.14696322857E+03  0.15525224237E+03  0.00000000000E+00 0. -1.
          1    1    1    2  502    0  0.35050082713E+02 -0.15164441705E+03  0.20401593777E+04  0.20460876873E+04  0.00000000000E+00 0. -1.
         22    1    3    3    0    0 -0.19924190466E+02  0.16518870446E+03 -0.47283347630E+03  0.50125420473E+03  0.00000000000E+00 0. -1.
         22    1    3    3    0    0  0.33737500558E+02 -0.27074496617E+01 -0.17974726620E+03  0.18290606588E+03  0.00000000000E+00 0. -1.
</event>
<event>
 7    1  0.6253338E-006  0.5358434E+02  0.7818608E-02  0.1483772E+00
          2   -1    0    0  502    0  0.00000000000E+00  0.00000000000E+00  0.41927788116E+03  0.41927788116E+03  0.00000000000E+00 0. -1.
          1   -1    0    0  501    0 -0.00000000000E+00 -0.00000000000E+00 -0.26424833474E+03  0.26424833474E+03  0.00000000000E+00 0. -1.
         25    2    1    2    0    0 -0.32028776740E+01 -0.30749651419E+02 -0.11421748548E+03  0.17216416840E+03  0.12505625695E+03 0.  0.
          2    1    1    2  501    0 -0.34456897699E+02 -0.79068994595E+01 -0.11655763197E+03  0.12180097876E+03  0.00000000000E+00 0. -1.
          1    1    1    2  502    0  0.37659775373E+02  0.38656550879E+02  0.38580466387E+03  0.38956106873E+03  0.00000000000E+00 0. -1.
         22    1    3    3    0    0  0.20431516308E+02 -0.71989147933E+02 -0.94904778918E+02  0.12085860061E+03  0.00000000000E+00 0. -1.
         22    1    3    3    0    0 -0.23634393982E+02  0.41239496514E+02 -0.19312706567E+02  0.51305567793E+02  0.00000000000E+00 0. -1.
</event>
<event>
 7    1  0.6253338E-006  0.7625337E+02  0.7818608E-02  0.1414471E+00
          2   -1    0    0  502    0  0.00000000000E+00  0.00000000000E+00  0.81000764128E+02  0.81000764128E+02  0.00000000000E+00 0. -1.
          1   -1    0    0  501    0 -0.00000000000E+00 -0.00000000000E+00 -0.23022471868E+03  0.23022471868E+03  0.00000000000E+00 0. -1.
         25    2    1    2    0    0  0.36298340905E+02  0.51900921175E+02 -0.78774375208E+02  0.16075322346E+03  0.12499968596E+03 0.  0.
          2    1    1    2  501    0  0.39267899708E+02 -0.13215270972E+02 -0.46468563255E+02  0.62257037395E+02  0.00000000000E+00 0. -1.
          1    1    1    2  502    0 -0.75566240613E+02 -0.38685650203E+02 -0.23981016088E+02  0.88215221955E+02  0.00000000000E+00 0. -1.
         22    1    3    3    0    0 -0.32124272187E+02 -0.68094566136E+01  0.98969465321E+01  0.34297042344E+02  0.00000000000E+00 0.  1.
         22    1    3    3    0    0  0.68422613092E+02  0.58710377788E+02 -0.88671321740E+02  0.12645618111E+03  0.00000000000E+00 0.  1.
</event>
<event>
 7    1  0.6253338E-006  0.3452980E+02  0.7818608E-02  0.1592830E+00
          2   -1    0    0  502    0  0.00000000000E+00  0.00000000000E+00  0.96928419923E+02  0.96928419923E+02  0.00000000000E+00 0. -1.
          1   -1    0    0  501    0 -0.00000000000E+00 -0.00000000000E+00 -0.13223451077E+04  0.13223451077E+04  0.00000000000E+00 0. -1.
         25    2    1    2    0    0  0.63884802167E+01 -0.47833265340E+01 -0.27517467180E+03  0.30234004433E+03  0.12499883805E+03 0.  0.
          2    1    1    2  501    0  0.22823573434E+02 -0.14250645855E+02 -0.10297579403E+04  0.10301094175E+04  0.00000000000E+00 0. -1.
          1    1    1    2  502    0 -0.29212053650E+02  0.19033972389E+02  0.79515924311E+02  0.86824065802E+02  0.00000000000E+00 0. -1.
         22    1    3    3    0    0 -0.80369700024E+01  0.25629888930E+02 -0.26613418491E+03  0.26748623978E+03  0.00000000000E+00 0. -1.
         22    1    3    3    0    0  0.14425450219E+02 -0.30413215464E+02 -0.90404868936E+01  0.34853804558E+02  0.00000000000E+00 0. -1.
</event>
<event>
 7    1  0.6253338E-006  0.4204519E+02  0.7818608E-02  0.1588995E+00
          2   -1    0    0  502    0  0.00000000000E+00  0.00000000000E+00  0.11498200567E+02  0.11498200567E+02  0.00000000000E+00 0. -1.
          1   -1    0    0  501    0 -0.00000000000E+00 -0.00000000000E+00 -0.14535477745E+04  0.14535477745E+04  0.00000000000E+00 0. -1.
         25    2    1    2    0    0  0.30815377583E+02  0.27697226220E+02 -0.94576560040E+03  0.95488985125E+03  0.12500133313E+03 0.  0.
          2    1    1    2  501    0 -0.18525511649E+02  0.12979017026E+02 -0.43496685247E+03  0.43555460302E+03  0.00000000000E+00 0. -1.
          1    1    1    2  502    0 -0.12289865934E+02 -0.40676243246E+02 -0.61317121047E+02  0.74601520781E+02  0.00000000000E+00 0. -1.
         22    1    3    3    0    0  0.12562157474E+02  0.70746419914E+02 -0.75766833018E+03  0.76106777773E+03  0.00000000000E+00 0. -1.
         22    1    3    3    0    0  0.18253220109E+02 -0.43049193695E+02 -0.18809727021E+03  0.19382207352E+03  0.00000000000E+00 0. -1.
</event>
<event>
 7    1  0.6253338E-006  0.5468470E+02  0.7818608E-02  0.1489964E+00
          2   -1    0    0  502    0  0.00000000000E+00  0.00000000000E+00  0.15944588628E+04  0.15944588628E+04  0.00000000000E+00 0. -1.
          1   -1    0    0  501    0 -0.00000000000E+00 -0.00000000000E+00 -0.24885580359E+03  0.24885580359E+03  0.00000000000E+00 0. -1.
         25    2    1    2    0    0 -0.20895237825E+02 -0.77966278409E+02  0.83478953248E+03  0.84794698457E+03  0.12500069427E+03 0.  0.
          2    1    1    2  501    0  0.19938886717E+02  0.26511454659E+02 -0.24025689456E+03  0.24253616599E+03  0.00000000000E+00 0. -1.
          1    1    1    2  502    0  0.95635110845E+00  0.51454823750E+02  0.75107042129E+03  0.75283151583E+03  0.00000000000E+00 0. -1.
         22    1    3    3    0    0 -0.98114108786E+01 -0.89724029075E+02  0.30908302807E+03  0.32199221018E+03  0.00000000000E+00 0.  1.
         22    1    3    3    0    0 -0.11083826947E+02  0.11757750666E+02  0.52570650441E+03  0.52595477438E+03  0.00000000000E+00 0.  1.
</event>
<event>
 7    1  0.6253338E-006  0.8037151E+02  0.7818608E-02  0.1339067E+00
          2   -1    0    0  502    0  0.00000000000E+00  0.00000000000E+00  0.96760156760E+02  0.96760156760E+02  0.00000000000E+00 0. -1.
          1   -1    0    0  501    0 -0.00000000000E+00 -0.00000000000E+00 -0.13993831162E+04  0.13993831162E+04  0.00000000000E+00 0. -1.
         25    2    1    2    0    0 -0.16242482508E+01 -0.73565216858E+02 -0.20774661309E+03  0.25337437570E+03  0.12500175878E+03 0.  0.
          2    1    1    2  501    0  0.69118273258E+02  0.23345875475E+02 -0.11433502467E+04  0.11456754131E+04  0.00000000000E+00 0. -1.
          1    1    1    2  502    0 -0.67494025008E+02  0.50219341384E+02  0.48473900302E+02  0.97093484185E+02  0.00000000000E+00 0. -1.
         22    1    3    3    0    0 -0.10962309917E+01 -0.99292349617E+02 -0.20463454400E+03  0.22745432292E+03  0.00000000000E+00 0. -1.
         22    1    3    3    0    0 -0.52801725909E+00  0.25727132759E+02 -0.31120690867E+01  0.25920052782E+02  0.00000000000E+00 0. -1.
</event>
<event>
 7    1  0.6253338E-006  0.4121009E+02  0.7818608E-02  0.1570428E+00
          2   -1    0    0  502    0  0.00000000000E+00  0.00000000000E+00  0.11597374984E+04  0.11597374984E+04  0.00000000000E+00 0. -1.
          1   -1    0    0  501    0 -0.00000000000E+00 -0.00000000000E+00 -0.52656828012E+03  0.52656828012E+03  0.00000000000E+00 0. -1.
         25    2    1    2    0    0  0.68009991047E+01  0.13942304144E+02 -0.21656672359E+02  0.12780783239E+03  0.12500075652E+03 0.  0.
          2    1    1    2  501    0  0.88811611528E+01  0.24311059490E+02 -0.45107879789E+03  0.45182074382E+03  0.00000000000E+00 0. -1.
          1    1    1    2  502    0 -0.15682160257E+02 -0.38253363634E+02  0.11059046886E+04  0.11066772023E+04  0.00000000000E+00 0. -1.
         22    1    3    3    0    0 -0.17309766644E+02  0.22292398839E+02  0.46855049809E+02  0.54698946607E+02  0.00000000000E+00 0. -1.
         22    1    3    3    0    0  0.24110765749E+02 -0.83500946954E+01 -0.68511722168E+02  0.73108885786E+02  0.00000000000E+00 0. -1.
</event>
<event>
 7    1  0.6253338E-006  0.1783959E+03  0.7818608E-02  0.1247581E+00
          2   -1    0    0  502    0  0.00000000000E+00  0.00000000000E+00  0.65315116710E+03  0.65315116710E+03  0.00000000000E+00 0. -1.
          1   -1    0    0  501    0 -0.00000000000E+00 -0.00000000000E+00 -0.28216991086E+03  0.28216991086E+03  0.00000000000E+00 0. -1.
         25    2    1    2    0    0 -0.36976655773E+02  0.11442753393E+03  0.72428679842E+02  0.18796604672E+03  0.12499754983E+03 0.  0.
          2    1    1    2  501    0 -0.24260451724E+02  0.73244176420E+02 -0.19826744614E+03  0.21275163712E+03  0.00000000000E+00 0. -1.
          1    1    1    2  502    0  0.61237107497E+02 -0.18767171035E+03  0.49682002254E+03  0.53460339411E+03  0.00000000000E+00 0. -1.
         22    1    3    3    0    0 -0.74037428363E+02  0.11367210128E+03  0.63777232849E+02  0.14990137704E+03  0.00000000000E+00 0. -1.
         22    1    3    3    0    0  0.37060772589E+02  0.75543265190E+00  0.86514469929E+01  0.38064669688E+02  0.00000000000E+00 0. -1.
</event>
<event>
 7    1  0.6253338E-006  0.5000778E+02  0.7818608E-02  0.1455358E+00
          2   -1    0    0  502    0  0.00000000000E+00  0.00000000000E+00  0.40562690213E+04  0.40562690213E+04  0.00000000000E+00 0. -1.
          1   -1    0    0  501    0 -0.00000000000E+00 -0.00000000000E+00 -0.99742696403E+03  0.99742696403E+03  0.00000000000E+00 0. -1.
         25    2    1    2    0    0  0.91871408631E+02 -0.20927226114E+02  0.67123558697E+03  0.68924607277E+03  0.12499852436E+03 0.  0.
          2    1    1    2  501    0 -0.49959907336E+02  0.92998113316E+00 -0.98763037349E+03  0.98889363020E+03  0.00000000000E+00 0. -1.
          1    1    1    2  502    0 -0.41911501295E+02  0.19997244981E+02  0.33752368438E+04  0.33755562824E+04  0.00000000000E+00 0. -1.
         22    1    3    3    0    0  0.71769826216E+02 -0.43055669686E+01  0.65409480554E+03  0.65803454355E+03  0.00000000000E+00 0. -1.
         22    1    3    3    0    0  0.20101582414E+02 -0.16621659146E+02  0.17140781428E+02  0.31211529221E+02  0.00000000000E+00 0. -1.
</event>
<event>
 7    1  0.6253338E-006  0.8814430E+02  0.7818608E-02  0.1393278E+00
          2   -1    0    0  502    0  0.00000000000E+00  0.00000000000E+00  0.61035068311E+03  0.61035068311E+03  0.00000000000E+00 0. -1.
          1   -1    0    0  501    0 -0.00000000000E+00 -0.00000000000E+00 -0.55369657134E+03  0.55369657134E+03  0.00000000000E+00 0. -1.
         25    2    1    2    0    0 -0.10013042042E+03  0.10415108491E+02 -0.34050649306E+03  0.37643423258E+03  0.12499393609E+03 0.  0.
          2    1    1    2  501    0  0.16747803165E+02 -0.38899535473E+02 -0.18960038064E+03  0.19427291913E+03  0.00000000000E+00 0. -1.
          1    1    1    2  502    0  0.83382617258E+02  0.28484426982E+02  0.58676098547E+03  0.59334010274E+03  0.00000000000E+00 0. -1.
         22    1    3    3    0    0 -0.12417986607E+03  0.54394891753E+01 -0.21326568747E+03  0.24684505389E+03  0.00000000000E+00 0.  1.
         22    1    3    3    0    0  0.24049445650E+02  0.49756193156E+01 -0.12724080560E+03  0.12958917868E+03  0.00000000000E+00 0.  1.
</event>
<event>
 7    1  0.6253338E-006  0.1110334E+03  0.7818608E-02  0.1393316E+00
          2   -1    0    0  502    0  0.00000000000E+00  0.00000000000E+00  0.43175989254E+04  0.43175989254E+04  0.00000000000E+00 0. -1.
          1   -1    0    0  501    0 -0.00000000000E+00 -0.00000000000E+00 -0.87610349872E+03  0.87610349872E+03  0.00000000000E+00 0. -1.
         25    2    1    2    0    0  0.51545581056E+02  0.13382887972E+03  0.19312853648E+04  0.19406328056E+04  0.12500163879E+03 0.  0.
          2    1    1    2  501    0 -0.47011408645E+02 -0.10052543894E+03 -0.86777742654E+03  0.87484461387E+03  0.00000000000E+00 0. -1.
          1    1    1    2  502    0 -0.45341724115E+01 -0.33303440775E+02  0.23779874884E+04  0.23782250047E+04  0.00000000000E+00 0. -1.
         22    1    3    3    0    0  0.59327090247E+02  0.15825404254E+02  0.38857330476E+03  0.39339466218E+03  0.00000000000E+00 0. -1.
         22    1    3    3    0    0 -0.77815091907E+01  0.11800347546E+03  0.15427120600E+04  0.15472381434E+04  0.00000000000E+00 0. -1.
</event>
<event>
 7    1  0.6253338E-006  0.1461977E+03  0.7818608E-02  0.1318125E+00
          2   -1    0    0  502    0  0.00000000000E+00  0.00000000000E+00  0.36181250054E+04  0.36181250054E+04  0.00000000000E+00 0. -1.
          1   -1    0    0  501    0 -0.00000000000E+00 -0.00000000000E+00 -0.14077878891E+04  0.14077878891E+04  0.00000000000E+00 0. -1.
         25    2    1    2    0    0 -0.38995229994E+02  0.11578516268E+03  0.15278096123E+02  0.17545509085E+03  0.12499694726E+03 0.  0.
          2    1    1    2  501    0  0.25985656236E+01 -0.14744384841E+03 -0.13234387900E+04  0.13316293297E+04  0.00000000000E+00 0. -1.
          1    1    1    2  502    0  0.36396664370E+02  0.31658685733E+02  0.35184978101E+04  0.35188284740E+04  0.00000000000E+00 0. -1.
         22    1    3    3    0    0 -0.79789208803E+01  0.98255080102E+02 -0.42680936308E+02  0.10742153540E+03  0.00000000000E+00 0. -1.
         22    1    3    3    0    0 -0.31016309113E+02  0.17530082579E+02  0.57959032431E+02  0.68033555446E+02  0.00000000000E+00 0. -1.
</event>
<event>
 7    1  0.6253338E-006  0.7983598E+02  0.7818608E-02  0.1334616E+00
          2   -1    0    0  502    0  0.00000000000E+00  0.00000000000E+00  0.54337103756E+03  0.54337103756E+03  0.00000000000E+00 0. -1.
          1   -1    0    0  501    0 -0.00000000000E+00 -0.00000000000E+00 -0.49133854453E+02  0.49133854453E+02  0.00000000000E+00 0. -1.
         25    2    1    2    0    0 -0.54732863363E+02  0.76761350656E+02  0.27527885115E+03  0.31668777461E+03  0.12499883763E+03 0.  0.
          2    1    1    2  501    0  0.79832594650E+02 -0.97357524924E+00  0.67263248478E+02  0.10439605171E+03  0.00000000000E+00 0. -1.
          1    1    1    2  502    0 -0.25099731287E+02 -0.75787775406E+02  0.15169508347E+03  0.17142106569E+03  0.00000000000E+00 0. -1.
         22    1    3    3    0    0 -0.38742327870E+02 -0.23884937393E+02  0.14069709193E+03  0.14787538632E+03  0.00000000000E+00 0.  1.
         22    1    3    3    0    0 -0.15990535493E+02  0.10064628805E+03  0.13458175922E+03  0.16881238829E+03  0.00000000000E+00 0.  1.
</event>
<event>
 7    1  0.6253338E-006  0.6975035E+02  0.7818608E-02  0.1408485E+00
          2   -1    0    0  502    0  0.00000000000E+00  0.00000000000E+00  0.25603991686E+03  0.25603991686E+03  0.00000000000E+00 0. -1.
          1   -1    0    0  501    0 -0.00000000000E+00 -0.00000000000E+00 -0.30079319903E+03  0.30079319903E+03  0.00000000000E+00 0. -1.
         25    2    1    2    0    0 -0.10724982489E+03  0.38173728849E+02 -0.22649935649E+02  0.17058064833E+03  0.12499991795E+03 0.  0.
          2    1    1    2  501    0  0.61831453984E+02 -0.24417128303E+02 -0.19549244204E+03  0.20648636699E+03  0.00000000000E+00 0. -1.
          1    1    1    2  502    0  0.45418370904E+02 -0.13756600546E+02  0.17338909551E+03  0.17976610058E+03  0.00000000000E+00 0. -1.
         22    1    3    3    0    0  0.12301389244E+02  0.43621729407E+02 -0.23174547179E+02  0.50904214862E+02  0.00000000000E+00 0.  1.
         22    1    3    3    0    0 -0.11955121413E+03 -0.54480005581E+01  0.52461153015E+00  0.11967643347E+03  0.00000000000E+00 0.  1.
</event>
<event>
 7    1  0.6253338E-006  0.7037384E+02  0.7818608E-02  0.1380218E+00
          2   -1    0    0  502    0  0.00000000000E+00  0.00000000000E+00  0.26563178824E+03  0.26563178824E+03  0.00000000000E+00 0. -1.
          1   -1    0    0  501    0 -0.00000000000E+00 -0.00000000000E+00 -0.50291471518E+03  0.50291471518E+03  0.00000000000E+00 0. -1.
         25    2    1    2    0    0  0.26845150074E+02 -0.29525448324E+02 -0.13309104716E+03  0.18689956489E+03  0.12500322532E+03 0.  0.
          2    1    1    2  501    0  0.80954190177E+01  0.76998295944E+02 -0.33479443810E+03  0.34363001786E+03  0.00000000000E+00 0. -1.
          1    1    1    2  502    0 -0.34940569092E+02 -0.47472847620E+02  0.23060255832E+03  0.23801692068E+03  0.00000000000E+00 0. -1.
         22    1    3    3    0    0  0.68226443117E+02 -0.50375571038E+02 -0.89006668675E+02  0.12294198944E+03  0.00000000000E+00 0.  1.
         22    1    3    3    0    0 -0.41381293043E+02  0.20850122714E+02 -0.44084378483E+02  0.63957575450E+02  0.00000000000E+00 0.  1.
</event>
<event>
 7    1  0.6253338E-006  0.1000194E+03  0.7818608E-02  0.1468020E+00
          2   -1    0    0  502    0  0.00000000000E+00  0.00000000000E+00  0.53879429353E+02  0.53879429353E+02  0.00000000000E+00 0. -1.
          1   -1    0    0  501    0 -0.00000000000E+00 -0.00000000000E+00 -0.14026866273E+04  0.14026866273E+04  0.00000000000E+00 0. -1.
         25    2    1    2    0    0 -0.68500768801E+02  0.50978763632E+02 -0.34714891852E+03  0.37871735844E+03  0.12499310496E+03 0.  0.
          2    1    1    2  501    0 -0.56705329551E+01  0.20409170924E+02 -0.96987915810E+03  0.97011044244E+03  0.00000000000E+00 0. -1.
          1    1    1    2  502    0  0.74171301756E+02 -0.71387934556E+02 -0.31779121317E+02  0.10773825577E+03  0.00000000000E+00 0. -1.
         22    1    3    3    0    0  0.62708636641E+00  0.20474811016E+01  0.10736100717E+02  0.10947569355E+02  0.00000000000E+00 0.  1.
         22    1    3    3    0    0 -0.69127855167E+02  0.48931282531E+02 -0.35788501923E+03  0.36776978908E+03  0.00000000000E+00 0.  1.
</event>
<event>
 7    1  0.6253338E-006  0.6212311E+02  0.7818608E-02  0.1541760E+00
          2   -1    0    0  502    0  0.00000000000E+00  0.00000000000E+00  0.19270523617E+03  0.19270523617E+03  0.00000000000E+00 0. -1.
          1   -1    0    0  501    0 -0.00000000000E+00 -0.00000000000E+00 -0.87000095641E+03  0.87000095641E+03  0.00000000000E+00 0. -1.
         25    2    1    2    0    0 -0.41573601870E+02 -0.68653489252E+02 -0.22326473924E+03  0.26816724715E+03  0.12499945079E+03 0.  0.
          2    1    1    2  501    0  0.36758167239E+02  0.48613506477E+02 -0.62216672471E+03  0.62514467862E+03  0.00000000000E+00 0. -1.
          1    1    1    2  502    0  0.48154346317E+01  0.20039982775E+02  0.16813574371E+03  0.16939426682E+03  0.00000000000E+00 0. -1.
         22    1    3    3    0    0  0.23143726459E+02 -0.68137271250E+02 -0.16909337575E+03  0.18376857601E+03  0.00000000000E+00 0. -1.
         22    1    3    3    0    0 -0.64717328329E+02 -0.51621800236E+00 -0.54171363492E+02  0.84398671137E+02  0.00000000000E+00 0. -1.
</event>
<event>
 7    1  0.6253338E-006  0.7728823E+02  0.7818608E-02  0.1374740E+00
          2   -1    0    0  502    0  0.00000000000E+00  0.00000000000E+00  0.40160113084E+03  0.40160113084E+03  0.00000000000E+00 0. -1.
          1   -1    0    0  501    0 -0.00000000000E+00 -0.00000000000E+00 -0.19909158603E+04  0.19909158603E+04  0.00000000000E+00 0. -1.
         25    2    1    2    0    0 -0.13113909867E+03  0.20202728220E+02  0.76233217877E+02  0.19758507032E+03  0.12499097198E+03 0.  0.
          2    1    1    2  501    0  0.75103743130E+02 -0.16887341998E+02 -0.19264865322E+04  0.19280238882E+04  0.00000000000E+00 0. -1.
          1    1    1    2  502    0  0.56035355541E+02 -0.33153862222E+01  0.26093858484E+03  0.26690803269E+03  0.00000000000E+00 0. -1.
         22    1    3    3    0    0  0.23630640778E+02 -0.79544025859E+01  0.89715607513E+01  0.26498464227E+02  0.00000000000E+00 0. -1.
         22    1    3    3    0    0 -0.15476973945E+03  0.28157130806E+02  0.67261657126E+02  0.17108660609E+03  0.00000000000E+00 0. -1.
</event>
<event>
 7    1  0.6253338E-006  0.7122462E+02  0.7818608E-02  0.1385477E+00
          2   -1    0    0  502    0  0.00000000000E+00  0.00000000000E+00  0.15038335085E+04  0.15038335085E+04  0.00000000000E+00 0. -1.
          1   -1    0    0  501    0 -0.00000000000E+00 -0.00000000000E+00 -0.20318862295E+03  0.20318862295E+03  0.00000000000E+00 0. -1.
         25    2    1    2    0    0  0.23544953776E+02  0.26019669737E+02  0.20978198144E+03  0.24670846823E+03  0.12500080199E+03 0.  0.
          2    1    1    2  501    0 -0.28914388862E+02  0.47731438777E+02 -0.17941064165E+03  0.18788962310E+03  0.00000000000E+00 0. -1.
          1    1    1    2  502    0  0.53694350857E+01 -0.73751108514E+02  0.12702735457E+04  0.12724240401E+04  0.00000000000E+00 0. -1.
         22    1    3    3    0    0  0.63607882166E+02  0.50815180298E+02  0.14914235020E+03  0.16991640840E+03  0.00000000000E+00 0.  1.
         22    1    3    3    0    0 -0.40062928390E+02 -0.24795510561E+02  0.60639631245E+02  0.76792059829E+02  0.00000000000E+00 0.  1.
</event>
<event>
 7    1  0.6253338E-006  0.8343194E+02  0.7818608E-02  0.1395474E+00
          2   -1    0    0  502    0  0.00000000000E+00  0.00000000000E+00  0.26307479794E+04  0.26307479794E+04  0.00000000000E+00 0. -1.
          1   -1    0    0  501    0 -0.00000000000E+00 -0.00000000000E+00 -0.22730690287E+03  0.22730690287E+03  0.00000000000E+00 0. -1.
         25    2    1    2    0    0 -0.44820656715E+02 -0.38676425669E+02  0.57611172485E+02  0.14982919176E+03  0.12499992935E+03 0.  0.
          2    1    1    2  501    0 -0.37583139920E+02  0.22815187245E+02 -0.17782317669E+03  0.18317780254E+03  0.00000000000E+00 0. -1.
          1    1    1    2  502    0  0.82403796635E+02  0.15861238424E+02  0.25236530807E+04  0.25250478880E+04  0.00000000000E+00 0. -1.
         22    1    3    3    0    0 -0.55385158006E+02 -0.52907213817E+02 -0.12415865121E+02  0.77594089388E+02  0.00000000000E+00 0.  1.
         22    1    3    3    0    0  0.10564501291E+02  0.14230788148E+02  0.70027037606E+02  0.72235102372E+02  0.00000000000E+00 0.  1.
</event>
<event>
 7    1  0.6253338E-006  0.4674355E+02  0.7818608E-02  0.1468796E+00
          2   -1    0    0  502    0  0.00000000000E+00  0.00000000000E+00  0.26370403534E+03  0.26370403534E+03  0.00000000000E+00 0. -1.
          1   -1    0    0  501    0 -0.00000000000E+00 -0.00000000000E+00 -0.37474655928E+03  0.37474655928E+03  0.00000000000E+00 0. -1.
         25    2    1    2    0    0 -0.55104190429E+01  0.32366640660E+01  0.56486491325E+02  0.13732205972E+03  0.12500313464E+03 0.  0.
          2    1    1    2  501    0  0.11751686306E+02  0.45242206796E+02 -0.32906038131E+03  0.33236379760E+03  0.00000000000E+00 0. -1.
          1    1    1    2  502    0 -0.62412672629E+01 -0.48478870862E+02  0.16153136605E+03  0.16876473729E+03  0.00000000000E+00 0. -1.
         22    1    3    3    0    0  0.57331828176E+02 -0.11872813717E+02  0.14726966311E+02  0.60372061123E+02  0.00000000000E+00 0.  1.
         22    1    3    3    0    0 -0.62842247218E+02  0.15109477783E+02  0.41759525014E+02  0.76949998595E+02  0.00000000000E+00 0.  1.
</event>
<event>
 7    1  0.6253338E-006  0.7541854E+02  0.7818608E-02  0.1489272E+00
          2   -1    0    0  502    0  0.00000000000E+00  0.00000000000E+00  0.18625658462E+03  0.18625658462E+03  0.00000000000E+00 0. -1.
          1   -1    0    0  501    0 -0.00000000000E+00 -0.00000000000E+00 -0.14252805264E+04  0.14252805264E+04  0.00000000000E+00 0. -1.
         25    2    1    2    0    0  0.33550258860E+02 -0.47919344572E+02 -0.10574644448E+03  0.17389935457E+03  0.12504715729E+03 0.  0.
          2    1    1    2  501    0 -0.56119152303E+01 -0.23508439191E+02 -0.12756722075E+04  0.12759011409E+04  0.00000000000E+00 0. -1.
          1    1    1    2  502    0 -0.27938343630E+02  0.71427783762E+02  0.14239471017E+03  0.16173661559E+03  0.00000000000E+00 0. -1.
         22    1    3    3    0    0 -0.32942662156E+02 -0.40125516392E+02 -0.39566239388E+01  0.52066600894E+02  0.00000000000E+00 0. -1.
         22    1    3    3    0    0  0.66492921016E+02 -0.77938281798E+01 -0.10178982054E+03  0.12183275367E+03  0.00000000000E+00 0. -1.
</event>
<event>
 7    1  0.6253338E-006  0.6727105E+02  0.7818608E-02  0.1382700E+00
          2   -1    0    0  502    0  0.00000000000E+00  0.00000000000E+00  0.15631245867E+03  0.15631245867E+03  0.00000000000E+00 0. -1.
          1   -1    0    0  501    0 -0.00000000000E+00 -0.00000000000E+00 -0.25904385271E+04  0.25904385271E+04  0.00000000000E+00 0. -1.
         25    2    1    2    0    0  0.21577773882E+02  0.15515092378E+01 -0.13679206736E+04  0.13737903676E+04  0.12499999029E+03 0.  0.
          2    1    1    2  501    0  0.60442403597E+01  0.60128180824E+02 -0.12113484107E+04  0.12128548566E+04  0.00000000000E+00 0. -1.
          1    1    1    2  502    0 -0.27622014242E+02 -0.61679690062E+02  0.14514301584E+03  0.16010576156E+03  0.00000000000E+00 0. -1.
         22    1    3    3    0    0 -0.30434496693E+02  0.20218399453E+02 -0.10798085570E+04  0.10804265649E+04  0.00000000000E+00 0. -1.
         22    1    3    3    0    0  0.52012270575E+02 -0.18666890215E+02 -0.28811211655E+03  0.29336380278E+03  0.00000000000E+00 0. -1.
</event>
<event>
 7    1  0.6253338E-006  0.1028939E+03  0.7818608E-02  0.1283666E+00
          2   -1    0    0  502    0  0.00000000000E+00  0.00000000000E+00  0.47856242935E+02  0.47856242935E+02  0.00000000000E+00 0. -1.
          1   -1    0    0  501    0 -0.00000000000E+00 -0.00000000000E+00 -0.14949084072E+04  0.14949084072E+04  0.00000000000E+00 0. -1.
         25    2    1    2    0    0 -0.64160138075E+02  0.79792172299E+02 -0.23828014066E+03  0.28789864654E+03  0.12499956468E+03 0.  0.
          2    1    1    2  501    0 -0.54584266051E+02 -0.76688114477E+02 -0.10614750934E+04  0.10656405974E+04  0.00000000000E+00 0. -1.
          1    1    1    2  502    0  0.11874440413E+03 -0.31040578214E+01 -0.14729693020E+03  0.18922540615E+03  0.00000000000E+00 0. -1.
         22    1    3    3    0    0 -0.66485156958E+02 -0.53661026887E+01 -0.57550056813E+02  0.88096993098E+02  0.00000000000E+00 0.  1.
         22    1    3    3    0    0  0.23250188829E+01  0.85158274987E+02 -0.18073008384E+03  0.19980165344E+03  0.00000000000E+00 0.  1.
</event>
<event>
 7    1  0.6253338E-006  0.2065463E+03  0.7818608E-02  0.1236124E+00
          2   -1    0    0  502    0  0.00000000000E+00  0.00000000000E+00  0.17715002496E+04  0.17715002496E+04  0.00000000000E+00 0. -1.
          1   -1    0    0  501    0 -0.00000000000E+00 -0.00000000000E+00 -0.19422196757E+04  0.19422196757E+04  0.00000000000E+00 0. -1.
         25    2    1    2    0    0  0.24275684503E+03 -0.13981762716E+03 -0.31652354097E+03  0.44077165746E+03  0.12495057965E+03 0.  0.
          2    1    1    2  501    0 -0.65892988378E+02  0.35478475099E+02 -0.15565027141E+04  0.15583007756E+04  0.00000000000E+00 0. -1.
          1    1    1    2  502    0 -0.17686385665E+03  0.10433915206E+03  0.17023068291E+04  0.17146474923E+04  0.00000000000E+00 0. -1.
         22    1    3    3    0    0  0.15630515512E+03 -0.15163629996E+03 -0.24629426157E+03  0.32876394611E+03  0.00000000000E+00 0. -1.
         22    1    3    3    0    0  0.86451689909E+02  0.11818672800E+02 -0.70229279401E+02  0.11200771134E+03  0.00000000000E+00 0. -1.
</event>
<event>
 7    1  0.6253338E-006  0.5184535E+02  0.7818608E-02  0.1546108E+00
          2   -1    0    0  502    0  0.00000000000E+00  0.00000000000E+00  0.75475877197E+03  0.75475877197E+03  0.00000000000E+00 0. -1.
          1   -1    0    0  501    0 -0.00000000000E+00 -0.00000000000E+00 -0.11809487341E+03  0.11809487341E+03  0.00000000000E+00 0. -1.
         25    2    1    2    0    0  0.24739555691E+02  0.31252715591E+02  0.36274622172E+03  0.38574499864E+03  0.12500241899E+03 0.  0.
          2    1    1    2  501    0  0.23307467213E+02 -0.57681388755E+01 -0.10326771197E+03  0.10602230798E+03  0.00000000000E+00 0. -1.
          1    1    1    2  502    0 -0.48047022904E+02 -0.25484576715E+02  0.37718538881E+03  0.38108633877E+03  0.00000000000E+00 0. -1.
         22    1    3    3    0    0  0.47357937343E+02  0.70090828367E+02  0.20624821852E+03  0.22292112079E+03  0.00000000000E+00 0. -1.
         22    1    3    3    0    0 -0.22618381652E+02 -0.38838112776E+02  0.15649800319E+03  0.16282387784E+03  0.00000000000E+00 0. -1.
</event>
<event>
 7    1  0.6253338E-006  0.1226460E+03  0.7818608E-02  0.1384845E+00
          2   -1    0    0  502    0  0.00000000000E+00  0.00000000000E+00  0.23328549015E+03  0.23328549015E+03  0.00000000000E+00 0. -1.
          1   -1    0    0  501    0 -0.00000000000E+00 -0.00000000000E+00 -0.36807813622E+03  0.36807813622E+03  0.00000000000E+00 0. -1.
         25    2    1    2    0    0 -0.50657652456E+02 -0.82259553261E+02 -0.38623280097E+02  0.16263211057E+03  0.12499845507E+03 0.  0.
          2    1    1    2  501    0 -0.20496494189E+02 -0.25318090260E+02 -0.24192155209E+03  0.24410479171E+03  0.00000000000E+00 0. -1.
          1    1    1    2  502    0  0.71154146645E+02  0.10757764352E+03  0.14575218612E+03  0.19462672409E+03  0.00000000000E+00 0. -1.
         22    1    3    3    0    0 -0.73762336613E+02 -0.48099019441E+01 -0.34848036024E+02  0.81721497013E+02  0.00000000000E+00 0.  1.
         22    1    3    3    0    0  0.23104684157E+02 -0.77449651317E+02 -0.37752440733E+01  0.80910613562E+02  0.00000000000E+00 0.  1.
</event>
<event>
 7    1  0.6253338E-006  0.5636430E+02  0.7818608E-02  0.1455202E+00
          2   -1    0    0  502    0  0.00000000000E+00  0.00000000000E+00  0.24335406085E+02  0.24335406085E+02  0.00000000000E+00 0. -1.
          1   -1    0    0  501    0 -0.00000000000E+00 -0.00000000000E+00 -0.87298055081E+03  0.87298055081E+03  0.00000000000E+00 0. -1.
         25    2    1    2    0    0  0.22186320036E+02  0.93074371921E+01 -0.63041304964E+03  0.64313640610E+03  0.12499985004E+03 0.  0.
          2    1    1    2  501    0 -0.38100506114E+02 -0.63378437033E+02 -0.12322527022E+03  0.14371131503E+03  0.00000000000E+00 0. -1.
          1    1    1    2  502    0  0.15914186077E+02  0.54070999841E+02 -0.95006824867E+02  0.11046823577E+03  0.00000000000E+00 0. -1.
         22    1    3    3    0    0  0.30732376434E+02  0.63453221039E+02 -0.29746389660E+03  0.30570502123E+03  0.00000000000E+00 0. -1.
         22    1    3    3    0    0 -0.85460563980E+01 -0.54145783847E+02 -0.33294915303E+03  0.33743138487E+03  0.00000000000E+00 0. -1.
</event>
<event>
 7    1  0.6253338E-006  0.1307639E+03  0.7818608E-02  0.1364806E+00
          2   -1    0    0  502    0  0.00000000000E+00  0.00000000000E+00  0.69129190021E+03  0.69129190021E+03  0.00000000000E+00 0. -1.
          1   -1    0    0  501    0 -0.00000000000E+00 -0.00000000000E+00 -0.61516860555E+03  0.61516860555E+03  0.00000000000E+00 0. -1.
         25    2    1    2    0    0  0.19912110104E+02 -0.96794416741E+02 -0.21072614631E+02  0.16073050754E+03  0.12499835889E+03 0.  0.
          2    1    1    2  501    0 -0.23883758267E+02  0.13259709351E+03 -0.51507282202E+03  0.53240251229E+03  0.00000000000E+00 0. -1.
          1    1    1    2  502    0  0.39716481625E+01 -0.35802676773E+02  0.61226873131E+03  0.61332748593E+03  0.00000000000E+00 0. -1.
         22    1    3    3    0    0  0.35477074974E+02 -0.53734126940E+02 -0.69048333427E+02  0.94412136909E+02  0.00000000000E+00 0. -1.
         22    1    3    3    0    0 -0.15564964870E+02 -0.43060289801E+02  0.47975718796E+02  0.66318370631E+02  0.00000000000E+00 0. -1.
</event>
<event>
 7    1  0.6253338E-006  0.1157192E+03  0.7818608E-02  0.1307519E+00
          2   -1    0    0  502    0  0.00000000000E+00  0.00000000000E+00  0.31664882015E+04  0.31664882015E+04  0.00000000000E+00 0. -1.
          1   -1    0    0  501    0 -0.00000000000E+00 -0.00000000000E+00 -0.17187851212E+04  0.17187851212E+04  0.00000000000E+00 0. -1.
         25    2    1    2    0    0  0.92471804338E+02 -0.68447456875E+02  0.88868951887E+02  0.19172650320E+03  0.12500108987E+03 0.  0.
          2    1    1    2  501    0 -0.39187040400E+02  0.10918484252E+03 -0.16649662837E+04  0.16690026003E+04  0.00000000000E+00 0. -1.
          1    1    1    2  502    0 -0.53284763938E+02 -0.40737385642E+02  0.30238004122E+04  0.30245442191E+04  0.00000000000E+00 0. -1.
         22    1    3    3    0    0  0.62395486393E+02 -0.97578716110E+02  0.30282770395E+02  0.11971569965E+03  0.00000000000E+00 0.  1.
         22    1    3    3    0    0  0.30076317946E+02  0.29131259236E+02  0.58586181492E+02  0.72010803548E+02  0.00000000000E+00 0.  1.
</event>
<event>
 7    1  0.6253338E-006  0.7271949E+02  0.7818608E-02  0.1361937E+00
          2   -1    0    0  502    0  0.00000000000E+00  0.00000000000E+00  0.73310472162E+03  0.73310472162E+03  0.00000000000E+00 0. -1.
          1   -1    0    0  501    0 -0.00000000000E+00 -0.00000000000E+00 -0.69986936587E+02  0.69986936587E+02  0.00000000000E+00 0. -1.
         25    2    1    2    0    0 -0.15429540367E+01  0.93118344124E+01  0.26278991083E+03  0.29115491048E+03  0.12499421464E+03 0.  0.
          2    1    1    2  501    0 -0.22951900071E+02  0.69002421855E+02 -0.26421093493E+02  0.77370524879E+02  0.00000000000E+00 0. -1.
          1    1    1    2  502    0  0.24494854108E+02 -0.78314256268E+02  0.42674896769E+03  0.43456622284E+03  0.00000000000E+00 0. -1.
         22    1    3    3    0    0  0.39820422174E+02  0.52265784886E+02  0.13972035271E+03  0.15439933696E+03  0.00000000000E+00 0. -1.
         22    1    3    3    0    0 -0.41363376211E+02 -0.42953950473E+02  0.12306955812E+03  0.13675557352E+03  0.00000000000E+00 0. -1.
</event>
<event>
 7    1  0.6253338E-006  0.1504720E+03  0.7818608E-02  0.1338781E+00
          2   -1    0    0  502    0  0.00000000000E+00  0.00000000000E+00  0.15743901542E+04  0.15743901542E+04  0.00000000000E+00 0. -1.
          1   -1    0    0  501    0 -0.00000000000E+00 -0.00000000000E+00 -0.44240311962E+03  0.44240311962E+03  0.00000000000E+00 0. -1.
         25    2    1    2    0    0 -0.29154342696E+01  0.12311003338E+03  0.12354099921E+03  0.21459722973E+03  0.12500004977E+03 0.  0.
          2    1    1    2  501    0 -0.28417803806E+02  0.26803342374E+02 -0.39172796785E+03  0.39367091782E+03  0.00000000000E+00 0. -1.
          1    1    1    2  502    0  0.31333238076E+02 -0.14991337576E+03  0.14001740033E+04  0.14085251263E+04  0.00000000000E+00 0. -1.
         22    1    3    3    0    0  0.29382686553E+02  0.13159982967E+03  0.12088921399E+03  0.18109682354E+03  0.00000000000E+00 0.  1.
         22    1    3    3    0    0 -0.32298120823E+02 -0.84897962834E+01  0.26517852187E+01  0.33500406184E+02  0.00000000000E+00 0.  1.
</event>
<event>
 7    1  0.6253338E-006  0.6317249E+02  0.7818608E-02  0.1402193E+00
          2   -1    0    0  502    0  0.00000000000E+00  0.00000000000E+00  0.17293607446E+03  0.17293607446E+03  0.00000000000E+00 0. -1.
          1   -1    0    0  501    0 -0.00000000000E+00 -0.00000000000E+00 -0.40329898386E+03  0.40329898386E+03  0.00000000000E+00 0. -1.
         25    2    1    2    0    0 -0.19932379754E+02  0.52413868395E+02 -0.26555685510E+03  0.29881541017E+03  0.12500277076E+03 0.  0.
          2    1    1    2  501    0  0.70709119747E+02 -0.31141128620E+02 -0.10294553881E+03  0.12871415411E+03  0.00000000000E+00 0. -1.
          1    1    1    2  502    0 -0.50776739993E+02 -0.21272739775E+02  0.13813948451E+03  0.14870549406E+03  0.00000000000E+00 0. -1.
         22    1    3    3    0    0 -0.57218239580E+02  0.15966633422E+02 -0.22513812205E+03  0.23284336865E+03  0.00000000000E+00 0. -1.
         22    1    3    3    0    0  0.37285859825E+02  0.36447234973E+02 -0.40418733051E+02  0.65972041514E+02  0.00000000000E+00 0. -1.
</event>
<event>
 7    1  0.6253338E-006  0.6474472E+02  0.7818608E-02  0.1394657E+00
          2   -1    0    0  502    0  0.00000000000E+00  0.00000000000E+00  0.11443171079E+03  0.11443171079E+03  0.00000000000E+00 0. -1.
          1   -1    0    0  501    0 -0.00000000000E+00 -0.00000000000E+00 -0.57288559912E+03  0.57288559912E+03  0.00000000000E+00 0. -1.
         25    2    1    2    0    0 -0.11099365143E+03  0.46203710983E+02 -0.14954528547E+02  0.17405986303E+03  0.12497529527E+03 0.  0.
          2    1    1    2  501    0  0.58071777129E+02 -0.24960502287E+02 -0.45129564283E+03  0.45570068599E+03  0.00000000000E+00 0. -1.
          1    1    1    2  502    0  0.52921874298E+02 -0.21243208696E+02  0.77962830442E+01  0.57556760891E+02  0.00000000000E+00 0. -1.
         22    1    3    3    0    0 -0.84935786752E+02 -0.34691447264E+01 -0.58379199085E+02  0.10312251802E+03  0.00000000000E+00 0. -1.
         22    1    3    3    0    0 -0.26057864676E+02  0.49672855709E+02  0.43424670538E+02  0.70937345011E+02  0.00000000000E+00 0. -1.
</event>
<event>
 7    1  0.6253338E-006  0.1519248E+03  0.7818608E-02  0.1256883E+00
          2   -1    0    0  502    0  0.00000000000E+00  0.00000000000E+00  0.63638369270E+03  0.63638369270E+03  0.00000000000E+00 0. -1.
          1   -1    0    0  501    0 -0.00000000000E+00 -0.00000000000E+00 -0.13840770953E+04  0.13840770953E+04  0.00000000000E+00 0. -1.
         25    2    1    2    0    0 -0.79203973098E+02  0.35796389125E+02 -0.15859897180E+03  0.21984782364E+03  0.12499912349E+03 0.  0.
          2    1    1    2  501    0  0.12936859956E+03 -0.10140501069E+03 -0.11863453370E+04  0.11976787839E+04  0.00000000000E+00 0. -1.
          1    1    1    2  502    0 -0.50164626466E+02  0.65608621570E+02  0.59725090622E+03  0.60293418045E+03  0.00000000000E+00 0. -1.
         22    1    3    3    0    0 -0.33100548973E+02  0.81040063905E+02 -0.87044897272E+02  0.12345020227E+03  0.00000000000E+00 0. -1.
         22    1    3    3    0    0 -0.46103424126E+02 -0.45243674780E+02 -0.71554074532E+02  0.96397621371E+02  0.00000000000E+00 0. -1.
</event>
<event>
 7    1  0.6253338E-006  0.1122900E+03  0.7818608E-02  0.1330991E+00
          2   -1    0    0  502    0  0.00000000000E+00  0.00000000000E+00  0.81378815037E+02  0.81378815037E+02  0.00000000000E+00 0. -1.
          1   -1    0    0  501    0 -0.00000000000E+00 -0.00000000000E+00 -0.83596675762E+03  0.83596675762E+03  0.00000000000E+00 0. -1.
         25    2    1    2    0    0 -0.60046845511E+02  0.27417442615E+02 -0.37234946782E+03  0.39827957932E+03  0.12500062921E+03 0.  0.
          2    1    1    2  501    0 -0.56004606946E+02 -0.17223270901E+01 -0.39551560394E+03  0.39946473608E+03  0.00000000000E+00 0. -1.
          1    1    1    2  502    0  0.11605145246E+03 -0.25695115525E+02  0.13277129173E+02  0.11960125726E+03  0.00000000000E+00 0. -1.
         22    1    3    3    0    0  0.21194407500E+01 -0.33887701117E+02 -0.31121691471E+02  0.46058962169E+02  0.00000000000E+00 0.  1.
         22    1    3    3    0    0 -0.62166286261E+02  0.61305143732E+02 -0.34122777634E+03  0.35222061715E+03  0.00000000000E+00 0.  1.
</event>
<event>
 7    1  0.6253338E-006  0.9730866E+02  0.7818608E-02  0.1372981E+00
          2   -1    0    0  502    0  0.00000000000E+00  0.00000000000E+00  0.13115241283E+04  0.13115241283E+04  0.00000000000E+00 0. -1.
          1   -1    0    0  501    0 -0.00000000000E+00 -0.00000000000E+00 -0.14827816629E+04  0.14827816629E+04  0.00000000000E+00 0. -1.
         25    2    1    2    0    0  0.64310986542E+02 -0.88199863648E+02  0.31916354955E+03  0.35973006104E+03  0.12500090605E+03 0.  0.
          2    1    1    2  501    0 -0.84727911963E+02  0.47835157657E+02 -0.14603524159E+04  0.14635901749E+04  0.00000000000E+00 0. -1.
          1    1    1    2  502    0  0.20416925421E+02  0.40364705992E+02  0.96993133170E+03  0.97098555527E+03  0.00000000000E+00 0. -1.
         22    1    3    3    0    0  0.41567180983E+02 -0.96714658832E+01  0.24706710777E+03  0.25072599293E+03  0.00000000000E+00 0.  1.
         22    1    3    3    0    0  0.22743805558E+02 -0.78528397765E+02  0.72096441784E+02  0.10900406811E+03  0.00000000000E+00 0.  1.
</event>
<event>
 7    1  0.6253338E-006  0.8580490E+02  0.7818608E-02  0.1465040E+00
          2   -1    0    0  502    0  0.00000000000E+00  0.00000000000E+00  0.24305765219E+04  0.24305765219E+04  0.00000000000E+00 0. -1.
          1   -1    0    0  501    0 -0.00000000000E+00 -0.00000000000E+00 -0.20555745637E+02  0.20555745637E+02  0.00000000000E+00 0. -1.
         25    2    1    2    0    0  0.55353455343E+02 -0.91423280148E+02  0.80760146707E+03  0.82417785095E+03  0.12500711669E+03 0.  0.
          2    1    1    2  501    0 -0.38450812857E+02  0.72696550855E+02  0.12689041619E+03  0.15120989133E+03  0.00000000000E+00 0. -1.
          1    1    1    2  502    0 -0.16902642486E+02  0.18726729293E+02  0.14755288930E+04  0.14757445253E+04  0.00000000000E+00 0. -1.
         22    1    3    3    0    0  0.54290684465E+02 -0.10094745765E+03  0.39069999696E+03  0.40716625014E+03  0.00000000000E+00 0.  1.
         22    1    3    3    0    0  0.10627708772E+01  0.95241775010E+01  0.41690147011E+03  0.41701160082E+03  0.00000000000E+00 0.  1.
</event>
<event>
 7    1  0.6253338E-006  0.1658801E+03  0.7818608E-02  0.1367456E+00
          2   -1    0    0  502    0  0.00000000000E+00  0.00000000000E+00  0.25365637692E+04  0.25365637692E+04  0.00000000000E+00 0. -1.
          1   -1    0    0  501    0 -0.00000000000E+00 -0.00000000000E+00 -0.58969888376E+02  0.58969888376E+02  0.00000000000E+00 0. -1.
         25    2    1    2    0    0  0.15357935666E+03 -0.16715155149E+02  0.11582512236E+04  0.11751745479E+04  0.12499322320E+03 0.  0.
          2    1    1    2  501    0  0.15632148303E+02 -0.22960677217E+02 -0.40689631427E+02  0.49266650632E+02  0.00000000000E+00 0. -1.
          1    1    1    2  502    0 -0.16921150496E+03  0.39675832367E+02  0.13600322886E+04  0.13710924590E+04  0.00000000000E+00 0. -1.
         22    1    3    3    0    0  0.65958138398E+02 -0.34196751394E+02  0.87539717698E+03  0.87854431378E+03  0.00000000000E+00 0. -1.
         22    1    3    3    0    0  0.87621218263E+02  0.17481596245E+02  0.28285404666E+03  0.29663023415E+03  0.00000000000E+00 0. -1.
</event>
<event>
 7    1  0.6253338E-006  0.8332562E+02  0.7818608E-02  0.1414490E+00
          2   -1    0    0  502    0  0.00000000000E+00  0.00000000000E+00  0.17350004387E+04  0.17350004387E+04  0.00000000000E+00 0. -1.
          1   -1    0    0  501    0 -0.00000000000E+00 -0.00000000000E+00 -0.15111493660E+03  0.15111493660E+03  0.00000000000E+00 0. -1.
         25    2    1    2    0    0  0.85287414894E+02 -0.21469730390E+02  0.40070314901E+03  0.42886003830E+03  0.12499210520E+03 0.  0.
          2    1    1    2  501    0 -0.20763426979E+02 -0.31718388742E+02 -0.13306222949E+03  0.13835726580E+03  0.00000000000E+00 0. -1.
          1    1    1    2  502    0 -0.64523987915E+02  0.53188119133E+02  0.13162445826E+04  0.13188980712E+04  0.00000000000E+00 0. -1.
         22    1    3    3    0    0  0.64151072787E+02 -0.72882336886E+02  0.24552338810E+03  0.26402448612E+03  0.00000000000E+00 0.  1.
         22    1    3    3    0    0  0.21136342107E+02  0.51412606496E+02  0.15517976091E+03  0.16483555218E+03  0.00000000000E+00 0.  1.
</event>
<event>
 7    1  0.6253338E-006  0.7996634E+02  0.7818608E-02  0.1427989E+00
          2   -1    0    0  502    0  0.00000000000E+00  0.00000000000E+00  0.63826803943E+03  0.63826803943E+03  0.00000000000E+00 0. -1.
          1   -1    0    0  501    0 -0.00000000000E+00 -0.00000000000E+00 -0.90736121167E+03  0.90736121167E+03  0.00000000000E+00 0. -1.
         25    2    1    2    0    0 -0.38224366802E+02  0.10723108381E+03 -0.19608020785E+03  0.25890503294E+03  0.12499904247E+03 0.  0.
          2    1    1    2  501    0  0.39811463292E+01 -0.35390596670E+02 -0.67678917602E+03  0.67772555849E+03  0.00000000000E+00 0. -1.
          1    1    1    2  502    0  0.34243220473E+02 -0.71840487135E+02  0.60377621163E+03  0.60899865966E+03  0.00000000000E+00 0. -1.
         22    1    3    3    0    0 -0.20597334332E+02  0.11108407774E+03 -0.20840227174E+03  0.23705575162E+03  0.00000000000E+00 0.  1.
         22    1    3    3    0    0 -0.17627032470E+02 -0.38529939368E+01  0.12322063884E+02  0.21849281323E+02  0.00000000000E+00 0.  1.
</event>
<event>
 7    1  0.6253338E-006  0.7829344E+02  0.7818608E-02  0.1487952E+00
          2   -1    0    0  502    0  0.00000000000E+00  0.00000000000E+00  0.15881724835E+04  0.15881724835E+04  0.00000000000E+00 0. -1.
          1   -1    0    0  501    0 -0.00000000000E+00 -0.00000000000E+00 -0.44884489791E+02  0.44884489791E+02  0.00000000000E+00 0. -1.
         25    2    1    2    0    0 -0.46181939758E+02  0.33339572189E+02  0.64337179369E+03  0.65787287173E+03  0.12500060723E+03 0.  0.
          2    1    1    2  501    0  0.68466277401E+02 -0.40790719518E+02  0.48865297557E+01  0.79846052582E+02  0.00000000000E+00 0. -1.
          1    1    1    2  502    0 -0.22284337643E+02  0.74511473290E+01  0.89502967022E+03  0.89533804893E+03  0.00000000000E+00 0. -1.
         22    1    3    3    0    0 -0.35921622249E+02  0.59020803106E+01  0.61814026848E+03  0.61921126363E+03  0.00000000000E+00 0. -1.
         22    1    3    3    0    0 -0.10260317509E+02  0.27437491879E+02  0.25231525213E+02  0.38661608095E+02  0.00000000000E+00 0. -1.
</event>
<event>
 7    1  0.6253338E-006  0.1197207E+03  0.7818608E-02  0.1400119E+00
          2   -1    0    0  502    0  0.00000000000E+00  0.00000000000E+00  0.11089797797E+04  0.11089797797E+04  0.00000000000E+00 0. -1.
          1   -1    0    0  501    0 -0.00000000000E+00 -0.00000000000E+00 -0.47860594087E+03  0.47860594087E+03  0.00000000000E+00 0. -1.
         25    2    1    2    0    0  0.88901898828E+02  0.47157241873E+02  0.13889278868E+03  0.21223302360E+03  0.12499718591E+03 0.  0.
          2    1    1    2  501    0  0.65248689931E+01  0.28799734183E+02 -0.43745171008E+03  0.43844725710E+03  0.00000000000E+00 0. -1.
          1    1    1    2  502    0 -0.95426767821E+02 -0.75956976056E+02  0.92893276019E+03  0.93690543983E+03  0.00000000000E+00 0. -1.
         22    1    3    3    0    0  0.10692447939E+03  0.42451384720E+02  0.15113836194E+03  0.18994148785E+03  0.00000000000E+00 0. -1.
         22    1    3    3    0    0 -0.18022580561E+02  0.47058571529E+01 -0.12245573263E+02  0.22291535751E+02  0.00000000000E+00 0. -1.
</event>
<event>
 7    1  0.6253338E-006  0.8052407E+02  0.7818608E-02  0.1457704E+00
          2   -1    0    0  502    0  0.00000000000E+00  0.00000000000E+00  0.76365010495E+03  0.76365010495E+03  0.00000000000E+00 0. -1.
          1   -1    0    0  501    0 -0.00000000000E+00 -0.00000000000E+00 -0.34278315292E+03  0.34278315292E+03  0.00000000000E+00 0. -1.
         25    2    1    2    0    0  0.28059304889E+02  0.44974586555E+02 -0.25563951302E+02  0.13815876121E+03  0.12499715863E+03 0.  0.
          2    1    1    2  501    0  0.16709226328E+02  0.22901940243E+02 -0.25780551930E+03  0.25935956295E+03  0.00000000000E+00 0. -1.
          1    1    1    2  502    0 -0.44768531217E+02 -0.67876526798E+02  0.70423642263E+03  0.70891493371E+03  0.00000000000E+00 0. -1.
         22    1    3    3    0    0  0.69639129243E+02  0.31987002517E+01 -0.35748023602E+02  0.78343865085E+02  0.00000000000E+00 0. -1.
         22    1    3    3    0    0 -0.41579824354E+02  0.41775886303E+02  0.10184072300E+02  0.59814896124E+02  0.00000000000E+00 0. -1.
</event>
<event>
 7    1  0.6253338E-006  0.5054348E+02  0.7818608E-02  0.1473774E+00
          2   -1    0    0  502    0  0.00000000000E+00  0.00000000000E+00  0.44044154021E+03  0.44044154021E+03  0.00000000000E+00 0. -1.
          1   -1    0    0  501    0 -0.00000000000E+00 -0.00000000000E+00 -0.10867689180E+04  0.10867689180E+04  0.00000000000E+00 0. -1.
         25    2    1    2    0    0  0.24082533976E+02 -0.26687793400E+02  0.14061435270E+03  0.19154543067E+03  0.12500019627E+03 0.  0.
          2    1    1    2  501    0 -0.30586241139E+02 -0.26128057602E+02 -0.10583373046E+04  0.10591015267E+04  0.00000000000E+00 0. -1.
          1    1    1    2  502    0  0.65037071630E+01  0.52815851003E+02  0.27139557413E+03  0.27656350082E+03  0.00000000000E+00 0. -1.
         22    1    3    3    0    0  0.37663721180E+02 -0.38451796359E+02  0.15777247671E+03  0.16670108261E+03  0.00000000000E+00 0. -1.
         22    1    3    3    0    0 -0.13581187204E+02  0.11764002959E+02 -0.17158124004E+02  0.24844348066E+02  0.00000000000E+00 0. -1.
</event>
<event>
 7    1  0.6253338E-006  0.5814918E+02  0.7818608E-02  0.1436258E+00
          2   -1    0    0  502    0  0.00000000000E+00  0.00000000000E+00  0.11685107101E+03  0.11685107101E+03  0.00000000000E+00 0. -1.
          1   -1    0    0  501    0 -0.00000000000E+00 -0.00000000000E+00 -0.16676115274E+04  0.16676115274E+04  0.00000000000E+00 0. -1.
         25    2    1    2    0    0  0.58615565617E+02  0.36295333027E+02 -0.93493479215E+03  0.94577126355E+03  0.12500832630E+03 0.  0.
          2    1    1    2  501    0 -0.41719798173E+02  0.19398307345E+02 -0.71887329662E+03  0.72034412088E+03  0.00000000000E+00 0. -1.
          1    1    1    2  502    0 -0.16895767444E+02 -0.55693640372E+02  0.10304763235E+03  0.11834721403E+03  0.00000000000E+00 0. -1.
         22    1    3    3    0    0  0.36450997001E+02 -0.22006354247E+02 -0.10234967397E+03  0.11085310357E+03  0.00000000000E+00 0.  1.
         22    1    3    3    0    0  0.22164568617E+02  0.58301687274E+02 -0.83258511818E+03  0.83491815998E+03  0.00000000000E+00 0.  1.
</event>
<event>
 7    1  0.6253338E-006  0.2199860E+03  0.7818608E-02  0.1178392E+00
          2   -1    0    0  502    0  0.00000000000E+00  0.00000000000E+00  0.52612609363E+03  0.52612609363E+03  0.00000000000E+00 0. -1.
          1   -1    0    0  501    0 -0.00000000000E+00 -0.00000000000E+00 -0.46484438170E+03  0.46484438170E+03  0.00000000000E+00 0. -1.
         25    2    1    2    0    0  0.21758564949E+03  0.14923377607E+03 -0.64587482721E+01  0.29203015522E+03  0.12500264535E+03 0.  0.
          2    1    1    2  501    0 -0.94668453263E+02 -0.19327209442E+03 -0.26506897995E+03  0.34143488788E+03  0.00000000000E+00 0. -1.
          1    1    1    2  502    0 -0.12291719623E+03  0.44038318348E+02  0.33280944017E+03  0.35750543223E+03  0.00000000000E+00 0. -1.
         22    1    3    3    0    0  0.20113868849E+03  0.16720973750E+03  0.11413791447E+02  0.26181318331E+03  0.00000000000E+00 0. -1.
         22    1    3    3    0    0  0.16446961001E+02 -0.17975961427E+02 -0.17872539719E+02  0.30216971910E+02  0.00000000000E+00 0. -1.
</event>
<event>
 7    1  0.6253338E-006  0.1013797E+03  0.7818608E-02  0.1473604E+00
          2   -1    0    0  502    0  0.00000000000E+00  0.00000000000E+00  0.58368822994E+02  0.58368822994E+02  0.00000000000E+00 0. -1.
          1   -1    0    0  501    0 -0.00000000000E+00 -0.00000000000E+00 -0.69146025611E+03  0.69146025611E+03  0.00000000000E+00 0. -1.
         25    2    1    2    0    0  0.59499335108E+02  0.71479887012E+02 -0.11156815293E+03  0.19162932346E+03  0.12499919895E+03 0.  0.
          2    1    1    2  501    0 -0.50370503050E+02 -0.89364345039E+02 -0.52739526515E+03  0.53727920064E+03  0.00000000000E+00 0. -1.
          1    1    1    2  502    0 -0.91288320575E+01  0.17884458027E+02  0.58719849696E+01  0.20920554991E+02  0.00000000000E+00 0. -1.
         22    1    3    3    0    0  0.65096722361E+02  0.11769556479E+02 -0.11378376053E+03  0.13161629793E+03  0.00000000000E+00 0.  1.
         22    1    3    3    0    0 -0.55973872536E+01  0.59710330532E+02  0.22156075960E+01  0.60013025531E+02  0.00000000000E+00 0.  1.
</event>
<event>
 7    1  0.6253338E-006  0.7478608E+02  0.7818608E-02  0.1510778E+00
          2   -1    0    0  502    0  0.00000000000E+00  0.00000000000E+00  0.37795746937E+04  0.37795746937E+04  0.00000000000E+00 0. -1.
          1   -1    0    0  501    0 -0.00000000000E+00 -0.00000000000E+00 -0.15929508692E+03  0.15929508692E+03  0.00000000000E+00 0. -1.
         25    2    1    2    0    0 -0.10589745611E+02  0.52891753050E+02  0.60531580257E+02  0.14899236534E+03  0.12499988987E+03 0.  0.
          2    1    1    2  501    0 -0.39885451313E+01  0.20643420686E+02 -0.11371860419E+03  0.11564592621E+03  0.00000000000E+00 0. -1.
          1    1    1    2  502    0  0.14578290742E+02 -0.73535173736E+02  0.36734666307E+04  0.36742314890E+04  0.00000000000E+00 0. -1.
         22    1    3    3    0    0 -0.39488336037E+02 -0.28608149713E+02  0.13684749690E+02  0.50646098438E+02  0.00000000000E+00 0. -1.
         22    1    3    3    0    0  0.28898590426E+02  0.81499902763E+02  0.46846830567E+02  0.98346266900E+02  0.00000000000E+00 0. -1.
</event>
<event>
 7    1  0.6253338E-006  0.6853321E+02  0.7818608E-02  0.1469233E+00
          2   -1    0    0  502    0  0.00000000000E+00  0.00000000000E+00  0.10316432532E+03  0.10316432532E+03  0.00000000000E+00 0. -1.
          1   -1    0    0  501    0 -0.00000000000E+00 -0.00000000000E+00 -0.35063722569E+03  0.35063722569E+03  0.00000000000E+00 0. -1.
         25    2    1    2    0    0 -0.74904148558E+02 -0.61423458045E+02 -0.28757838278E+01  0.15816888893E+03  0.12500261846E+03 0.  0.
          2    1    1    2  501    0  0.55151748022E+02  0.37992151332E+02 -0.25470520307E+03  0.26336260050E+03  0.00000000000E+00 0. -1.
          1    1    1    2  502    0  0.19752400536E+02  0.23431306713E+02  0.10108086526E+02  0.32270061581E+02  0.00000000000E+00 0. -1.
         22    1    3    3    0    0 -0.10632801758E+02  0.56865079271E+01  0.49878903734E+02  0.51315668984E+02  0.00000000000E+00 0.  1.
         22    1    3    3    0    0 -0.64271346800E+02 -0.67109965972E+02 -0.52754687561E+02  0.10685321994E+03  0.00000000000E+00 0.  1.
</event>
<event>
 7    1  0.6253338E-006  0.1447611E+03  0.7818608E-02  0.1351992E+00
          2   -1    0    0  502    0  0.00000000000E+00  0.00000000000E+00  0.23888049078E+03  0.23888049078E+03  0.00000000000E+00 0. -1.
          1   -1    0    0  501    0 -0.00000000000E+00 -0.00000000000E+00 -0.12290565381E+04  0.12290565381E+04  0.00000000000E+00 0. -1.
         25    2    1    2    0    0  0.10815085238E+03 -0.76006800761E+02 -0.89063295112E+02  0.20256144184E+03  0.12500090621E+03 0.  0.
          2    1    1    2  501    0 -0.96049135745E+02  0.11017534741E+03 -0.10764513134E+04  0.10863293579E+04  0.00000000000E+00 0. -1.
          1    1    1    2  502    0 -0.12101716635E+02 -0.34168546650E+02  0.17533856120E+03  0.17904622914E+03  0.00000000000E+00 0. -1.
         22    1    3    3    0    0  0.79582782032E+02  0.19105372017E+02 -0.30967072603E+02  0.87506537021E+02  0.00000000000E+00 0.  1.
         22    1    3    3    0    0  0.28568070348E+02 -0.95112172777E+02 -0.58096222508E+02  0.11505490482E+03  0.00000000000E+00 0.  1.
</event>
<event>
 7    1  0.6253338E-006  0.8710605E+02  0.7818608E-02  0.1452507E+00
          2   -1    0    0  502    0  0.00000000000E+00  0.00000000000E+00  0.85988217559E+03  0.85988217559E+03  0.00000000000E+00 0. -1.
          1   -1    0    0  501    0 -0.00000000000E+00 -0.00000000000E+00 -0.31781992248E+03  0.31781992248E+03  0.00000000000E+00 0. -1.
         25    2    1    2    0    0  0.50166830086E+02  0.63164549248E+02  0.43455519967E+02  0.15498411068E+03  0.12500088490E+03 0.  0.
          2    1    1    2  501    0 -0.30790320949E+02 -0.82285908867E+02 -0.25443885512E+03  0.26918050757E+03  0.00000000000E+00 0. -1.
          1    1    1    2  502    0 -0.19376509138E+02  0.19121359619E+02  0.75304558825E+03  0.75353747982E+03  0.00000000000E+00 0. -1.
         22    1    3    3    0    0  0.75977744955E+02  0.58481813590E+02 -0.90352031013E+01  0.96303557277E+02  0.00000000000E+00 0. -1.
         22    1    3    3    0    0 -0.25810914869E+02  0.46827356588E+01  0.52490723068E+02  0.58680553404E+02  0.00000000000E+00 0. -1.
</event>
<event>
 7    1  0.6253338E-006  0.6267662E+02  0.7818608E-02  0.1480992E+00
          2   -1    0    0  502    0  0.00000000000E+00  0.00000000000E+00  0.10508518754E+03  0.10508518754E+03  0.00000000000E+00 0. -1.
          1   -1    0    0  501    0 -0.00000000000E+00 -0.00000000000E+00 -0.81510845789E+03  0.81510845789E+03  0.00000000000E+00 0. -1.
         25    2    1    2    0    0 -0.82883919243E+02 -0.72418652123E+01 -0.35715013100E+03  0.38743158211E+03  0.12499930425E+03 0.  0.
          2    1    1    2  501    0  0.56000935121E+02  0.22316987656E+02 -0.43805086817E+03  0.44217950629E+03  0.00000000000E+00 0. -1.
          1    1    1    2  502    0  0.26882984122E+02 -0.15075122444E+02  0.85177728823E+02  0.90582557037E+02  0.00000000000E+00 0. -1.
         22    1    3    3    0    0 -0.55034049656E+02  0.10095121049E+02 -0.40463535540E+02  0.69050385943E+02  0.00000000000E+00 0. -1.
         22    1    3    3    0    0 -0.27849869587E+02 -0.17336986261E+02 -0.31668659546E+03  0.31838119617E+03  0.00000000000E+00 0. -1.
</event>
<event>
 7    1  0.6253338E-006  0.5472634E+02  0.7818608E-02  0.1499597E+00
          2   -1    0    0  502    0  0.00000000000E+00  0.00000000000E+00  0.18072244506E+04  0.18072244506E+04  0.00000000000E+00 0. -1.
          1   -1    0    0  501    0 -0.00000000000E+00 -0.00000000000E+00 -0.32338377562E+03  0.32338377562E+03  0.00000000000E+00 0. -1.
         25    2    1    2    0    0  0.61399959046E+02  0.36112182540E+00  0.59930997348E+03  0.61527837879E+03  0.12499981486E+03 0.  0.
          2    1    1    2  501    0 -0.14230137729E+02  0.27551616093E+02 -0.31400956607E+03  0.31553699617E+03  0.00000000000E+00 0. -1.
          1    1    1    2  502    0 -0.47169821316E+02 -0.27912737918E+02  0.11985402675E+04  0.11997928512E+04  0.00000000000E+00 0. -1.
         22    1    3    3    0    0  0.77340024595E+02  0.24936716599E+02  0.56199470429E+03  0.56783920866E+03  0.00000000000E+00 0.  1.
         22    1    3    3    0    0 -0.15940065550E+02 -0.24575594773E+02  0.37315269187E+02  0.47439170131E+02  0.00000000000E+00 0.  1.
</event>
<event>
 7    1  0.6253338E-006  0.6466715E+02  0.7818608E-02  0.1385914E+00
          2   -1    0    0  502    0  0.00000000000E+00  0.00000000000E+00  0.29512550314E+03  0.29512550314E+03  0.00000000000E+00 0. -1.
          1   -1    0    0  501    0 -0.00000000000E+00 -0.00000000000E+00 -0.35815250388E+03  0.35815250388E+03  0.00000000000E+00 0. -1.
         25    2    1    2    0    0  0.14930305478E+01 -0.12267492319E+03  0.14431972983E+03  0.22695595896E+03  0.12501782661E+03 0.  0.
          2    1    1    2  501    0 -0.12531833052E+02  0.62429524076E+02 -0.30471227324E+03  0.31129417242E+03  0.00000000000E+00 0. -1.
          1    1    1    2  502    0  0.11038802504E+02  0.60245399114E+02  0.97365542674E+02  0.11502787564E+03  0.00000000000E+00 0. -1.
         22    1    3    3    0    0  0.46979454092E+02 -0.30750007860E+02  0.10112686415E+03  0.11566881492E+03  0.00000000000E+00 0.  1.
         22    1    3    3    0    0 -0.45486423544E+02 -0.91924915330E+02  0.43192865674E+02  0.11128714405E+03  0.00000000000E+00 0.  1.
</event>
<event>
 7    1  0.6253338E-006  0.4985563E+02  0.7818608E-02  0.1489767E+00
          2   -1    0    0  502    0  0.00000000000E+00  0.00000000000E+00  0.83078551940E+03  0.83078551940E+03  0.00000000000E+00 0. -1.
          1   -1    0    0  501    0 -0.00000000000E+00 -0.00000000000E+00 -0.16325619434E+03  0.16325619434E+03  0.00000000000E+00 0. -1.
         25    2    1    2    0    0  0.83471146503E+02 -0.83693039284E-01  0.80862259463E+00  0.15030493363E+03  0.12499391945E+03 0.  0.
          2    1    1    2  501    0 -0.47050346593E+02 -0.94796291110E+00 -0.81777964101E+02  0.94351837081E+02  0.00000000000E+00 0. -1.
          1    1    1    2  502    0 -0.36420799910E+02  0.10316559504E+01  0.74849866657E+03  0.74938494302E+03  0.00000000000E+00 0. -1.
         22    1    3    3    0    0  0.25664110954E+02  0.57746808891E+02  0.20061392980E+02  0.66300829682E+02  0.00000000000E+00 0. -1.
         22    1    3    3    0    0  0.57807035549E+02 -0.57830501931E+02 -0.19252770385E+02  0.84004103948E+02  0.00000000000E+00 0. -1.
</event>
<event>
 7    1  0.6253338E-006  0.5692467E+02  0.7818608E-02  0.1458635E+00
          2   -1    0    0  502    0  0.00000000000E+00  0.00000000000E+00  0.49909811489E+03  0.49909811489E+03  0.00000000000E+00 0. -1.
          1   -1    0    0  501    0 -0.00000000000E+00 -0.00000000000E+00 -0.12255427675E+04  0.12255427675E+04  0.00000000000E+00 0. -1.
         25    2    1    2    0    0 -0.35309438204E+02 -0.12292651550E+02  0.92520631459E+01  0.13079655207E+03  0.12499708658E+03 0.  0.
          2    1    1    2  501    0  0.83922924116E+01 -0.38937109375E+02 -0.11624765664E+04  0.11631587581E+04  0.00000000000E+00 0. -1.
          1    1    1    2  502    0  0.26917145792E+02  0.51229760925E+02  0.42677985069E+03  0.43068557220E+03  0.00000000000E+00 0. -1.
         22    1    3    3    0    0 -0.19567408809E+02 -0.61743485022E+02  0.34167405503E+02  0.73229454654E+02  0.00000000000E+00 0.  1.
         22    1    3    3    0    0 -0.15742029395E+02  0.49450833471E+02 -0.24915342358E+02  0.57567097419E+02  0.00000000000E+00 0.  1.
</event>
<event>
 7    1  0.6253338E-006  0.1815150E+03  0.7818608E-02  0.1245270E+00
          2   -1    0    0  502    0  0.00000000000E+00  0.00000000000E+00  0.13321081110E+04  0.13321081110E+04  0.00000000000E+00 0. -1.
          1   -1    0    0  501    0 -0.00000000000E+00 -0.00000000000E+00 -0.13025232062E+03  0.13025232062E+03  0.00000000000E+00 0. -1.
         25    2    1    2    0    0  0.28292271705E+02 -0.22985190878E+03  0.45859476216E+03  0.52874075103E+03  0.12500109325E+03 0.  0.
          2    1    1    2  501    0 -0.65291108836E+02  0.16162590425E+03 -0.11673726949E+02  0.17470586058E+03  0.00000000000E+00 0. -1.
          1    1    1    2  502    0  0.36998837131E+02  0.68226004530E+02  0.75493475522E+03  0.75891382006E+03  0.00000000000E+00 0. -1.
         22    1    3    3    0    0  0.72073238196E+02 -0.18694809663E+03  0.37377397864E+03  0.42408858698E+03  0.00000000000E+00 0. -1.
         22    1    3    3    0    0 -0.43780966491E+02 -0.42903812152E+02  0.84820783516E+02  0.10465216405E+03  0.00000000000E+00 0. -1.
</event>
<event>
 7    1  0.6253338E-006  0.4867424E+02  0.7818608E-02  0.1508160E+00
          2   -1    0    0  502    0  0.00000000000E+00  0.00000000000E+00  0.61575735843E+03  0.61575735843E+03  0.00000000000E+00 0. -1.
          1   -1    0    0  501    0 -0.00000000000E+00 -0.00000000000E+00 -0.13277354608E+03  0.13277354608E+03  0.00000000000E+00 0. -1.
         25    2    1    2    0    0 -0.19633621275E+01  0.53893621018E+02 -0.79262419943E+02  0.15753023300E+03  0.12499946366E+03 0.  0.
          2    1    1    2  501    0 -0.28708203215E+02 -0.16035534635E+02  0.69989305793E+01  0.33619701547E+02  0.00000000000E+00 0. -1.
          1    1    1    2  502    0  0.30671565343E+02 -0.37858086383E+02  0.55524730171E+03  0.55738096997E+03  0.00000000000E+00 0. -1.
         22    1    3    3    0    0 -0.50832438804E+02  0.65800634858E+02 -0.64124471077E+02  0.10500289602E+03  0.00000000000E+00 0. -1.
         22    1    3    3    0    0  0.48869076676E+02 -0.11907013840E+02 -0.15137948866E+02  0.52527336975E+02  0.00000000000E+00 0. -1.
</event>
<event>
 7    1  0.6253338E-006  0.7035437E+02  0.7818608E-02  0.1427969E+00
          2   -1    0    0  502    0  0.00000000000E+00  0.00000000000E+00  0.15598938210E+03  0.15598938210E+03  0.00000000000E+00 0. -1.
          1   -1    0    0  501    0 -0.00000000000E+00 -0.00000000000E+00 -0.14148980923E+04  0.14148980923E+04  0.00000000000E+00 0. -1.
         25    2    1    2    0    0  0.47655716397E+02  0.93848554217E+02 -0.10988571922E+04  0.11109412405E+04  0.12499876985E+03 0.  0.
          2    1    1    2  501    0 -0.31310710560E+02 -0.25665883832E+02 -0.30036959941E+03  0.30308578726E+03  0.00000000000E+00 0. -1.
          1    1    1    2  502    0 -0.16345005837E+02 -0.68182670385E+02  0.14031808142E+03  0.15686044667E+03  0.00000000000E+00 0. -1.
         22    1    3    3    0    0  0.28063319801E+02  0.11927436818E+03 -0.98676893690E+03  0.99434745419E+03  0.00000000000E+00 0.  1.
         22    1    3    3    0    0  0.19592396596E+02 -0.25425813962E+02 -0.11208825533E+03  0.11659378630E+03  0.00000000000E+00 0.  1.
</event>
<event>
 7    1  0.6253338E-006  0.8051237E+02  0.7818608E-02  0.1465887E+00
          2   -1    0    0  502    0  0.00000000000E+00  0.00000000000E+00  0.49824416981E+03  0.49824416981E+03  0.00000000000E+00 0. -1.
          1   -1    0    0  501    0 -0.00000000000E+00 -0.00000000000E+00 -0.16392811861E+04  0.16392811861E+04  0.00000000000E+00 0. -1.
         25    2    1    2    0    0  0.27722670922E+02  0.57387649709E+02  0.58549530618E+02  0.15203584719E+03  0.12499984989E+03 0.  0.
          2    1    1    2  501    0 -0.54347510053E+02 -0.59657067297E+02 -0.15910599104E+04  0.15931052244E+04  0.00000000000E+00 0. -1.
          1    1    1    2  502    0  0.26624839131E+02  0.22694175877E+01  0.39147336345E+03  0.39238428435E+03  0.00000000000E+00 0. -1.
         22    1    3    3    0    0  0.29292774228E+01  0.39588158557E+02  0.95905823923E+02  0.10379658003E+03  0.00000000000E+00 0. -1.
         22    1    3    3    0    0  0.24793393499E+02  0.17799491152E+02 -0.37356293305E+02  0.48239267158E+02  0.00000000000E+00 0. -1.
</event>
<event>
 7    1  0.6253338E-006  0.4434391E+02  0.7818608E-02  0.1514660E+00
          2   -1    0    0  502    0  0.00000000000E+00  0.00000000000E+00  0.24622231383E+03  0.24622231383E+03  0.00000000000E+00 0. -1.
          1   -1    0    0  501    0 -0.00000000000E+00 -0.00000000000E+00 -0.24770364592E+03  0.24770364592E+03  0.00000000000E+00 0. -1.
         25    2    1    2    0    0  0.23710860481E+02  0.64371602535E+02 -0.78300738589E+02  0.16267341356E+03  0.12500290276E+03 0.  0.
          2    1    1    2  501    0 -0.27750653006E+02 -0.20567420855E+02 -0.12242768431E+03  0.12720713591E+03  0.00000000000E+00 0. -1.
          1    1    1    2  502    0  0.40397925257E+01 -0.43804181680E+02  0.19924709080E+03  0.20404541026E+03  0.00000000000E+00 0. -1.
         22    1    3    3    0    0  0.70376380784E+02  0.28223960261E+02 -0.17269358641E+02  0.77766687296E+02  0.00000000000E+00 0.  1.
         22    1    3    3    0    0 -0.46665520303E+02  0.36147642273E+02 -0.61031379948E+02  0.84906726268E+02  0.00000000000E+00 0.  1.
</event>
<event>
 7    1  0.6253338E-006  0.1097218E+03  0.7818608E-02  0.1388151E+00
          2   -1    0    0  502    0  0.00000000000E+00  0.00000000000E+00  0.15041291493E+04  0.15041291493E+04  0.00000000000E+00 0. -1.
          1   -1    0    0  501    0 -0.00000000000E+00 -0.00000000000E+00 -0.12119077483E+03  0.12119077483E+03  0.00000000000E+00 0. -1.
         25    2    1    2    0    0  0.70881338792E+02 -0.43360110059E+02  0.74415880262E+01  0.15027952035E+03  0.12499717466E+03 0.  0.
          2    1    1    2  501    0  0.34267076624E+02  0.90898038507E+01 -0.41017655667E+02  0.54215358993E+02  0.00000000000E+00 0. -1.
          1    1    1    2  502    0 -0.10514841542E+03  0.34270306208E+02  0.14165144421E+04  0.14208250448E+04  0.00000000000E+00 0. -1.
         22    1    3    3    0    0  0.21821360790E+02 -0.83497902525E+02  0.97445347770E+01  0.86850604320E+02  0.00000000000E+00 0.  1.
         22    1    3    3    0    0  0.49059978002E+02  0.40137792466E+02 -0.23029467508E+01  0.63428916034E+02  0.00000000000E+00 0.  1.
</event>
<event>
 7    1  0.6253338E-006  0.6925583E+02  0.7818608E-02  0.1409535E+00
          2   -1    0    0  502    0  0.00000000000E+00  0.00000000000E+00  0.30461336839E+03  0.30461336839E+03  0.00000000000E+00 0. -1.
          1   -1    0    0  501    0 -0.00000000000E+00 -0.00000000000E+00 -0.23175364546E+03  0.23175364546E+03  0.00000000000E+00 0. -1.
         25    2    1    2    0    0 -0.71103007171E+02 -0.59734456649E+02  0.80347931655E+02  0.17522769839E+03  0.12500045289E+03 0.  0.
          2    1    1    2  501    0  0.23921644789E+02  0.64328315214E+02 -0.17450979263E+03  0.18752078538E+03  0.00000000000E+00 0. -1.
          1    1    1    2  502    0  0.47181362382E+02 -0.45938585647E+01  0.16702158390E+03  0.17361853007E+03  0.00000000000E+00 0. -1.
         22    1    3    3    0    0 -0.21631676782E+02 -0.48932890367E+02  0.10579711668E+03  0.11855541784E+03  0.00000000000E+00 0. -1.
         22    1    3    3    0    0 -0.49471330389E+02 -0.10801566282E+02 -0.25449185030E+02  0.56672280555E+02  0.00000000000E+00 0. -1.
</event>
<event>
 7    1  0.6253338E-006  0.2984216E+02  0.7818608E-02  0.1627594E+00
          2   -1    0    0  502    0  0.00000000000E+00  0.00000000000E+00  0.20995298391E+04  0.20995298391E+04  0.00000000000E+00 0. -1.
          1   -1    0    0  501    0 -0.00000000000E+00 -0.00000000000E+00 -0.29701286582E+03  0.29701286582E+03  0.00000000000E+00 0. -1.
         25    2    1    2    0    0 -0.29303279795E+02  0.14555318427E+02  0.31936639412E+03  0.34451600818E+03  0.12500338675E+03 0.  0.
          2    1    1    2  501    0  0.27865863322E+02  0.10730080294E+02 -0.28356336270E+03  0.28513123580E+03  0.00000000000E+00 0. -1.
          1    1    1    2  502    0  0.14374164726E+01 -0.25285398721E+02  0.17667139418E+04  0.17668954609E+04  0.00000000000E+00 0. -1.
         22    1    3    3    0    0  0.27329028748E+01 -0.30746619189E+02  0.26514838029E+03  0.26693910714E+03  0.00000000000E+00 0.  1.
         22    1    3    3    0    0 -0.32036182670E+02  0.45301937616E+02  0.54218013836E+02  0.77576901048E+02  0.00000000000E+00 0.  1.
</event>
<event>
 7    1  0.6253338E-006  0.5817558E+02  0.7818608E-02  0.1533667E+00
          2   -1    0    0  502    0  0.00000000000E+00  0.00000000000E+00  0.15221252687E+04  0.15221252687E+04  0.00000000000E+00 0. -1.
          1   -1    0    0  501    0 -0.00000000000E+00 -0.00000000000E+00 -0.73400857858E+02  0.73400857858E+02  0.00000000000E+00 0. -1.
         25    2    1    2    0    0  0.77273366765E+02 -0.14920329153E+02  0.49383512829E+03  0.51545377395E+03  0.12500267883E+03 0.  0.
          2    1    1    2  501    0 -0.20751089745E+02  0.10381585763E+02 -0.59621868935E+02  0.63977748505E+02  0.00000000000E+00 0. -1.
          1    1    1    2  502    0 -0.56522277020E+02  0.45387433896E+01  0.10145111515E+04  0.10160946041E+04  0.00000000000E+00 0. -1.
         22    1    3    3    0    0  0.77480657933E+02 -0.78437075702E+01  0.12994058144E+03  0.15149036539E+03  0.00000000000E+00 0.  1.
         22    1    3    3    0    0 -0.20729116828E+00 -0.70766215827E+01  0.36389454685E+03  0.36396340856E+03  0.00000000000E+00 0.  1.
</event>
<event>
 7    1  0.6253338E-006  0.7936906E+02  0.7818608E-02  0.1439316E+00
          2   -1    0    0  502    0  0.00000000000E+00  0.00000000000E+00  0.15589911084E+03  0.15589911084E+03  0.00000000000E+00 0. -1.
          1   -1    0    0  501    0 -0.00000000000E+00 -0.00000000000E+00 -0.84618988721E+03  0.84618988721E+03  0.00000000000E+00 0. -1.
         25    2    1    2    0    0 -0.66423396207E+02 -0.36745887497E+02  0.97857356034E+02  0.17599339039E+03  0.12504112732E+03 0.  0.
          2    1    1    2  501    0  0.39364186676E+01 -0.32708221217E+02 -0.68928571356E+03  0.69007254550E+03  0.00000000000E+00 0. -1.
          1    1    1    2  502    0  0.62486977539E+02  0.69454108714E+02 -0.98862418846E+02  0.13602306216E+03  0.00000000000E+00 0. -1.
         22    1    3    3    0    0 -0.31595230171E+02 -0.26137464870E+01 -0.27195146894E+02  0.41769202229E+02  0.00000000000E+00 0.  1.
         22    1    3    3    0    0 -0.34828166036E+02 -0.34132141010E+02  0.12505250293E+03  0.13422418816E+03  0.00000000000E+00 0.  1.
</event>
<event>
 7    1  0.6253338E-006  0.9982787E+02  0.7818608E-02  0.1360574E+00
          2   -1    0    0  502    0  0.00000000000E+00  0.00000000000E+00  0.76618386300E+03  0.76618386300E+03  0.00000000000E+00 0. -1.
          1   -1    0    0  501    0 -0.00000000000E+00 -0.00000000000E+00 -0.73807393283E+03  0.73807393283E+03  0.00000000000E+00 0. -1.
         25    2    1    2    0    0  0.12339388934E+02  0.68463731341E+02  0.19645831726E+03  0.24302248475E+03  0.12499805856E+03 0.  0.
          2    1    1    2  501    0 -0.59644131006E+02 -0.80798610340E+02 -0.71015836790E+03  0.71722433401E+03  0.00000000000E+00 0. -1.
          1    1    1    2  502    0  0.47304742072E+02  0.12334878999E+02  0.54180998082E+03  0.54401097707E+03  0.00000000000E+00 0. -1.
         22    1    3    3    0    0 -0.86281599848E+01  0.10024834153E+03  0.16662971929E+03  0.19465260973E+03  0.00000000000E+00 0.  1.
         22    1    3    3    0    0  0.20967548919E+02 -0.31784610188E+02  0.29828597969E+02  0.48369875018E+02  0.00000000000E+00 0.  1.
</event>
<event>
 7    1  0.6253338E-006  0.3690706E+02  0.7818608E-02  0.1564645E+00
          2   -1    0    0  502    0  0.00000000000E+00  0.00000000000E+00  0.22086520908E+04  0.22086520908E+04  0.00000000000E+00 0. -1.
          1   -1    0    0  501    0 -0.00000000000E+00 -0.00000000000E+00 -0.61187762331E+03  0.61187762331E+03  0.00000000000E+00 0. -1.
         25    2    1    2    0    0  0.31036938554E+02 -0.57172985971E+02  0.12098598499E+03  0.18572654700E+03  0.12499879926E+03 0.  0.
          2    1    1    2  501    0 -0.73415840051E+01  0.29055050345E+02 -0.57895529842E+03  0.57973039629E+03  0.00000000000E+00 0. -1.
          1    1    1    2  502    0 -0.23695354549E+02  0.28117935627E+02  0.20547437810E+04  0.20550727708E+04  0.00000000000E+00 0. -1.
         22    1    3    3    0    0 -0.11928898802E+02  0.27957090497E+02  0.72788320779E+02  0.78879890831E+02  0.00000000000E+00 0.  1.
         22    1    3    3    0    0  0.42965837356E+02 -0.85130076468E+02  0.48197664208E+02  0.10684665617E+03  0.00000000000E+00 0.  1.
</event>
<event>
 7    1  0.6253338E-006  0.7059056E+02  0.7818608E-02  0.1450218E+00
          2   -1    0    0  502    0  0.00000000000E+00  0.00000000000E+00  0.45400023877E+03  0.45400023877E+03  0.00000000000E+00 0. -1.
          1   -1    0    0  501    0 -0.00000000000E+00 -0.00000000000E+00 -0.16350685199E+03  0.16350685199E+03  0.00000000000E+00 0. -1.
         25    2    1    2    0    0 -0.28381362590E+01  0.48787334643E+02  0.25608003658E+03  0.28910198995E+03  0.12495885892E+03 0.  0.
          2    1    1    2  501    0  0.33976962265E+02 -0.62837753752E+02 -0.13652598948E+03  0.15408557060E+03  0.00000000000E+00 0. -1.
          1    1    1    2  502    0 -0.31138826006E+02  0.14050419109E+02  0.17093933969E+03  0.17431953022E+03  0.00000000000E+00 0. -1.
         22    1    3    3    0    0  0.14614790181E+02  0.70334470612E+02  0.25078662960E+03  0.26087250418E+03  0.00000000000E+00 0.  1.
         22    1    3    3    0    0 -0.17452926439E+02 -0.21547135969E+02  0.52934069757E+01  0.28229485776E+02  0.00000000000E+00 0.  1.
</event>
<event>
 7    1  0.6253338E-006  0.5303519E+02  0.7818608E-02  0.1537116E+00
          2   -1    0    0  502    0  0.00000000000E+00  0.00000000000E+00  0.18906536321E+04  0.18906536321E+04  0.00000000000E+00 0. -1.
          1   -1    0    0  501    0 -0.00000000000E+00 -0.00000000000E+00 -0.31710574031E+03  0.31710574031E+03  0.00000000000E+00 0. -1.
         25    2    1    2    0    0  0.55997701136E+02  0.49972364303E+00  0.89027565877E+02  0.16336341454E+03  0.12500282185E+03 0.  0.
          2    1    1    2  501    0 -0.47424658819E+02 -0.23859926460E+02 -0.27733218613E+03  0.28236773155E+03  0.00000000000E+00 0. -1.
          1    1    1    2  502    0 -0.85730423174E+01  0.23360202817E+02  0.17618525121E+04  0.17620282263E+04  0.00000000000E+00 0. -1.
         22    1    3    3    0    0  0.10020942683E+02  0.80264359515E+01 -0.31569337427E+02  0.34080288026E+02  0.00000000000E+00 0.  1.
         22    1    3    3    0    0  0.45976758454E+02 -0.75267123085E+01  0.12059690330E+03  0.12928312652E+03  0.00000000000E+00 0.  1.
</event>
<event>
 7    1  0.6253338E-006  0.1628538E+03  0.7818608E-02  0.1362162E+00
          2   -1    0    0  502    0  0.00000000000E+00  0.00000000000E+00  0.19076158980E+02  0.19076158980E+02  0.00000000000E+00 0. -1.
          1   -1    0    0  501    0 -0.00000000000E+00 -0.00000000000E+00 -0.29463770407E+04  0.29463770407E+04  0.00000000000E+00 0. -1.
         25    2    1    2    0    0  0.13399364734E+01 -0.14294446926E+03 -0.73253139688E+03  0.75674377501E+03  0.12499590746E+03 0.  0.
          2    1    1    2  501    0  0.14670163222E+02  0.16780615097E+03 -0.21386715382E+04  0.21452948670E+04  0.00000000000E+00 0. -1.
          1    1    1    2  502    0 -0.16010099695E+02 -0.24861681704E+02 -0.56097946639E+02  0.63414557686E+02  0.00000000000E+00 0. -1.
         22    1    3    3    0    0 -0.59198555965E+02 -0.98004096737E+02 -0.44212497077E+03  0.45670971282E+03  0.00000000000E+00 0. -1.
         22    1    3    3    0    0  0.60538492439E+02 -0.44940372527E+02 -0.29040642611E+03  0.30003406219E+03  0.00000000000E+00 0. -1.
</event>
<event>
 7    1  0.6253338E-006  0.5591644E+02  0.7818608E-02  0.1466362E+00
          2   -1    0    0  502    0  0.00000000000E+00  0.00000000000E+00  0.60364140902E+02  0.60364140902E+02  0.00000000000E+00 0. -1.
          1   -1    0    0  501    0 -0.00000000000E+00 -0.00000000000E+00 -0.90255234733E+03  0.90255234733E+03  0.00000000000E+00 0. -1.
         25    2    1    2    0    0 -0.21870402738E+02  0.10909466604E+02 -0.34666639232E+03  0.36932119952E+03  0.12499291929E+03 0.  0.
          2    1    1    2  501    0  0.60177555297E+02 -0.92303742603E+01 -0.53506310404E+03  0.53851561099E+03  0.00000000000E+00 0. -1.
          1    1    1    2  502    0 -0.38307152559E+02 -0.16790923438E+01  0.39541289936E+02  0.55079677723E+02  0.00000000000E+00 0. -1.
         22    1    3    3    0    0 -0.54165241273E+02  0.38376665436E+02 -0.10689117597E+03  0.12582672733E+03  0.00000000000E+00 0. -1.
         22    1    3    3    0    0  0.32294838534E+02 -0.27467198832E+02 -0.23977521635E+03  0.24349447218E+03  0.00000000000E+00 0. -1.
</event>
<event>
 7    1  0.6253338E-006  0.1493124E+03  0.7818608E-02  0.1238722E+00
          2   -1    0    0  502    0  0.00000000000E+00  0.00000000000E+00  0.25178208674E+04  0.25178208674E+04  0.00000000000E+00 0. -1.
          1   -1    0    0  501    0 -0.00000000000E+00 -0.00000000000E+00 -0.18710450807E+03  0.18710450807E+03  0.00000000000E+00 0. -1.
         25    2    1    2    0    0  0.74897805373E+02 -0.11647155593E+03  0.15192522852E+04  0.15306627806E+04  0.12500294949E+03 0.  0.
          2    1    1    2  501    0  0.20596408964E+02  0.14879720980E+03 -0.14719781508E+03  0.21031409480E+03  0.00000000000E+00 0. -1.
          1    1    1    2  502    0 -0.95494214338E+02 -0.32325653873E+02  0.95866188921E+03  0.96394850002E+03  0.00000000000E+00 0. -1.
         22    1    3    3    0    0 -0.16777695555E+02 -0.54194211511E+02  0.88374300661E+03  0.88556208442E+03  0.00000000000E+00 0.  1.
         22    1    3    3    0    0  0.91675500928E+02 -0.62277344415E+02  0.63550927857E+03  0.64510069620E+03  0.00000000000E+00 0.  1.
</event>
<event>
 7    1  0.6253338E-006  0.3099440E+02  0.7818608E-02  0.1637297E+00
          2   -1    0    0  502    0  0.00000000000E+00  0.00000000000E+00  0.11896958791E+04  0.11896958791E+04  0.00000000000E+00 0. -1.
          1   -1    0    0  501    0 -0.00000000000E+00 -0.00000000000E+00 -0.76648335820E+03  0.76648335820E+03  0.00000000000E+00 0. -1.
         25    2    1    2    0    0 -0.20220734857E+02  0.20113239825E+01  0.78478397358E+03  0.79493676187E+03  0.12500258655E+03 0.  0.
          2    1    1    2  501    0 -0.15096694460E+01  0.23007053403E+02 -0.76054534643E+03  0.76089475460E+03  0.00000000000E+00 0. -1.
          1    1    1    2  502    0  0.21730404303E+02 -0.25018377386E+02  0.39897389373E+03  0.40034772081E+03  0.00000000000E+00 0. -1.
         22    1    3    3    0    0  0.25419309893E+02 -0.61836706507E+00  0.32498414106E+02  0.41263429483E+02  0.00000000000E+00 0.  1.
         22    1    3    3    0    0 -0.45640044750E+02  0.26296910476E+01  0.75228555947E+03  0.75367333238E+03  0.00000000000E+00 0.  1.
</event>
<event>
 7    1  0.6253338E-006  0.5602146E+02  0.7818608E-02  0.1515931E+00
          2   -1    0    0  502    0  0.00000000000E+00  0.00000000000E+00  0.10323813086E+04  0.10323813086E+04  0.00000000000E+00 0. -1.
          1   -1    0    0  501    0 -0.00000000000E+00 -0.00000000000E+00 -0.54807106765E+03  0.54807106765E+03  0.00000000000E+00 0. -1.
         25    2    1    2    0    0  0.51203243023E+02 -0.19118603654E+02  0.55448835056E+03  0.57102511571E+03  0.12500023507E+03 0.  0.
          2    1    1    2  501    0 -0.55518063771E+02 -0.76443082782E+01 -0.53795465416E+03  0.54086588059E+03  0.00000000000E+00 0. -1.
          1    1    1    2  502    0  0.43148207479E+01  0.26762911932E+02  0.46777654452E+03  0.46856137991E+03  0.00000000000E+00 0. -1.
         22    1    3    3    0    0  0.78642644587E+01  0.50864758231E+02  0.27023926340E+03  0.27509694612E+03  0.00000000000E+00 0. -1.
         22    1    3    3    0    0  0.43338978564E+02 -0.69983361885E+02  0.28424908716E+03  0.29592816959E+03  0.00000000000E+00 0. -1.
</event>
<event>
 7    1  0.6253338E-006  0.6151933E+02  0.7818608E-02  0.1516513E+00
          2   -1    0    0  502    0  0.00000000000E+00  0.00000000000E+00  0.64188491869E+03  0.64188491869E+03  0.00000000000E+00 0. -1.
          1   -1    0    0  501    0 -0.00000000000E+00 -0.00000000000E+00 -0.10985688985E+04  0.10985688985E+04  0.00000000000E+00 0. -1.
         25    2    1    2    0    0 -0.77963918859E+02  0.20941479246E+02 -0.68158363427E+03  0.69763742287E+03  0.12499922035E+03 0.  0.
          2    1    1    2  501    0  0.23432358432E+02  0.74545017971E+01 -0.40709563943E+03  0.40783759594E+03  0.00000000000E+00 0. -1.
          1    1    1    2  502    0  0.54531560427E+02 -0.28395981043E+02  0.63199529392E+03  0.63497879836E+03  0.00000000000E+00 0. -1.
         22    1    3    3    0    0 -0.72907206155E+02  0.57993621331E+02 -0.29768156054E+03  0.31191831032E+03  0.00000000000E+00 0. -1.
         22    1    3    3    0    0 -0.50567127037E+01 -0.37052142085E+02 -0.38390207373E+03  0.38571911256E+03  0.00000000000E+00 0. -1.
</event>
<event>
 7    1  0.6253338E-006  0.7972330E+02  0.7818608E-02  0.1373605E+00
          2   -1    0    0  502    0  0.00000000000E+00  0.00000000000E+00  0.21832135271E+04  0.21832135271E+04  0.00000000000E+00 0. -1.
          1   -1    0    0  501    0 -0.00000000000E+00 -0.00000000000E+00 -0.61336317000E+03  0.61336317000E+03  0.00000000000E+00 0. -1.
         25    2    1    2    0    0  0.73449726247E+02  0.10316215856E+03 -0.11976525836E+03  0.21448789098E+03  0.12499618003E+03 0.  0.
          2    1    1    2  501    0 -0.57639367039E+02 -0.50557626477E+02 -0.44258697184E+03  0.44917880390E+03  0.00000000000E+00 0. -1.
          1    1    1    2  502    0 -0.15810359208E+02 -0.52604532088E+02  0.21322025873E+04  0.21329100022E+04  0.00000000000E+00 0. -1.
         22    1    3    3    0    0  0.33867991879E+02  0.12400602299E+03 -0.10884628147E+03  0.16844004156E+03  0.00000000000E+00 0.  1.
         22    1    3    3    0    0  0.39581734368E+02 -0.20843864427E+02 -0.10918976892E+02  0.46047849420E+02  0.00000000000E+00 0.  1.
</event>
<event>
 7    1  0.6253338E-006  0.3944209E+02  0.7818608E-02  0.1535295E+00
          2   -1    0    0  502    0  0.00000000000E+00  0.00000000000E+00  0.50008966475E+03  0.50008966475E+03  0.00000000000E+00 0. -1.
          1   -1    0    0  501    0 -0.00000000000E+00 -0.00000000000E+00 -0.13016532336E+03  0.13016532336E+03  0.00000000000E+00 0. -1.
         25    2    1    2    0    0  0.23755824478E+02 -0.57098259356E+01  0.99450364200E+02  0.16159277466E+03  0.12499963430E+03 0.  0.
          2    1    1    2  501    0 -0.10161135222E+02 -0.32299821289E+02 -0.95057667824E+02  0.10090831153E+03  0.00000000000E+00 0. -1.
          1    1    1    2  502    0 -0.13594689256E+02  0.38009647225E+02  0.36553164502E+03  0.36775390190E+03  0.00000000000E+00 0. -1.
         22    1    3    3    0    0 -0.32181918303E+02  0.16932906628E+02  0.94250392051E+02  0.10102245094E+03  0.00000000000E+00 0.  1.
         22    1    3    3    0    0  0.55937742781E+02 -0.22642732564E+02  0.51999721484E+01  0.60570323721E+02  0.00000000000E+00 0.  1.
</event>
<event>
 7    1  0.6253338E-006  0.4428481E+02  0.7818608E-02  0.1493600E+00
          2   -1    0    0  502    0  0.00000000000E+00  0.00000000000E+00  0.15096379160E+04  0.15096379160E+04  0.00000000000E+00 0. -1.
          1   -1    0    0  501    0 -0.00000000000E+00 -0.00000000000E+00 -0.23730925789E+03  0.23730925789E+03  0.00000000000E+00 0. -1.
         25    2    1    2    0    0  0.27283917158E+01 -0.46873848179E+01  0.56994422844E+03  0.58351599542E+03  0.12500031073E+03 0.  0.
          2    1    1    2  501    0  0.14508582755E+01  0.44408731293E+02 -0.22794986632E+03  0.23223992327E+03  0.00000000000E+00 0. -1.
          1    1    1    2  502    0 -0.41792499912E+01 -0.39721346475E+02  0.93033429597E+03  0.93119125519E+03  0.00000000000E+00 0. -1.
         22    1    3    3    0    0  0.11164927477E+02  0.56119308124E+02  0.36879892275E+03  0.37321130445E+03  0.00000000000E+00 0.  1.
         22    1    3    3    0    0 -0.84365357614E+01 -0.60806692942E+02  0.20114530569E+03  0.21030469097E+03  0.00000000000E+00 0.  1.
</event>
<event>
 7    1  0.6253338E-006  0.7691556E+02  0.7818608E-02  0.1344301E+00
          2   -1    0    0  502    0  0.00000000000E+00  0.00000000000E+00  0.43305309725E+03  0.43305309725E+03  0.00000000000E+00 0. -1.
          1   -1    0    0  501    0 -0.00000000000E+00 -0.00000000000E+00 -0.63812348201E+02  0.63812348201E+02  0.00000000000E+00 0. -1.
         25    2    1    2    0    0 -0.47715704075E+01  0.20859940453E+02  0.95980675925E+02  0.15904535550E+03  0.12500091982E+03 0.  0.
          2    1    1    2  501    0 -0.75549805556E+02  0.14430168433E+02  0.36125446180E+02  0.84976765896E+02  0.00000000000E+00 0. -1.
          1    1    1    2  502    0  0.80321375963E+02 -0.35290108887E+02  0.23713462695E+03  0.25284332405E+03  0.00000000000E+00 0. -1.
         22    1    3    3    0    0  0.51542239573E+02  0.36544408279E+02  0.27227704977E+02  0.68800030196E+02  0.00000000000E+00 0. -1.
         22    1    3    3    0    0 -0.56313809981E+02 -0.15684467825E+02  0.68752970948E+02  0.90245325307E+02  0.00000000000E+00 0. -1.
</event>
<event>
 7    1  0.6253338E-006  0.3065686E+02  0.7818608E-02  0.1600396E+00
          2   -1    0    0  502    0  0.00000000000E+00  0.00000000000E+00  0.25777015075E+02  0.25777015075E+02  0.00000000000E+00 0. -1.
          1   -1    0    0  501    0 -0.00000000000E+00 -0.00000000000E+00 -0.13113203576E+04  0.13113203576E+04  0.00000000000E+00 0. -1.
         25    2    1    2    0    0  0.56897136457E+01  0.23109867533E-01 -0.20072584633E+03  0.23653082820E+03  0.12499437559E+03 0.  0.
          2    1    1    2  501    0  0.11725643526E+02 -0.28325823855E+02 -0.10563903137E+04  0.10568350571E+04  0.00000000000E+00 0. -1.
          1    1    1    2  502    0 -0.17415357172E+02  0.28302713988E+02 -0.28427182495E+02  0.43731487388E+02  0.00000000000E+00 0. -1.
         22    1    3    3    0    0  0.64258250628E+02 -0.53357544702E+01 -0.12498007799E+03  0.14063290136E+03  0.00000000000E+00 0.  1.
         22    1    3    3    0    0 -0.58568536983E+02  0.53588643378E+01 -0.75745768339E+02  0.95897926841E+02  0.00000000000E+00 0.  1.
</event>
<event>
 7    1  0.6253338E-006  0.5618061E+02  0.7818608E-02  0.1477505E+00
          2   -1    0    0  502    0  0.00000000000E+00  0.00000000000E+00  0.28207640221E+03  0.28207640221E+03  0.00000000000E+00 0. -1.
          1   -1    0    0  501    0 -0.00000000000E+00 -0.00000000000E+00 -0.10774237875E+04  0.10774237875E+04  0.00000000000E+00 0. -1.
         25    2    1    2    0    0 -0.50132208708E+02  0.34805508024E+02 -0.27324141158E+03  0.30660821905E+03  0.12499227675E+03 0.  0.
          2    1    1    2  501    0  0.56505735173E+02 -0.14317754532E+00 -0.78530928286E+03  0.78733956357E+03  0.00000000000E+00 0. -1.
          1    1    1    2  502    0 -0.63735264647E+01 -0.34662330478E+02  0.26320330913E+03  0.26555240713E+03  0.00000000000E+00 0. -1.
         22    1    3    3    0    0 -0.73497652094E+02 -0.25535960345E-01 -0.79049538291E+02  0.10793857058E+03  0.00000000000E+00 0.  1.
         22    1    3    3    0    0  0.23365443386E+02  0.34831043984E+02 -0.19419187329E+03  0.19866964847E+03  0.00000000000E+00 0.  1.
</event>
<event>
 7    1  0.6253338E-006  0.2938313E+02  0.7818608E-02  0.1617844E+00
          2   -1    0    0  502    0  0.00000000000E+00  0.00000000000E+00  0.23465328947E+04  0.23465328947E+04  0.00000000000E+00 0. -1.
          1   -1    0    0  501    0 -0.00000000000E+00 -0.00000000000E+00 -0.24788964299E+02  0.24788964299E+02  0.00000000000E+00 0. -1.
         25    2    1    2    0    0 -0.49731243045E+02 -0.41026334058E+01  0.99943012707E+03  0.10084523528E+04  0.12500216319E+03 0.  0.
          2    1    1    2  501    0  0.24904398357E+02  0.15287608054E+02 -0.95379423661E+01  0.30739426835E+02  0.00000000000E+00 0. -1.
          1    1    1    2  502    0  0.24826844687E+02 -0.11184974648E+02  0.13318517457E+04  0.13321300794E+04  0.00000000000E+00 0. -1.
         22    1    3    3    0    0 -0.74249585263E+02 -0.18782876895E+02  0.34501510338E+03  0.35341366547E+03  0.00000000000E+00 0. -1.
         22    1    3    3    0    0  0.24518342218E+02  0.14680243489E+02  0.65441502368E+03  0.65503868731E+03  0.00000000000E+00 0. -1.
</event>
<event>
 7    1  0.6253338E-006  0.6751724E+02  0.7818608E-02  0.1489576E+00
          2   -1    0    0  502    0  0.00000000000E+00  0.00000000000E+00  0.25257669874E+03  0.25257669874E+03  0.00000000000E+00 0. -1.
          1   -1    0    0  501    0 -0.00000000000E+00 -0.00000000000E+00 -0.69274508913E+03  0.69274508913E+03  0.00000000000E+00 0. -1.
         25    2    1    2    0    0  0.77210087938E+02 -0.41523318406E+02 -0.23090927413E+03  0.27682205145E+03  0.12500308651E+03 0.  0.
          2    1    1    2  501    0 -0.50274786717E+02  0.42037926804E+02 -0.43562982567E+03  0.44053159533E+03  0.00000000000E+00 0. -1.
          1    1    1    2  502    0 -0.26935301221E+02 -0.51460839810E+00  0.22637070942E+03  0.22796814110E+03  0.00000000000E+00 0. -1.
         22    1    3    3    0    0  0.61937551974E+01 -0.19860400747E+02  0.11169888923E+02  0.23612804573E+02  0.00000000000E+00 0.  1.
         22    1    3    3    0    0  0.71016332740E+02 -0.21662917659E+02 -0.24207916306E+03  0.25320924687E+03  0.00000000000E+00 0.  1.
</event>
<event>
 7    1  0.6253338E-006  0.1444567E+03  0.7818608E-02  0.1342395E+00
          2   -1    0    0  502    0  0.00000000000E+00  0.00000000000E+00  0.17717965228E+04  0.17717965228E+04  0.00000000000E+00 0. -1.
          1   -1    0    0  501    0 -0.00000000000E+00 -0.00000000000E+00 -0.22642589300E+03  0.22642589300E+03  0.00000000000E+00 0. -1.
         25    2    1    2    0    0  0.17167235512E+03  0.73694381670E+01  0.51845658994E+03  0.56031106215E+03  0.12500217832E+03 0.  0.
          2    1    1    2  501    0 -0.34606419060E+02  0.18913430389E+02 -0.19961201297E+03  0.20347058218E+03  0.00000000000E+00 0. -1.
          1    1    1    2  502    0 -0.13706593606E+03 -0.26282868557E+02  0.12265260528E+04  0.12344407714E+04  0.00000000000E+00 0. -1.
         22    1    3    3    0    0  0.55725462094E+02 -0.43179134687E+02  0.94564939955E+02  0.11795038222E+03  0.00000000000E+00 0.  1.
         22    1    3    3    0    0  0.11594689303E+03  0.50548572854E+02  0.42389164998E+03  0.44236067993E+03  0.00000000000E+00 0.  1.
</event>
<event>
 7    1  0.6253338E-006  0.5443877E+02  0.7818608E-02  0.1496958E+00
          2   -1    0    0  502    0  0.00000000000E+00  0.00000000000E+00  0.11287943479E+03  0.11287943479E+03  0.00000000000E+00 0. -1.
          1   -1    0    0  501    0 -0.00000000000E+00 -0.00000000000E+00 -0.70431904749E+03  0.70431904749E+03  0.00000000000E+00 0. -1.
         25    2    1    2    0    0 -0.23792662991E+02 -0.92072687300E+01 -0.15386448476E+03  0.19987515530E+03  0.12499973369E+03 0.  0.
          2    1    1    2  501    0  0.55533936796E+02  0.96986072774E+01 -0.52308342018E+03  0.52611248377E+03  0.00000000000E+00 0. -1.
          1    1    1    2  502    0 -0.31741273804E+02 -0.49133854740E+00  0.85508292248E+02  0.91210843212E+02  0.00000000000E+00 0. -1.
         22    1    3    3    0    0 -0.14631344260E+02  0.24077332562E+02  0.11877778858E+02  0.30575738892E+02  0.00000000000E+00 0.  1.
         22    1    3    3    0    0 -0.91613187314E+01 -0.33284601292E+02 -0.16574226362E+03  0.16929941640E+03  0.00000000000E+00 0.  1.
</event>
<event>
 7    1  0.6253338E-006  0.5618236E+02  0.7818608E-02  0.1523837E+00
          2   -1    0    0  502    0  0.00000000000E+00  0.00000000000E+00  0.30710965640E+03  0.30710965640E+03  0.00000000000E+00 0. -1.
          1   -1    0    0  501    0 -0.00000000000E+00 -0.00000000000E+00 -0.70931289205E+03  0.70931289205E+03  0.00000000000E+00 0. -1.
         25    2    1    2    0    0 -0.30116044594E+02  0.71315093164E+02  0.11465604328E+03  0.18644917894E+03  0.12499787763E+03 0.  0.
          2    1    1    2  501    0  0.23223383127E+01 -0.25533423001E+02 -0.66858289380E+03  0.66907431189E+03  0.00000000000E+00 0. -1.
          1    1    1    2  502    0  0.27793706282E+02 -0.45781670163E+02  0.15172361487E+03  0.16089905762E+03  0.00000000000E+00 0. -1.
         22    1    3    3    0    0  0.31004010154E+02  0.78779654527E+02  0.75830717984E+02  0.11365641382E+03  0.00000000000E+00 0.  1.
         22    1    3    3    0    0 -0.61120054748E+02 -0.74645613632E+01  0.38825325296E+02  0.72792765115E+02  0.00000000000E+00 0.  1.
</event>
<event>
 7    1  0.6253338E-006  0.7588664E+02  0.7818608E-02  0.1456932E+00
          2   -1    0    0  502    0  0.00000000000E+00  0.00000000000E+00  0.55252098027E+03  0.55252098027E+03  0.00000000000E+00 0. -1.
          1   -1    0    0  501    0 -0.00000000000E+00 -0.00000000000E+00 -0.15559101948E+03  0.15559101948E+03  0.00000000000E+00 0. -1.
         25    2    1    2    0    0  0.22765005284E+02  0.97321251377E+02  0.95840805408E+01  0.16033242667E+03  0.12499984402E+03 0.  0.
          2    1    1    2  501    0 -0.77965630446E+01 -0.71032299647E+02 -0.63694722833E+02  0.95725606319E+02  0.00000000000E+00 0. -1.
          1    1    1    2  502    0 -0.14968442239E+02 -0.26288951730E+02  0.45104060308E+03  0.45205396677E+03  0.00000000000E+00 0. -1.
         22    1    3    3    0    0  0.16526622971E+02 -0.51926165134E+01  0.47727858674E+02  0.50774413111E+02  0.00000000000E+00 0. -1.
         22    1    3    3    0    0  0.62383823127E+01  0.10251386789E+03 -0.38143778134E+02  0.10955801355E+03  0.00000000000E+00 0. -1.
</event>
<event>
 7    1  0.6253338E-006  0.3361940E+02  0.7818608E-02  0.1599776E+00
          2   -1    0    0  502    0  0.00000000000E+00  0.00000000000E+00  0.27793491097E+03  0.27793491097E+03  0.00000000000E+00 0. -1.
          1   -1    0    0  501    0 -0.00000000000E+00 -0.00000000000E+00 -0.19046660151E+04  0.19046660151E+04  0.00000000000E+00 0. -1.
         25    2    1    2    0    0 -0.43204659925E+02  0.41142165347E+02 -0.26769349344E+03  0.30140530106E+03  0.12500411460E+03 0.  0.
          2    1    1    2  501    0  0.25746589060E+02 -0.21206346658E+02 -0.16192719973E+04  0.16196155091E+04  0.00000000000E+00 0. -1.
          1    1    1    2  502    0  0.17458070865E+02 -0.19935818689E+02  0.26023438658E+03  0.26158011596E+03  0.00000000000E+00 0. -1.
         22    1    3    3    0    0 -0.10305205874E+02 -0.24416405366E+02 -0.19949857099E+03  0.20125118123E+03  0.00000000000E+00 0. -1.
         22    1    3    3    0    0 -0.32899454051E+02  0.65558570713E+02 -0.68194922450E+02  0.10015411983E+03  0.00000000000E+00 0. -1.
</event>
<event>
 7    1  0.6253338E-006  0.7301433E+02  0.7818608E-02  0.1402442E+00
          2   -1    0    0  502    0  0.00000000000E+00  0.00000000000E+00  0.17410869710E+03  0.17410869710E+03  0.00000000000E+00 0. -1.
          1   -1    0    0  501    0 -0.00000000000E+00 -0.00000000000E+00 -0.15370436981E+04  0.15370436981E+04  0.00000000000E+00 0. -1.
         25    2    1    2    0    0  0.41536766618E+02 -0.69129479906E+00  0.40769960909E+02  0.13789023297E+03  0.12500298303E+03 0.  0.
          2    1    1    2  501    0  0.45256415686E+02 -0.14552072294E+02 -0.14650943252E+04  0.14658653716E+04  0.00000000000E+00 0. -1.
          1    1    1    2  502    0 -0.86793182304E+02  0.15243367093E+02  0.61389363213E+02  0.10739679069E+03  0.00000000000E+00 0. -1.
         22    1    3    3    0    0 -0.24801074318E+02 -0.32786626166E+02 -0.16764111318E+02  0.44396977047E+02  0.00000000000E+00 0.  1.
         22    1    3    3    0    0  0.66337840937E+02  0.32095331367E+02  0.57534072227E+02  0.93493255921E+02  0.00000000000E+00 0.  1.
</event>
<event>
 7    1  0.6253338E-006  0.9119578E+02  0.7818608E-02  0.1455854E+00
          2   -1    0    0  502    0  0.00000000000E+00  0.00000000000E+00  0.13394665197E+03  0.13394665197E+03  0.00000000000E+00 0. -1.
          1   -1    0    0  501    0 -0.00000000000E+00 -0.00000000000E+00 -0.87904089703E+03  0.87904089703E+03  0.00000000000E+00 0. -1.
         25    2    1    2    0    0 -0.95872090345E+02 -0.30502649858E+02 -0.65282056091E+03  0.67225083391E+03  0.12499851839E+03 0.  0.
          2    1    1    2  501    0  0.18464151828E+02 -0.17401981305E+02 -0.19891429568E+03  0.20052593568E+03  0.00000000000E+00 0. -1.
          1    1    1    2  502    0  0.77407938516E+02  0.47904631163E+02  0.10664061153E+03  0.14021077940E+03  0.00000000000E+00 0. -1.
         22    1    3    3    0    0 -0.40130875177E+02 -0.35047038718E+02 -0.56897902406E+03  0.57146820724E+03  0.00000000000E+00 0. -1.
         22    1    3    3    0    0 -0.55741215168E+02  0.45443888598E+01 -0.83841536843E+02  0.10078262667E+03  0.00000000000E+00 0. -1.
</event>
<event>
 7    1  0.6253338E-006  0.5747780E+02  0.7818608E-02  0.1438924E+00
          2   -1    0    0  502    0  0.00000000000E+00  0.00000000000E+00  0.11436494091E+03  0.11436494091E+03  0.00000000000E+00 0. -1.
          1   -1    0    0  501    0 -0.00000000000E+00 -0.00000000000E+00 -0.34778126444E+03  0.34778126444E+03  0.00000000000E+00 0. -1.
         25    2    1    2    0    0 -0.75758566507E+01  0.64301619698E+01 -0.18166184040E+03  0.22073487437E+03  0.12499647963E+03 0.  0.
          2    1    1    2  501    0 -0.22999018976E+02 -0.55101250068E+02 -0.13073824602E+03  0.14372749078E+03  0.00000000000E+00 0. -1.
          1    1    1    2  502    0  0.30574875627E+02  0.48671088098E+02  0.78983762883E+02  0.97683840196E+02  0.00000000000E+00 0. -1.
         22    1    3    3    0    0  0.24011267862E+02 -0.52945011330E+02 -0.84683860787E+02  0.10271840870E+03  0.00000000000E+00 0. -1.
         22    1    3    3    0    0 -0.31587124512E+02  0.59375173300E+02 -0.96977979614E+02  0.11801646567E+03  0.00000000000E+00 0. -1.
</event>
<event>
 7    1  0.6253338E-006  0.8918197E+02  0.7818608E-02  0.1324018E+00
          2   -1    0    0  502    0  0.00000000000E+00  0.00000000000E+00  0.16113609330E+04  0.16113609330E+04  0.00000000000E+00 0. -1.
          1   -1    0    0  501    0 -0.00000000000E+00 -0.00000000000E+00 -0.78907392359E+02  0.78907392359E+02  0.00000000000E+00 0. -1.
         25    2    1    2    0    0 -0.19142681840E+02 -0.10008765060E+03  0.14404351615E+03  0.21623595056E+03  0.12500188679E+03 0.  0.
          2    1    1    2  501    0 -0.51980058221E+02  0.76189862189E+02  0.90968004280E+01  0.92679951074E+02  0.00000000000E+00 0. -1.
          1    1    1    2  502    0  0.71122740061E+02  0.23897788411E+02  0.13793132241E+04  0.13813524237E+04  0.00000000000E+00 0. -1.
         22    1    3    3    0    0  0.35219871230E+02 -0.35057657424E+02  0.11724380060E+03  0.12734043919E+03  0.00000000000E+00 0. -1.
         22    1    3    3    0    0 -0.54362553069E+02 -0.65029993176E+02  0.26799715545E+02  0.88895511372E+02  0.00000000000E+00 0. -1.
</event>
<event>
 7    1  0.6253338E-006  0.4891530E+02  0.7818608E-02  0.1536575E+00
          2   -1    0    0  502    0  0.00000000000E+00  0.00000000000E+00  0.10669862080E+04  0.10669862080E+04  0.00000000000E+00 0. -1.
          1   -1    0    0  501    0 -0.00000000000E+00 -0.00000000000E+00 -0.32876909204E+02  0.32876909204E+02  0.00000000000E+00 0. -1.
         25    2    1    2    0    0  0.30559840791E+02 -0.45988446191E+02  0.66041746045E+03  0.67441448209E+03  0.12503931593E+03 0.  0.
          2    1    1    2  501    0 -0.26942723189E+02 -0.26732322844E+01 -0.16836919094E+02  0.31883198526E+02  0.00000000000E+00 0. -1.
          1    1    1    2  502    0 -0.36171176023E+01  0.48661678475E+02  0.39052875745E+03  0.39356543660E+03  0.00000000000E+00 0. -1.
         22    1    3    3    0    0  0.74542401358E+02 -0.53909178609E+02  0.44713933074E+03  0.45650449093E+03  0.00000000000E+00 0.  1.
         22    1    3    3    0    0 -0.43982560567E+02  0.79207324177E+01  0.21327812971E+03  0.21790999117E+03  0.00000000000E+00 0.  1.
</event>
<event>
 7    1  0.6253338E-006  0.3163375E+02  0.7818608E-02  0.1629702E+00
          2   -1    0    0  502    0  0.00000000000E+00  0.00000000000E+00  0.68903980851E+03  0.68903980851E+03  0.00000000000E+00 0. -1.
          1   -1    0    0  501    0 -0.00000000000E+00 -0.00000000000E+00 -0.43340441935E+03  0.43340441935E+03  0.00000000000E+00 0. -1.
         25    2    1    2    0    0 -0.13705342836E+02  0.37233512167E+01 -0.13281260840E+03  0.18293950044E+03  0.12500388836E+03 0.  0.
          2    1    1    2  501    0 -0.14089676975E+02 -0.18934429097E+02 -0.27464395748E+03  0.27565618982E+03  0.00000000000E+00 0. -1.
          1    1    1    2  502    0  0.27795019812E+02  0.15211077880E+02  0.66309195505E+03  0.66384853760E+03  0.00000000000E+00 0. -1.
         22    1    3    3    0    0 -0.60516027975E+02  0.90617302001E+00 -0.25212729529E+02  0.65564415056E+02  0.00000000000E+00 0.  1.
         22    1    3    3    0    0  0.46810685138E+02  0.28171781966E+01 -0.10759987887E+03  0.11737508539E+03  0.00000000000E+00 0.  1.
</event>
<event>
 7    1  0.6253338E-006  0.8570509E+02  0.7818608E-02  0.1467200E+00
          2   -1    0    0  502    0  0.00000000000E+00  0.00000000000E+00  0.22654882319E+04  0.22654882319E+04  0.00000000000E+00 0. -1.
          1   -1    0    0  501    0 -0.00000000000E+00 -0.00000000000E+00 -0.12936612640E+03  0.12936612640E+03  0.00000000000E+00 0. -1.
         25    2    1    2    0    0  0.34263985109E+02 -0.57219132454E+02  0.44965479974E+03  0.47144702431E+03  0.12499923205E+03 0.  0.
          2    1    1    2  501    0 -0.28767731300E+02  0.81470351138E+02 -0.10261918599E+03  0.13414804439E+03  0.00000000000E+00 0. -1.
          1    1    1    2  502    0 -0.54962538088E+01 -0.24251218685E+02  0.17890864917E+04  0.17892592896E+04  0.00000000000E+00 0. -1.
         22    1    3    3    0    0 -0.39355529137E+02 -0.17194646691E+02  0.65968951889E+02  0.78717318055E+02  0.00000000000E+00 0.  1.
         22    1    3    3    0    0  0.73619514246E+02 -0.40024485762E+02  0.38368584785E+03  0.39272970626E+03  0.00000000000E+00 0.  1.
</event>
<event>
 7    1  0.6253338E-006  0.6759398E+02  0.7818608E-02  0.1440629E+00
          2   -1    0    0  502    0  0.00000000000E+00  0.00000000000E+00  0.64233999922E+03  0.64233999922E+03  0.00000000000E+00 0. -1.
          1   -1    0    0  501    0 -0.00000000000E+00 -0.00000000000E+00 -0.20973017406E+03  0.20973017406E+03  0.00000000000E+00 0. -1.
         25    2    1    2    0    0 -0.15088465992E+02 -0.90855935531E+02 -0.20545127580E+02  0.15661993092E+03  0.12500095067E+03 0.  0.
          2    1    1    2  501    0 -0.12136239634E+02  0.63909037708E+02 -0.11171955124E+03  0.12927842643E+03  0.00000000000E+00 0. -1.
          1    1    1    2  502    0  0.27224705626E+02  0.26946897823E+02  0.56487450398E+03  0.56617181592E+03  0.00000000000E+00 0. -1.
         22    1    3    3    0    0  0.52831804798E+02 -0.39613627950E+02 -0.26896616688E+02  0.71301241973E+02  0.00000000000E+00 0. -1.
         22    1    3    3    0    0 -0.67920270790E+02 -0.51242307582E+02  0.63514891076E+01  0.85318688951E+02  0.00000000000E+00 0. -1.
</event>
<event>
 7    1  0.6253338E-006  0.9178426E+02  0.7818608E-02  0.1364490E+00
          2   -1    0    0  502    0  0.00000000000E+00  0.00000000000E+00  0.56178845895E+03  0.56178845895E+03  0.00000000000E+00 0. -1.
          1   -1    0    0  501    0 -0.00000000000E+00 -0.00000000000E+00 -0.77230924895E+02  0.77230924895E+02  0.00000000000E+00 0. -1.
         25    2    1    2    0    0  0.93824557385E+02  0.83092698613E+02  0.84961018251E+02  0.19634510263E+03  0.12500232227E+03 0.  0.
          2    1    1    2  501    0 -0.61111904456E+02 -0.43373509762E+02  0.51818611918E+02  0.91110343849E+02  0.00000000000E+00 0. -1.
          1    1    1    2  502    0 -0.32712652929E+02 -0.39719188851E+02  0.34777790389E+03  0.35156393737E+03  0.00000000000E+00 0. -1.
         22    1    3    3    0    0  0.21617492869E+02  0.94856388514E+02  0.74295510511E+02  0.12241271716E+03  0.00000000000E+00 0. -1.
         22    1    3    3    0    0  0.72207064516E+02 -0.11763689901E+02  0.10665507740E+02  0.73932385471E+02  0.00000000000E+00 0. -1.
</event>
<event>
 7    1  0.6253338E-006  0.5678969E+02  0.7818608E-02  0.1434746E+00
          2   -1    0    0  502    0  0.00000000000E+00  0.00000000000E+00  0.17491958892E+03  0.17491958892E+03  0.00000000000E+00 0. -1.
          1   -1    0    0  501    0 -0.00000000000E+00 -0.00000000000E+00 -0.62983246001E+03  0.62983246001E+03  0.00000000000E+00 0. -1.
         25    2    1    2    0    0  0.13714122199E+02 -0.10058369850E+03 -0.40470397973E+03  0.43556308375E+03  0.12499892467E+03 0.  0.
          2    1    1    2  501    0 -0.17244477238E+02  0.44419239308E+02 -0.20187334646E+03  0.20742056028E+03  0.00000000000E+00 0. -1.
          1    1    1    2  502    0  0.35303550398E+01  0.56164459189E+02  0.15166445510E+03  0.16176840490E+03  0.00000000000E+00 0. -1.
         22    1    3    3    0    0  0.16944655060E+02 -0.49499875547E+02 -0.37009511588E+03  0.37377500427E+03  0.00000000000E+00 0. -1.
         22    1    3    3    0    0 -0.32305328617E+01 -0.51083822951E+02 -0.34608863844E+02  0.61788079485E+02  0.00000000000E+00 0. -1.
</event>
<event>
 7    1  0.6253338E-006  0.7356620E+02  0.7818608E-02  0.1350726E+00
          2   -1    0    0  502    0  0.00000000000E+00  0.00000000000E+00  0.32957383169E+04  0.32957383169E+04  0.00000000000E+00 0. -1.
          1   -1    0    0  501    0 -0.00000000000E+00 -0.00000000000E+00 -0.36705067576E+02  0.36705067576E+02  0.00000000000E+00 0. -1.
         25    2    1    2    0    0  0.25827999160E+02 -0.68530932141E+02  0.99983934813E+03  0.10102810495E+04  0.12500201070E+03 0.  0.
          2    1    1    2  501    0  0.45715236283E+02  0.59582114527E+02  0.14717145230E+02  0.76527809087E+02  0.00000000000E+00 0. -1.
          1    1    1    2  502    0 -0.71543235443E+02  0.89488176136E+01  0.22444767559E+04  0.22456345259E+04  0.00000000000E+00 0. -1.
         22    1    3    3    0    0  0.10307752974E+02 -0.30730561718E+02  0.92019660017E+03  0.92076728882E+03  0.00000000000E+00 0. -1.
         22    1    3    3    0    0  0.15520246186E+02 -0.37800370423E+02  0.79642747956E+02  0.89513760662E+02  0.00000000000E+00 0. -1.
</event>
<event>
 7    1  0.6253338E-006  0.1088143E+03  0.7818608E-02  0.1323991E+00
          2   -1    0    0  502    0  0.00000000000E+00  0.00000000000E+00  0.67195532332E+03  0.67195532332E+03  0.00000000000E+00 0. -1.
          1   -1    0    0  501    0 -0.00000000000E+00 -0.00000000000E+00 -0.42840720759E+03  0.42840720759E+03  0.00000000000E+00 0. -1.
         25    2    1    2    0    0 -0.39677834760E+00 -0.13793343266E+03  0.44492095400E+02  0.19139135916E+03  0.12500126611E+03 0.  0.
          2    1    1    2  501    0  0.46414077210E+02  0.97121710960E+02 -0.34502395877E+03  0.36142554617E+03  0.00000000000E+00 0. -1.
          1    1    1    2  502    0 -0.46017298862E+02  0.40811721705E+02  0.54407997910E+03  0.54754562557E+03  0.00000000000E+00 0. -1.
         22    1    3    3    0    0 -0.60605478140E+02 -0.92619884166E+02  0.23287636606E+02  0.11310959704E+03  0.00000000000E+00 0.  1.
         22    1    3    3    0    0  0.60208699793E+02 -0.45313548499E+02  0.21204458794E+02  0.78281762123E+02  0.00000000000E+00 0.  1.
</event>
<event>
 7    1  0.6253338E-006  0.6247984E+02  0.7818608E-02  0.1503380E+00
          2   -1    0    0  502    0  0.00000000000E+00  0.00000000000E+00  0.39480622857E+03  0.39480622857E+03  0.00000000000E+00 0. -1.
          1   -1    0    0  501    0 -0.00000000000E+00 -0.00000000000E+00 -0.12716744879E+03  0.12716744879E+03  0.00000000000E+00 0. -1.
         25    2    1    2    0    0  0.45279716182E+01  0.79142195050E+02  0.20535151136E+03  0.25313724973E+03  0.12500093766E+03 0.  0.
          2    1    1    2  501    0 -0.15972068352E+02 -0.21102829982E+02 -0.96144495667E+02  0.99720611950E+02  0.00000000000E+00 0. -1.
          1    1    1    2  502    0  0.11444096734E+02 -0.58039365068E+02  0.15843176408E+03  0.16911581569E+03  0.00000000000E+00 0. -1.
         22    1    3    3    0    0 -0.15694850234E+02  0.19474544621E+02 -0.11347661670E+02  0.27465535448E+02  0.00000000000E+00 0.  1.
         22    1    3    3    0    0  0.20222821853E+02  0.59667650429E+02  0.21669917303E+03  0.22567171428E+03  0.00000000000E+00 0.  1.
</event>
<event>
 7    1  0.6253338E-006  0.1167957E+03  0.7818608E-02  0.1338163E+00
          2   -1    0    0  502    0  0.00000000000E+00  0.00000000000E+00  0.78326678799E+03  0.78326678799E+03  0.00000000000E+00 0. -1.
          1   -1    0    0  501    0 -0.00000000000E+00 -0.00000000000E+00 -0.10795283445E+03  0.10795283445E+03  0.00000000000E+00 0. -1.
         25    2    1    2    0    0  0.85884802575E+01  0.16057490974E+03  0.41770156850E+03  0.46472597987E+03  0.12505027953E+03 0.  0.
          2    1    1    2  501    0  0.79181600658E+01 -0.11274484204E+03 -0.43540837307E+02  0.12111936748E+03  0.00000000000E+00 0. -1.
          1    1    1    2  502    0 -0.16506640323E+02 -0.47830067697E+02  0.30115322235E+03  0.30537427509E+03  0.00000000000E+00 0. -1.
         22    1    3    3    0    0 -0.37621226857E+02  0.25878705718E+02  0.38704193970E+02  0.59858823500E+02  0.00000000000E+00 0. -1.
         22    1    3    3    0    0  0.46209707115E+02  0.13469620402E+03  0.37899737453E+03  0.40486715637E+03  0.00000000000E+00 0. -1.
</event>
<event>
 7    1  0.6253338E-006  0.8087854E+02  0.7818608E-02  0.1348771E+00
          2   -1    0    0  502    0  0.00000000000E+00  0.00000000000E+00  0.15527439685E+04  0.15527439685E+04  0.00000000000E+00 0. -1.
          1   -1    0    0  501    0 -0.00000000000E+00 -0.00000000000E+00 -0.44366499458E+03  0.44366499458E+03  0.00000000000E+00 0. -1.
         25    2    1    2    0    0  0.25766836340E+02 -0.68957300397E+01  0.68652559933E+03  0.69832305164E+03  0.12500481981E+03 0.  0.
          2    1    1    2  501    0 -0.67587454983E+02 -0.45046938737E+02 -0.43268952235E+03  0.44024710506E+03  0.00000000000E+00 0. -1.
          1    1    1    2  502    0  0.41820618644E+02  0.51942668776E+02  0.85524289698E+03  0.85783880643E+03  0.00000000000E+00 0. -1.
         22    1    3    3    0    0  0.64285722512E+02 -0.27989017967E+02  0.25163244315E+03  0.26121815728E+03  0.00000000000E+00 0. -1.
         22    1    3    3    0    0 -0.38518886172E+02  0.21093287927E+02  0.43489315617E+03  0.43710489436E+03  0.00000000000E+00 0. -1.
</event>
<event>
 7    1  0.6253338E-006  0.2594991E+02  0.7818608E-02  0.1691395E+00
          2   -1    0    0  502    0  0.00000000000E+00  0.00000000000E+00  0.11056192114E+04  0.11056192114E+04  0.00000000000E+00 0. -1.
          1   -1    0    0  501    0 -0.00000000000E+00 -0.00000000000E+00 -0.59670720470E+02  0.59670720470E+02  0.00000000000E+00 0. -1.
         25    2    1    2    0    0 -0.60765619646E+01  0.17252549191E+01  0.24644481265E+03  0.27640438936E+03  0.12499775865E+03 0.  0.
          2    1    1    2  501    0 -0.20079843020E+02 -0.35885240437E+01 -0.42148520047E+02  0.46824943595E+02  0.00000000000E+00 0. -1.
          1    1    1    2  502    0  0.26156404985E+02  0.18632691246E+01  0.84165219829E+03  0.84206059888E+03  0.00000000000E+00 0. -1.
         22    1    3    3    0    0  0.14143945856E+02  0.21886591028E+02  0.24647632942E+03  0.24785006563E+03  0.00000000000E+00 0.  1.
         22    1    3    3    0    0 -0.20220507821E+02 -0.20161336109E+02 -0.31516768568E-01  0.28554323728E+02  0.00000000000E+00 0.  1.
</event>
<event>
 7    1  0.6253338E-006  0.1083534E+03  0.7818608E-02  0.1436469E+00
          2   -1    0    0  502    0  0.00000000000E+00  0.00000000000E+00  0.71349974354E+03  0.71349974354E+03  0.00000000000E+00 0. -1.
          1   -1    0    0  501    0 -0.00000000000E+00 -0.00000000000E+00 -0.12989148767E+04  0.12989148767E+04  0.00000000000E+00 0. -1.
         25    2    1    2    0    0  0.11138522454E+03 -0.45423234139E+02 -0.36333272557E+03  0.40262145754E+03  0.12499372047E+03 0.  0.
          2    1    1    2  501    0 -0.20605025197E+02 -0.13533884166E+02 -0.91154842922E+03  0.91188172034E+03  0.00000000000E+00 0. -1.
          1    1    1    2  502    0 -0.90780199344E+02  0.58957118305E+02  0.68946602162E+03  0.69791144235E+03  0.00000000000E+00 0. -1.
         22    1    3    3    0    0  0.10072961947E+03  0.14494821339E+02 -0.28992641383E+03  0.30726841934E+03  0.00000000000E+00 0. -1.
         22    1    3    3    0    0  0.10655605068E+02 -0.59918055478E+02 -0.73406311736E+02  0.95353038201E+02  0.00000000000E+00 0. -1.
</event>
<event>
 7    1  0.6253338E-006  0.1465337E+03  0.7818608E-02  0.1256925E+00
          2   -1    0    0  502    0  0.00000000000E+00  0.00000000000E+00  0.76435904877E+03  0.76435904877E+03  0.00000000000E+00 0. -1.
          1   -1    0    0  501    0 -0.00000000000E+00 -0.00000000000E+00 -0.34424550343E+03  0.34424550343E+03  0.00000000000E+00 0. -1.
         25    2    1    2    0    0  0.66480807346E+02  0.81032893960E+02  0.18267045434E+02  0.16414892559E+03  0.12500062869E+03 0.  0.
          2    1    1    2  501    0 -0.28787298350E+02 -0.15787902035E+03 -0.24450174309E+03  0.29246469186E+03  0.00000000000E+00 0. -1.
          1    1    1    2  502    0 -0.37693508996E+02  0.76846126385E+02  0.64634824300E+03  0.65199093475E+03  0.00000000000E+00 0. -1.
         22    1    3    3    0    0 -0.15944493000E+02 -0.24384229934E+02  0.62265716706E+01  0.29792410465E+02  0.00000000000E+00 0. -1.
         22    1    3    3    0    0  0.82425300347E+02  0.10541712389E+03  0.12040473763E+02  0.13435651512E+03  0.00000000000E+00 0. -1.
</event>
<event>
 7    1  0.6253338E-006  0.1244497E+03  0.7818608E-02  0.1319619E+00
          2   -1    0    0  502    0  0.00000000000E+00  0.00000000000E+00  0.24438107157E+03  0.24438107157E+03  0.00000000000E+00 0. -1.
          1   -1    0    0  501    0 -0.00000000000E+00 -0.00000000000E+00 -0.10694408905E+04  0.10694408905E+04  0.00000000000E+00 0. -1.
         25    2    1    2    0    0  0.11859343466E+03 -0.99651591030E+01 -0.32992794774E+03  0.37234509082E+03  0.12499883526E+03 0.  0.
          2    1    1    2  501    0 -0.19913202498E+01  0.55880708776E+02 -0.69950823099E+03  0.70173954156E+03  0.00000000000E+00 0. -1.
          1    1    1    2  502    0 -0.11660211441E+03 -0.45915549673E+02  0.20437635981E+03  0.23973732967E+03  0.00000000000E+00 0. -1.
         22    1    3    3    0    0  0.11681633716E+03 -0.92056158678E+01 -0.34127658448E+03  0.36083307374E+03  0.00000000000E+00 0.  1.
         22    1    3    3    0    0  0.17770974994E+01 -0.75954323523E+00  0.11348636737E+02  0.11512017079E+02  0.00000000000E+00 0.  1.
</event>
<event>
 7    1  0.6253338E-006  0.4423727E+02  0.7818608E-02  0.1509670E+00
          2   -1    0    0  502    0  0.00000000000E+00  0.00000000000E+00  0.47051230135E+03  0.47051230135E+03  0.00000000000E+00 0. -1.
          1   -1    0    0  501    0 -0.00000000000E+00 -0.00000000000E+00 -0.11036489505E+04  0.11036489505E+04  0.00000000000E+00 0. -1.
         25    2    1    2    0    0  0.64269840038E+02  0.47325572597E+02 -0.43132649916E+03  0.45611186667E+03  0.12500065549E+03 0.  0.
          2    1    1    2  501    0 -0.30215161603E+02 -0.19224084738E+02 -0.65837818261E+03  0.65935146376E+03  0.00000000000E+00 0. -1.
          1    1    1    2  502    0 -0.34054678436E+02 -0.28101487859E+02  0.45656803260E+03  0.45869792144E+03  0.00000000000E+00 0. -1.
         22    1    3    3    0    0  0.44621245263E+02  0.56379239780E+01 -0.34671864572E+02  0.56788906562E+02  0.00000000000E+00 0.  1.
         22    1    3    3    0    0  0.19648594775E+02  0.41687648619E+02 -0.39665463459E+03  0.39932296011E+03  0.00000000000E+00 0.  1.
</event>
<event>
 7    1  0.6253338E-006  0.5128803E+02  0.7818608E-02  0.1554822E+00
          2   -1    0    0  502    0  0.00000000000E+00  0.00000000000E+00  0.62468947147E+03  0.62468947147E+03  0.00000000000E+00 0. -1.
          1   -1    0    0  501    0 -0.00000000000E+00 -0.00000000000E+00 -0.10697991945E+03  0.10697991945E+03  0.00000000000E+00 0. -1.
         25    2    1    2    0    0  0.61105833779E+02  0.41220723527E+02  0.41172314757E+03  0.43654052326E+03  0.12497442631E+03 0.  0.
          2    1    1    2  501    0 -0.43454349877E+02 -0.26551693252E+02 -0.86986211347E+02  0.10079619984E+03  0.00000000000E+00 0. -1.
          1    1    1    2  502    0 -0.17651483902E+02 -0.14669030275E+02  0.19297261580E+03  0.19433266782E+03  0.00000000000E+00 0. -1.
         22    1    3    3    0    0 -0.22134409628E+02 -0.12787090768E+02  0.21190979197E+03  0.21344601592E+03  0.00000000000E+00 0.  1.
         22    1    3    3    0    0  0.83240243407E+02  0.54007814295E+02  0.19981335560E+03  0.22309450734E+03  0.00000000000E+00 0.  1.
</event>
<event>
 7    1  0.6253338E-006  0.2120392E+03  0.7818608E-02  0.1324005E+00
          2   -1    0    0  502    0  0.00000000000E+00  0.00000000000E+00  0.28574962605E+03  0.28574962605E+03  0.00000000000E+00 0. -1.
          1   -1    0    0  501    0 -0.00000000000E+00 -0.00000000000E+00 -0.10660953507E+04  0.10660953507E+04  0.00000000000E+00 0. -1.
         25    2    1    2    0    0 -0.12038170705E+03  0.19033532926E+03 -0.69218583576E+03  0.73855649996E+03  0.12500071781E+03 0.  0.
          2    1    1    2  501    0  0.31527729832E+02  0.14411341644E+01 -0.30724894754E+03  0.30886565102E+03  0.00000000000E+00 0. -1.
          1    1    1    2  502    0  0.88853977219E+02 -0.19177646342E+03  0.21908905868E+03  0.30442282573E+03  0.00000000000E+00 0. -1.
         22    1    3    3    0    0 -0.13826423181E+03  0.15001321979E+03 -0.63077138344E+03  0.66294306096E+03  0.00000000000E+00 0.  1.
         22    1    3    3    0    0  0.17882524764E+02  0.40322109465E+02 -0.61414452320E+02  0.75613439000E+02  0.00000000000E+00 0.  1.
</event>
<event>
 7    1  0.6253338E-006  0.3959407E+02  0.7818608E-02  0.1525900E+00
          2   -1    0    0  502    0  0.00000000000E+00  0.00000000000E+00  0.51894423589E+03  0.51894423589E+03  0.00000000000E+00 0. -1.
          1   -1    0    0  501    0 -0.00000000000E+00 -0.00000000000E+00 -0.75135181688E+02  0.75135181688E+02  0.00000000000E+00 0. -1.
         25    2    1    2    0    0  0.24415840548E+01 -0.13000112512E+02  0.32505605921E+02  0.12983421126E+03  0.12500137495E+03 0.  0.
          2    1    1    2  501    0  0.35901661391E+02  0.22873602157E+02 -0.77981184833E+01  0.43277495516E+02  0.00000000000E+00 0. -1.
          1    1    1    2  502    0 -0.38343245446E+02 -0.98734896453E+01  0.41910156677E+03  0.42096771080E+03  0.00000000000E+00 0. -1.
         22    1    3    3    0    0  0.39934209580E+02  0.35804179683E+02  0.41263661230E+02  0.67671043406E+02  0.00000000000E+00 0. -1.
         22    1    3    3    0    0 -0.37492625525E+02 -0.48804292195E+02 -0.87580553087E+01  0.62163167859E+02  0.00000000000E+00 0. -1.
</event>
<event>
 7    1  0.6253338E-006  0.9527013E+02  0.7818608E-02  0.1320103E+00
          2   -1    0    0  502    0  0.00000000000E+00  0.00000000000E+00  0.23804651358E+04  0.23804651358E+04  0.00000000000E+00 0. -1.
          1   -1    0    0  501    0 -0.00000000000E+00 -0.00000000000E+00 -0.10419210429E+03  0.10419210429E+03  0.00000000000E+00 0. -1.
         25    2    1    2    0    0 -0.32065273227E+00  0.31326042392E+02  0.55689056410E+03  0.57160698875E+03  0.12500410172E+03 0.  0.
          2    1    1    2  501    0 -0.47686687073E+02 -0.85957038104E+02 -0.70957546203E+02  0.12123368297E+03  0.00000000000E+00 0. -1.
          1    1    1    2  502    0  0.48007339805E+02  0.54630995712E+02  0.17903400136E+04  0.17918165684E+04  0.00000000000E+00 0. -1.
         22    1    3    3    0    0  0.54724391893E+02 -0.11818540163E+02  0.18859113981E+03  0.19672583708E+03  0.00000000000E+00 0. -1.
         22    1    3    3    0    0 -0.55045044625E+02  0.43144582555E+02  0.36829942429E+03  0.37488115167E+03  0.00000000000E+00 0. -1.
</event>
<event>
 7    1  0.6253338E-006  0.2175717E+02  0.7818608E-02  0.1728322E+00
          2   -1    0    0  502    0  0.00000000000E+00  0.00000000000E+00  0.12954466134E+02  0.12954466134E+02  0.00000000000E+00 0. -1.
          1   -1    0    0  501    0 -0.00000000000E+00 -0.00000000000E+00 -0.73878016973E+03  0.73878016973E+03  0.00000000000E+00 0. -1.
         25    2    1    2    0    0  0.31070646545E+01 -0.32225432079E+02 -0.57011271431E+03  0.58454594194E+03  0.12496927181E+03 0.  0.
          2    1    1    2  501    0  0.11548345878E+02  0.16382327397E+02 -0.13748686515E+03  0.13894021388E+03  0.00000000000E+00 0. -1.
          1    1    1    2  502    0 -0.14655410533E+02  0.15843104682E+02 -0.18226124133E+02  0.28248480043E+02  0.00000000000E+00 0. -1.
         22    1    3    3    0    0 -0.15030615564E+02 -0.73482096306E+02 -0.45096463213E+03  0.45715931284E+03  0.00000000000E+00 0. -1.
         22    1    3    3    0    0  0.18137680218E+02  0.41256664226E+02 -0.11914808218E+03  0.12738662910E+03  0.00000000000E+00 0. -1.
</event>
<event>
 7    1  0.6253338E-006  0.6329413E+02  0.7818608E-02  0.1388400E+00
          2   -1    0    0  502    0  0.00000000000E+00  0.00000000000E+00  0.14203284697E+03  0.14203284697E+03  0.00000000000E+00 0. -1.
          1   -1    0    0  501    0 -0.00000000000E+00 -0.00000000000E+00 -0.34428772717E+04  0.34428772717E+04  0.00000000000E+00 0. -1.
         25    2    1    2    0    0 -0.75912945338E+02 -0.87278143320E+02 -0.62279189849E+00  0.17031220120E+03  0.12500243373E+03 0.  0.
          2    1    1    2  501    0  0.21253503072E+02  0.59452983413E+02 -0.33405799877E+04  0.33411765925E+04  0.00000000000E+00 0. -1.
          1    1    1    2  502    0  0.54659442266E+02  0.27825159907E+02  0.40358354810E+02  0.73421324938E+02  0.00000000000E+00 0. -1.
         22    1    3    3    0    0 -0.55346730408E+02 -0.85080256711E+02  0.51803059759E+02  0.11395379612E+03  0.00000000000E+00 0.  1.
         22    1    3    3    0    0 -0.20566214930E+02 -0.21978866087E+01 -0.52425851657E+02  0.56358405088E+02  0.00000000000E+00 0.  1.
</event>
<event>
 7    1  0.6253338E-006  0.1643463E+03  0.7818608E-02  0.1228395E+00
          2   -1    0    0  502    0  0.00000000000E+00  0.00000000000E+00  0.22596615951E+03  0.22596615951E+03  0.00000000000E+00 0. -1.
          1   -1    0    0  501    0 -0.00000000000E+00 -0.00000000000E+00 -0.10966617915E+04  0.10966617915E+04  0.00000000000E+00 0. -1.
         25    2    1    2    0    0 -0.13669207347E+03  0.19281827653E+03 -0.20180927023E+03  0.33498544867E+03  0.12499863422E+03 0.  0.
          2    1    1    2  501    0  0.43760068966E+02 -0.15117405583E+03 -0.80354531317E+03  0.81881231617E+03  0.00000000000E+00 0. -1.
          1    1    1    2  502    0  0.92932004502E+02 -0.41644220692E+02  0.13465895140E+03  0.16883018619E+03  0.00000000000E+00 0. -1.
         22    1    3    3    0    0  0.18904138624E+02  0.52115867657E+02 -0.25796933762E+02  0.61146642674E+02  0.00000000000E+00 0.  1.
         22    1    3    3    0    0 -0.15559621209E+03  0.14070240887E+03 -0.17601233647E+03  0.27383880599E+03  0.00000000000E+00 0.  1.
</event>
<event>
 7    1  0.6253338E-006  0.1530625E+03  0.7818608E-02  0.1402905E+00
          2   -1    0    0  502    0  0.00000000000E+00  0.00000000000E+00  0.86074188341E+03  0.86074188341E+03  0.00000000000E+00 0. -1.
          1   -1    0    0  501    0 -0.00000000000E+00 -0.00000000000E+00 -0.13424132712E+03  0.13424132712E+03  0.00000000000E+00 0. -1.
         25    2    1    2    0    0  0.79414125533E+02  0.12967108701E+03  0.18395278911E+03  0.26941569904E+03  0.12499998451E+03 0.  0.
          2    1    1    2  501    0  0.19190004641E+02 -0.11926706924E+02 -0.80634344755E+02  0.83740075055E+02  0.00000000000E+00 0. -1.
          1    1    1    2  502    0 -0.98604130175E+02 -0.11774438008E+03  0.62318211194E+03  0.64182743644E+03  0.00000000000E+00 0. -1.
         22    1    3    3    0    0  0.94172983917E+02  0.42369337424E+02  0.12886824985E+03  0.16513854024E+03  0.00000000000E+00 0.  1.
         22    1    3    3    0    0 -0.14758858384E+02  0.87301749584E+02  0.55084539251E+02  0.10427715879E+03  0.00000000000E+00 0.  1.
</event>
<event>
 7    1  0.6253338E-006  0.1427005E+03  0.7818608E-02  0.1366689E+00
          2   -1    0    0  502    0  0.00000000000E+00  0.00000000000E+00  0.11940048905E+04  0.11940048905E+04  0.00000000000E+00 0. -1.
          1   -1    0    0  501    0 -0.00000000000E+00 -0.00000000000E+00 -0.38136248557E+03  0.38136248557E+03  0.00000000000E+00 0. -1.
         25    2    1    2    0    0  0.13393961824E+03 -0.71789142008E+02 -0.14157950014E+03  0.24240982158E+03  0.12499705794E+03 0.  0.
          2    1    1    2  501    0 -0.13338034314E+03  0.39298468448E+02 -0.16357453402E+03  0.21468887661E+03  0.00000000000E+00 0. -1.
          1    1    1    2  502    0 -0.55927510642E+00  0.32490673560E+02  0.11177964391E+04  0.11182686779E+04  0.00000000000E+00 0. -1.
         22    1    3    3    0    0  0.12158851958E+03 -0.19974496857E+02 -0.14345723514E+03  0.18911035649E+03  0.00000000000E+00 0.  1.
         22    1    3    3    0    0  0.12351098660E+02 -0.51814645151E+02  0.18777349983E+01  0.53299465091E+02  0.00000000000E+00 0.  1.
</event>
<event>
 7    1  0.6253338E-006  0.1816023E+03  0.7818608E-02  0.1180232E+00
          2   -1    0    0  502    0  0.00000000000E+00  0.00000000000E+00  0.26346369791E+04  0.26346369791E+04  0.00000000000E+00 0. -1.
          1   -1    0    0  501    0 -0.00000000000E+00 -0.00000000000E+00 -0.61338539413E+02  0.61338539413E+02  0.00000000000E+00 0. -1.
         25    2    1    2    0    0  0.11547331573E+03  0.91935149851E+02  0.92356303063E+03  0.94359946768E+03  0.12500050177E+03 0.  0.
          2    1    1    2  501    0 -0.74161989122E+02  0.13602117766E+03  0.97728698882E+02  0.18317385182E+03  0.00000000000E+00 0. -1.
          1    1    1    2  502    0 -0.41311326612E+02 -0.22795632751E+03  0.15520067102E+04  0.15692021990E+04  0.00000000000E+00 0. -1.
         22    1    3    3    0    0 -0.45253679283E+01 -0.24834028602E+02  0.95629474867E+02  0.98905027147E+02  0.00000000000E+00 0.  1.
         22    1    3    3    0    0  0.11999868366E+03  0.11676917845E+03  0.82793355576E+03  0.84469444053E+03  0.00000000000E+00 0.  1.
</event>
<event>
 7    1  0.6253338E-006  0.1248680E+03  0.7818608E-02  0.1342787E+00
          2   -1    0    0  502    0  0.00000000000E+00  0.00000000000E+00  0.15627769276E+04  0.15627769276E+04  0.00000000000E+00 0. -1.
          1   -1    0    0  501    0 -0.00000000000E+00 -0.00000000000E+00 -0.86691403979E+03  0.86691403979E+03  0.00000000000E+00 0. -1.
         25    2    1    2    0    0  0.86457153697E+02 -0.14175811354E+03  0.32670129662E+03  0.38720515660E+03  0.12499557555E+03 0.  0.
          2    1    1    2  501    0 -0.26586499815E+02  0.36887813046E+02 -0.83301721307E+03  0.83425729245E+03  0.00000000000E+00 0. -1.
          1    1    1    2  502    0 -0.59870653882E+02  0.10487030050E+03  0.12021788042E+04  0.12082285183E+04  0.00000000000E+00 0. -1.
         22    1    3    3    0    0  0.26207779719E+01 -0.93817887051E+02  0.23893476990E+03  0.25670700940E+03  0.00000000000E+00 0. -1.
         22    1    3    3    0    0  0.83836375725E+02 -0.47940226492E+02  0.87766526716E+02  0.13049814720E+03  0.00000000000E+00 0. -1.
</event>
<event>
 7    1  0.6253338E-006  0.2729530E+03  0.7818608E-02  0.1337624E+00
          2   -1    0    0  502    0  0.00000000000E+00  0.00000000000E+00  0.32465777308E+04  0.32465777308E+04  0.00000000000E+00 0. -1.
          1   -1    0    0  501    0 -0.00000000000E+00 -0.00000000000E+00 -0.12657837555E+04  0.12657837555E+04  0.00000000000E+00 0. -1.
         25    2    1    2    0    0 -0.24585929758E+03  0.12807053748E+03  0.93175756148E+03  0.98012462552E+03  0.12499308545E+03 0.  0.
          2    1    1    2  501    0  0.15191455864E+02  0.15568932982E+02 -0.12334450994E+04  0.12336368936E+04  0.00000000000E+00 0. -1.
          1    1    1    2  502    0  0.23066784171E+03 -0.14363947046E+03  0.22824815132E+04  0.22985999671E+04  0.00000000000E+00 0. -1.
         22    1    3    3    0    0 -0.77346453000E+02 -0.16973150988E+02  0.30448184438E+03  0.31461048171E+03  0.00000000000E+00 0.  1.
         22    1    3    3    0    0 -0.16851284458E+03  0.14504368847E+03  0.62727571710E+03  0.66551414381E+03  0.00000000000E+00 0.  1.
</event>
<event>
 7    1  0.6253338E-006  0.1585499E+03  0.7818608E-02  0.1275866E+00
          2   -1    0    0  502    0  0.00000000000E+00  0.00000000000E+00  0.95016334128E+03  0.95016334128E+03  0.00000000000E+00 0. -1.
          1   -1    0    0  501    0 -0.00000000000E+00 -0.00000000000E+00 -0.17027175277E+04  0.17027175277E+04  0.00000000000E+00 0. -1.
         25    2    1    2    0    0  0.21777662318E+03  0.33689197554E+02  0.11030290556E+03  0.27632022786E+03  0.12499807084E+03 0.  0.
          2    1    1    2  501    0 -0.15225642274E+03 -0.39706178523E+02 -0.16144467813E+04  0.16220964856E+04  0.00000000000E+00 0. -1.
          1    1    1    2  502    0 -0.65520200441E+02  0.60169809693E+01  0.75158968938E+03  0.75446415548E+03  0.00000000000E+00 0. -1.
         22    1    3    3    0    0  0.12897376278E+03 -0.30128380917E+02  0.18883263738E+02  0.13378538213E+03  0.00000000000E+00 0.  1.
         22    1    3    3    0    0  0.88802860403E+02  0.63817578471E+02  0.91419641820E+02  0.14253484573E+03  0.00000000000E+00 0.  1.
</event>
<event>
 7    1  0.6253338E-006  0.1217234E+03  0.7818608E-02  0.1314343E+00
          2   -1    0    0  502    0  0.00000000000E+00  0.00000000000E+00  0.17112920479E+04  0.17112920479E+04  0.00000000000E+00 0. -1.
          1   -1    0    0  501    0 -0.00000000000E+00 -0.00000000000E+00 -0.39067427548E+03  0.39067427548E+03  0.00000000000E+00 0. -1.
         25    2    1    2    0    0 -0.36578608061E+02  0.14051291099E+03  0.43820792307E+02  0.19653724680E+03  0.12499901926E+03 0.  0.
          2    1    1    2  501    0 -0.38987602276E+02 -0.45528892332E+02 -0.30911812280E+03  0.31487605024E+03  0.00000000000E+00 0. -1.
          1    1    1    2  502    0  0.75566210337E+02 -0.94984018662E+02  0.15859151029E+04  0.15905530263E+04  0.00000000000E+00 0. -1.
         22    1    3    3    0    0 -0.60054874269E+02  0.14837340762E+03  0.18512474369E+02  0.16113338487E+03  0.00000000000E+00 0.  1.
         22    1    3    3    0    0  0.23476266208E+02 -0.78604966306E+01  0.25308317937E+02  0.35403861925E+02  0.00000000000E+00 0.  1.
</event>
<event>
 7    1  0.6253338E-006  0.2080756E+03  0.7818608E-02  0.1285472E+00
          2   -1    0    0  502    0  0.00000000000E+00  0.00000000000E+00  0.27585208121E+04  0.27585208121E+04  0.00000000000E+00 0. -1.
          1   -1    0    0  501    0 -0.00000000000E+00 -0.00000000000E+00 -0.20847755608E+03  0.20847755608E+03  0.00000000000E+00 0. -1.
         25    2    1    2    0    0  0.17233419282E+03 -0.39832289695E+01  0.21329087618E+03  0.30138703195E+03  0.12500482007E+03 0.  0.
          2    1    1    2  501    0  0.37292937860E+02 -0.26518110787E+02 -0.15666523988E+03  0.16321142975E+03  0.00000000000E+00 0. -1.
          1    1    1    2  502    0 -0.20962713068E+03  0.30501339756E+02  0.24934176198E+04  0.25023999065E+04  0.00000000000E+00 0. -1.
         22    1    3    3    0    0  0.14756123818E+03 -0.42046526676E+02  0.11072055676E+03  0.18921223826E+03  0.00000000000E+00 0. -1.
         22    1    3    3    0    0  0.24772954643E+02  0.38063297706E+02  0.10257031942E+03  0.11217479370E+03  0.00000000000E+00 0. -1.
</event>
<event>
 7    1  0.6253338E-006  0.3442979E+02  0.7818608E-02  0.1590186E+00
          2   -1    0    0  502    0  0.00000000000E+00  0.00000000000E+00  0.26800059742E+03  0.26800059742E+03  0.00000000000E+00 0. -1.
          1   -1    0    0  501    0 -0.00000000000E+00 -0.00000000000E+00 -0.15054982430E+03  0.15054982430E+03  0.00000000000E+00 0. -1.
         25    2    1    2    0    0 -0.77166444087E+01 -0.17721589091E+02  0.17727728096E+03  0.21777044424E+03  0.12499252266E+03 0.  0.
          2    1    1    2  501    0 -0.16547830911E+02  0.30498490151E+02 -0.12518326317E+03  0.12990318698E+03  0.00000000000E+00 0. -1.
          1    1    1    2  502    0  0.24264475319E+02 -0.12776901060E+02  0.65356755333E+02  0.70876790495E+02  0.00000000000E+00 0. -1.
         22    1    3    3    0    0  0.56040268553E+02  0.10038898208E+02  0.78628417545E+02  0.97075842630E+02  0.00000000000E+00 0. -1.
         22    1    3    3    0    0 -0.63756912962E+02 -0.27760487298E+02  0.98648863415E+02  0.12069460161E+03  0.00000000000E+00 0. -1.
</event>
<event>
 7    1  0.6253338E-006  0.6459726E+02  0.7818608E-02  0.1427181E+00
          2   -1    0    0  502    0  0.00000000000E+00  0.00000000000E+00  0.24378153631E+03  0.24378153631E+03  0.00000000000E+00 0. -1.
          1   -1    0    0  501    0 -0.00000000000E+00 -0.00000000000E+00 -0.24498975111E+04  0.24498975111E+04  0.00000000000E+00 0. -1.
         25    2    1    2    0    0 -0.21331428017E+02 -0.11622277570E+02 -0.13003508350E+03  0.18200093712E+03  0.12500044406E+03 0.  0.
          2    1    1    2  501    0  0.65175727599E+02  0.48845058315E+01 -0.22911499936E+04  0.22920820289E+04  0.00000000000E+00 0. -1.
          1    1    1    2  502    0 -0.43844299581E+02  0.67377717380E+01  0.21506910235E+03  0.21959608139E+03  0.00000000000E+00 0. -1.
         22    1    3    3    0    0  0.15462891902E+02  0.34534163268E+02  0.14587488825E+01  0.37866045567E+02  0.00000000000E+00 0. -1.
         22    1    3    3    0    0 -0.36794319919E+02 -0.46156440838E+02 -0.13149383238E+03  0.14413489156E+03  0.00000000000E+00 0. -1.
</event>
<event>
 7    1  0.6253338E-006  0.7577237E+02  0.7818608E-02  0.1420271E+00
          2   -1    0    0  502    0  0.00000000000E+00  0.00000000000E+00  0.27509430113E+03  0.27509430113E+03  0.00000000000E+00 0. -1.
          1   -1    0    0  501    0 -0.00000000000E+00 -0.00000000000E+00 -0.37319175766E+03  0.37319175766E+03  0.00000000000E+00 0. -1.
         25    2    1    2    0    0 -0.51320105222E+02  0.21624034778E+02  0.53458140896E+02  0.14691355252E+03  0.12499786800E+03 0.  0.
          2    1    1    2  501    0  0.76448551414E+02  0.93297418044E+01 -0.31955615257E+03  0.32870588638E+03  0.00000000000E+00 0. -1.
          1    1    1    2  502    0 -0.25128446191E+02 -0.30953776582E+02  0.16800055515E+03  0.17266661989E+03  0.00000000000E+00 0. -1.
         22    1    3    3    0    0  0.34615038914E+02  0.33343540168E+02  0.71402009103E+01  0.48589865805E+02  0.00000000000E+00 0. -1.
         22    1    3    3    0    0 -0.85935144136E+02 -0.11719505390E+02  0.46317939986E+02  0.98323686713E+02  0.00000000000E+00 0. -1.
</event>
<event>
 7    1  0.6253338E-006  0.2855300E+03  0.7818608E-02  0.1170530E+00
          2   -1    0    0  502    0  0.00000000000E+00  0.00000000000E+00  0.11243886400E+04  0.11243886400E+04  0.00000000000E+00 0. -1.
          1   -1    0    0  501    0 -0.00000000000E+00 -0.00000000000E+00 -0.17546922261E+04  0.17546922261E+04  0.00000000000E+00 0. -1.
         25    2    1    2    0    0 -0.37309711860E+03 -0.68296153916E+02  0.17357066036E+03  0.43545159026E+03  0.12500195507E+03 0.  0.
          2    1    1    2  501    0  0.28184584167E+03  0.68988233726E+01 -0.16077411555E+04  0.16322733519E+04  0.00000000000E+00 0. -1.
          1    1    1    2  502    0  0.91251276933E+02  0.61397330544E+02  0.80386690906E+03  0.81135592388E+03  0.00000000000E+00 0. -1.
         22    1    3    3    0    0 -0.22027539582E+03 -0.75726392397E+02  0.15843089073E+03  0.28170211864E+03  0.00000000000E+00 0. -1.
         22    1    3    3    0    0 -0.15282172278E+03  0.74302384806E+01  0.15139769627E+02  0.15374947162E+03  0.00000000000E+00 0. -1.
</event>
<event>
 7    1  0.6253338E-006  0.6615387E+02  0.7818608E-02  0.1403545E+00
          2   -1    0    0  502    0  0.00000000000E+00  0.00000000000E+00  0.19798060375E+02  0.19798060375E+02  0.00000000000E+00 0. -1.
          1   -1    0    0  501    0 -0.00000000000E+00 -0.00000000000E+00 -0.12277815524E+04  0.12277815524E+04  0.00000000000E+00 0. -1.
         25    2    1    2    0    0  0.19376304519E+02  0.20064507282E+02 -0.54840901843E+03  0.56316575551E+03  0.12500076421E+03 0.  0.
          2    1    1    2  501    0 -0.57398466507E+02 -0.55557798104E+02 -0.60014107259E+03  0.60543419122E+03  0.00000000000E+00 0. -1.
          1    1    1    2  502    0  0.38022161988E+02  0.35493290822E+02 -0.59433401053E+02  0.78979666094E+02  0.00000000000E+00 0. -1.
         22    1    3    3    0    0 -0.37379324008E+02  0.28477258696E+02 -0.41876004531E+03  0.42138835256E+03  0.00000000000E+00 0.  1.
         22    1    3    3    0    0  0.56755628527E+02 -0.84127514132E+01 -0.12964897312E+03  0.14177740295E+03  0.00000000000E+00 0.  1.
</event>
<event>
 7    1  0.6253338E-006  0.6677720E+02  0.7818608E-02  0.1474937E+00
          2   -1    0    0  502    0  0.00000000000E+00  0.00000000000E+00  0.52688729598E+03  0.52688729598E+03  0.00000000000E+00 0. -1.
          1   -1    0    0  501    0 -0.00000000000E+00 -0.00000000000E+00 -0.14871357602E+03  0.14871357602E+03  0.00000000000E+00 0. -1.
         25    2    1    2    0    0 -0.82451335793E+02 -0.14895472569E+02 -0.71382334579E+02  0.16655608505E+03  0.12500157559E+03 0.  0.
          2    1    1    2  501    0  0.16715749164E+02  0.25147824603E+02 -0.19073685780E+02  0.35716030597E+02  0.00000000000E+00 0. -1.
          1    1    1    2  502    0  0.65735586629E+02 -0.10252352035E+02  0.46862974032E+03  0.47332875635E+03  0.00000000000E+00 0. -1.
         22    1    3    3    0    0 -0.54346873310E+02 -0.13192756574E+02  0.28508934943E+02  0.62772532498E+02  0.00000000000E+00 0.  1.
         22    1    3    3    0    0 -0.28104462483E+02 -0.17027159946E+01 -0.99891269522E+02  0.10378355255E+03  0.00000000000E+00 0.  1.
</event>
<event>
 7    1  0.6253338E-006  0.1989424E+03  0.7818608E-02  0.1239561E+00
          2   -1    0    0  502    0  0.00000000000E+00  0.00000000000E+00  0.17360149902E+04  0.17360149902E+04  0.00000000000E+00 0. -1.
          1   -1    0    0  501    0 -0.00000000000E+00 -0.00000000000E+00 -0.73976511017E+02  0.73976511017E+02  0.00000000000E+00 0. -1.
         25    2    1    2    0    0 -0.14715220598E+03  0.14561068274E+02  0.85337094404E+03  0.87506453974E+03  0.12502073486E+03 0.  0.
          2    1    1    2  501    0  0.20842373206E+03  0.28731747272E+02  0.12005132881E+03  0.24223601494E+03  0.00000000000E+00 0. -1.
          1    1    1    2  502    0 -0.61271526079E+02 -0.43292815545E+02  0.68861620636E+03  0.69269094656E+03  0.00000000000E+00 0. -1.
         22    1    3    3    0    0 -0.78490259337E+02 -0.24416946316E+02  0.67517746210E+03  0.68016285800E+03  0.00000000000E+00 0.  1.
         22    1    3    3    0    0 -0.68661946644E+02  0.38978014590E+02  0.17819348195E+03  0.19490168174E+03  0.00000000000E+00 0.  1.
</event>
<event>
 7    1  0.6253338E-006  0.9144819E+02  0.7818608E-02  0.1352587E+00
          2   -1    0    0  502    0  0.00000000000E+00  0.00000000000E+00  0.48706655828E+03  0.48706655828E+03  0.00000000000E+00 0. -1.
          1   -1    0    0  501    0 -0.00000000000E+00 -0.00000000000E+00 -0.10477131465E+04  0.10477131465E+04  0.00000000000E+00 0. -1.
         25    2    1    2    0    0 -0.50278984081E+02  0.37437932443E+02 -0.38122255843E+03  0.40606079136E+03  0.12500060878E+03 0.  0.
          2    1    1    2  501    0  0.10215315176E+03 -0.13596488380E+02 -0.64826989121E+03  0.65640991976E+03  0.00000000000E+00 0. -1.
          1    1    1    2  502    0 -0.51874167676E+02 -0.23841444063E+02  0.46884586142E+03  0.47230899367E+03  0.00000000000E+00 0. -1.
         22    1    3    3    0    0  0.35390981363E+02  0.40016631925E+02 -0.16667697992E+03  0.17502876343E+03  0.00000000000E+00 0.  1.
         22    1    3    3    0    0 -0.85669965444E+02 -0.25786994826E+01 -0.21454557851E+03  0.23103202792E+03  0.00000000000E+00 0.  1.
</event>
<event>
 7    1  0.6253338E-006  0.9130906E+02  0.7818608E-02  0.1406031E+00
          2   -1    0    0  502    0  0.00000000000E+00  0.00000000000E+00  0.48279034485E+03  0.48279034485E+03  0.00000000000E+00 0. -1.
          1   -1    0    0  501    0 -0.00000000000E+00 -0.00000000000E+00 -0.42567240523E+03  0.42567240523E+03  0.00000000000E+00 0. -1.
         25    2    1    2    0    0 -0.70519217944E+02  0.29218679731E+02 -0.95303310859E+02  0.17474072922E+03  0.12499964018E+03 0.  0.
          2    1    1    2  501    0  0.60246533531E+01  0.36460549689E+02 -0.28466209259E+03  0.28705082318E+03  0.00000000000E+00 0. -1.
          1    1    1    2  502    0  0.64494564591E+02 -0.65679229420E+02  0.43708334307E+03  0.44667119767E+03  0.00000000000E+00 0. -1.
         22    1    3    3    0    0 -0.52950777820E+02 -0.11189755830E+02  0.14834098551E+02  0.56116361136E+02  0.00000000000E+00 0. -1.
         22    1    3    3    0    0 -0.17568440124E+02  0.40408435561E+02 -0.11013740941E+03  0.11862436809E+03  0.00000000000E+00 0. -1.
</event>
<event>
 7    1  0.6253338E-006  0.8564591E+02  0.7818608E-02  0.1352901E+00
          2   -1    0    0  502    0  0.00000000000E+00  0.00000000000E+00  0.25713748316E+03  0.25713748316E+03  0.00000000000E+00 0. -1.
          1   -1    0    0  501    0 -0.00000000000E+00 -0.00000000000E+00 -0.13250195080E+04  0.13250195080E+04  0.00000000000E+00 0. -1.
         25    2    1    2    0    0  0.86761054781E+02 -0.42637830638E+02  0.43021073630E+02  0.16375402819E+03  0.12497641275E+03 0.  0.
          2    1    1    2  501    0 -0.17738671671E+01  0.60770050719E+02 -0.12515769265E+04  0.12530526520E+04  0.00000000000E+00 0. -1.
          1    1    1    2  502    0 -0.84987187614E+02 -0.18132220081E+02  0.14067382801E+03  0.16535031101E+03  0.00000000000E+00 0. -1.
         22    1    3    3    0    0 -0.18602995529E+02 -0.39731024482E+01  0.47771121574E+02  0.51419228331E+02  0.00000000000E+00 0.  1.
         22    1    3    3    0    0  0.10536405031E+03 -0.38664728190E+02 -0.47500479437E+01  0.11233479986E+03  0.00000000000E+00 0.  1.
</event>
<event>
 7    1  0.6253338E-006  0.7799041E+02  0.7818608E-02  0.1427275E+00
          2   -1    0    0  502    0  0.00000000000E+00  0.00000000000E+00  0.61850354050E+03  0.61850354050E+03  0.00000000000E+00 0. -1.
          1   -1    0    0  501    0 -0.00000000000E+00 -0.00000000000E+00 -0.61174860729E+03  0.61174860729E+03  0.00000000000E+00 0. -1.
         25    2    1    2    0    0 -0.64551301530E+02  0.25626952846E+02 -0.15923367675E+02  0.14388359910E+03  0.12500130083E+03 0.  0.
          2    1    1    2  501    0  0.51185324439E+02 -0.59822611513E+02 -0.52831707056E+03  0.53415129817E+03  0.00000000000E+00 0. -1.
          1    1    1    2  502    0  0.13365977090E+02  0.34195658667E+02  0.55099537145E+03  0.55221725052E+03  0.00000000000E+00 0. -1.
         22    1    3    3    0    0 -0.38609188772E+01 -0.76082383940E+01  0.48557879603E+02  0.49301720635E+02  0.00000000000E+00 0.  1.
         22    1    3    3    0    0 -0.60690382652E+02  0.33235191240E+02 -0.64481247278E+02  0.94581878464E+02  0.00000000000E+00 0.  1.
</event>
<event>
 7    1  0.6253338E-006  0.5863456E+02  0.7818608E-02  0.1551927E+00
          2   -1    0    0  502    0  0.00000000000E+00  0.00000000000E+00  0.83558129874E+02  0.83558129874E+02  0.00000000000E+00 0. -1.
          1   -1    0    0  501    0 -0.00000000000E+00 -0.00000000000E+00 -0.39479573025E+04  0.39479573025E+04  0.00000000000E+00 0. -1.
         25    2    1    2    0    0 -0.37094754876E+02  0.45992938904E+02 -0.31237154625E+03  0.34159578035E+03  0.12498129051E+03 0.  0.
          2    1    1    2  501    0  0.19000517988E+02 -0.55523167205E+02 -0.36192140181E+04  0.36196897589E+04  0.00000000000E+00 0. -1.
          1    1    1    2  502    0  0.18094236889E+02  0.95302283012E+01  0.67186391715E+02  0.70229893149E+02  0.00000000000E+00 0. -1.
         22    1    3    3    0    0 -0.44667773890E+02  0.86311729910E+02 -0.22319036001E+03  0.24343143089E+03  0.00000000000E+00 0.  1.
         22    1    3    3    0    0  0.75730190134E+01 -0.40318791006E+02 -0.89181186245E+02  0.98164349462E+02  0.00000000000E+00 0.  1.
</event>
<event>
 7    1  0.6253338E-006  0.9303880E+02  0.7818608E-02  0.1309273E+00
          2   -1    0    0  502    0  0.00000000000E+00  0.00000000000E+00  0.12145187474E+03  0.12145187474E+03  0.00000000000E+00 0. -1.
          1   -1    0    0  501    0 -0.00000000000E+00 -0.00000000000E+00 -0.29326356445E+04  0.29326356445E+04  0.00000000000E+00 0. -1.
         25    2    1    2    0    0 -0.11847760963E+03 -0.97893899693E+02 -0.55741246045E+03  0.59156843324E+03  0.12499760224E+03 0.  0.
          2    1    1    2  501    0  0.37856427363E+02  0.82364039855E+02 -0.23409850074E+04  0.23427393685E+04  0.00000000000E+00 0. -1.
          1    1    1    2  502    0  0.80621182270E+02  0.15529859838E+02  0.87213698086E+02  0.11977971744E+03  0.00000000000E+00 0. -1.
         22    1    3    3    0    0 -0.80445727604E+01  0.48423129840E+01 -0.23956151971E+03  0.23974545850E+03  0.00000000000E+00 0.  1.
         22    1    3    3    0    0 -0.11043303687E+03 -0.10273621268E+03 -0.31785094074E+03  0.35182297474E+03  0.00000000000E+00 0.  1.
</event>
<event>
 7    1  0.6253338E-006  0.1354873E+03  0.7818608E-02  0.1299632E+00
          2   -1    0    0  502    0  0.00000000000E+00  0.00000000000E+00  0.16006893422E+04  0.16006893422E+04  0.00000000000E+00 0. -1.
          1   -1    0    0  501    0 -0.00000000000E+00 -0.00000000000E+00 -0.64798114117E+03  0.64798114117E+03  0.00000000000E+00 0. -1.
         25    2    1    2    0    0  0.65233380768E+02 -0.82982981963E+02  0.47924945424E+02  0.17048185649E+03  0.12500277492E+03 0.  0.
          2    1    1    2  501    0 -0.31825174872E+02  0.13471484553E+03 -0.57788995324E+03  0.59423709865E+03  0.00000000000E+00 0. -1.
          1    1    1    2  502    0 -0.33408205896E+02 -0.51731863566E+02  0.14826732088E+04  0.14839515282E+04  0.00000000000E+00 0. -1.
         22    1    3    3    0    0  0.67945969063E+02  0.25131267036E+01  0.50832157193E+02  0.84893337327E+02  0.00000000000E+00 0.  1.
         22    1    3    3    0    0 -0.27125882951E+01 -0.85496108666E+02 -0.29072117689E+01  0.85588519164E+02  0.00000000000E+00 0.  1.
</event>
<event>
 7    1  0.6253338E-006  0.6993591E+02  0.7818608E-02  0.1465469E+00
          2   -1    0    0  502    0  0.00000000000E+00  0.00000000000E+00  0.83601823479E+03  0.83601823479E+03  0.00000000000E+00 0. -1.
          1   -1    0    0  501    0 -0.00000000000E+00 -0.00000000000E+00 -0.64627492156E+03  0.64627492156E+03  0.00000000000E+00 0. -1.
         25    2    1    2    0    0  0.30379859936E+02 -0.25168731976E+02 -0.11001390804E+03  0.17112123946E+03  0.12499207044E+03 0.  0.
          2    1    1    2  501    0  0.22409084997E+02 -0.21210252268E+02 -0.50370181149E+03  0.50464597174E+03  0.00000000000E+00 0. -1.
          1    1    1    2  502    0 -0.52788944932E+02  0.46378984245E+02  0.80345903276E+03  0.80652594515E+03  0.00000000000E+00 0. -1.
         22    1    3    3    0    0  0.76687294309E+02 -0.41723246133E+01 -0.84660625307E+02  0.11430560301E+03  0.00000000000E+00 0. -1.
         22    1    3    3    0    0 -0.46307434374E+02 -0.20996407363E+02 -0.25353282731E+02  0.56815636454E+02  0.00000000000E+00 0. -1.
</event>
<event>
 7    1  0.6253338E-006  0.2015820E+03  0.7818608E-02  0.1309946E+00
          2   -1    0    0  502    0  0.00000000000E+00  0.00000000000E+00  0.38300081574E+04  0.38300081574E+04  0.00000000000E+00 0. -1.
          1   -1    0    0  501    0 -0.00000000000E+00 -0.00000000000E+00 -0.62077684478E+03  0.62077684478E+03  0.00000000000E+00 0. -1.
         25    2    1    2    0    0  0.74916700271E+02  0.15061585250E+03 -0.12874844210E+03  0.24595484706E+03  0.12497991217E+03 0.  0.
          2    1    1    2  501    0  0.30896287719E+02  0.21539344553E+02 -0.42989445739E+03  0.43154115499E+03  0.00000000000E+00 0. -1.
          1    1    1    2  502    0 -0.10581298799E+03 -0.17215519705E+03  0.37678742121E+04  0.37732890001E+04  0.00000000000E+00 0. -1.
         22    1    3    3    0    0  0.40241749856E+02  0.41565071886E+02  0.17329131336E+02  0.60393314408E+02  0.00000000000E+00 0. -1.
         22    1    3    3    0    0  0.34674950416E+02  0.10905078061E+03 -0.14607757344E+03  0.18556153265E+03  0.00000000000E+00 0. -1.
</event>
<event>
 7    1  0.6253338E-006  0.3079717E+03  0.7818608E-02  0.1317586E+00
          2   -1    0    0  502    0  0.00000000000E+00  0.00000000000E+00  0.15887208265E+04  0.15887208265E+04  0.00000000000E+00 0. -1.
          1   -1    0    0  501    0 -0.00000000000E+00 -0.00000000000E+00 -0.44939874744E+03  0.44939874744E+03  0.00000000000E+00 0. -1.
         25    2    1    2    0    0 -0.31700165094E+03  0.70015054941E+02  0.36023244019E+03  0.50078300346E+03  0.12499620383E+03 0.  0.
          2    1    1    2  501    0  0.29546660352E+03 -0.78122403875E+02 -0.31739131363E+03  0.44061419604E+03  0.00000000000E+00 0. -1.
          1    1    1    2  502    0  0.21535047425E+02  0.81073489346E+01  0.10964809525E+04  0.10967223744E+04  0.00000000000E+00 0. -1.
         22    1    3    3    0    0 -0.24935367116E+02  0.46514828559E+02  0.76284538659E+02  0.92761698171E+02  0.00000000000E+00 0.  1.
         22    1    3    3    0    0 -0.29206628383E+03  0.23500226382E+02  0.28394790153E+03  0.40802130529E+03  0.00000000000E+00 0.  1.
</event>
<event>
 7    1  0.6253338E-006  0.5326705E+02  0.7818608E-02  0.1429239E+00
          2   -1    0    0  502    0  0.00000000000E+00  0.00000000000E+00  0.16085447859E+04  0.16085447859E+04  0.00000000000E+00 0. -1.
          1   -1    0    0  501    0 -0.00000000000E+00 -0.00000000000E+00 -0.76566891314E+03  0.76566891314E+03  0.00000000000E+00 0. -1.
         25    2    1    2    0    0  0.15716030258E+01  0.71630335453E+01  0.12798974924E+03  0.17904189058E+03  0.12498337364E+03 0.  0.
          2    1    1    2  501    0  0.52687062383E+02 -0.53670604351E+01 -0.73868811507E+03  0.74058413650E+03  0.00000000000E+00 0. -1.
          1    1    1    2  502    0 -0.54258665409E+02 -0.17959731102E+01  0.14535742386E+04  0.14545876720E+04  0.00000000000E+00 0. -1.
         22    1    3    3    0    0 -0.29391715366E+02 -0.31537740310E+01  0.14088282677E+03  0.14395065161E+03  0.00000000000E+00 0. -1.
         22    1    3    3    0    0  0.30963318391E+02  0.10316807576E+02 -0.12893077525E+02  0.35091238970E+02  0.00000000000E+00 0. -1.
</event>
<event>
 7    1  0.6253338E-006  0.1818940E+03  0.7818608E-02  0.1255951E+00
          2   -1    0    0  502    0  0.00000000000E+00  0.00000000000E+00  0.39019370478E+03  0.39019370478E+03  0.00000000000E+00 0. -1.
          1   -1    0    0  501    0 -0.00000000000E+00 -0.00000000000E+00 -0.20685990023E+04  0.20685990023E+04  0.00000000000E+00 0. -1.
         25    2    1    2    0    0 -0.17953432460E+03 -0.74282554218E+02 -0.29457192186E+03  0.37436560624E+03  0.12500607352E+03 0.  0.
          2    1    1    2  501    0  0.47556098912E+02 -0.50847037502E+02 -0.17097685193E+04  0.17111853767E+04  0.00000000000E+00 0. -1.
          1    1    1    2  502    0  0.13197822569E+03  0.12512959172E+03  0.32593514365E+03  0.37324172415E+03  0.00000000000E+00 0. -1.
         22    1    3    3    0    0 -0.66798519387E+02 -0.33382766410E+02 -0.22192605414E+03  0.23415299441E+03  0.00000000000E+00 0. -1.
         22    1    3    3    0    0 -0.11273580521E+03 -0.40899787808E+02 -0.72645867720E+02  0.14021261183E+03  0.00000000000E+00 0. -1.
</event>
<event>
 7    1  0.6253338E-006  0.5085536E+02  0.7818608E-02  0.1479958E+00
          2   -1    0    0  502    0  0.00000000000E+00  0.00000000000E+00  0.10615837472E+04  0.10615837472E+04  0.00000000000E+00 0. -1.
          1   -1    0    0  501    0 -0.00000000000E+00 -0.00000000000E+00 -0.30549020167E+04  0.30549020167E+04  0.00000000000E+00 0. -1.
         25    2    1    2    0    0 -0.16870334228E+02 -0.29292429122E+02 -0.25843403946E+03  0.28905993763E+03  0.12499936083E+03 0.  0.
          2    1    1    2  501    0 -0.33054611010E+02  0.19275368454E+02 -0.27804037640E+04  0.27806670491E+04  0.00000000000E+00 0. -1.
          1    1    1    2  502    0  0.49924945238E+02  0.10017060668E+02  0.10455195339E+04  0.10467587771E+04  0.00000000000E+00 0. -1.
         22    1    3    3    0    0  0.22102964782E+02 -0.59895893865E+02 -0.21106033537E+03  0.22050515713E+03  0.00000000000E+00 0.  1.
         22    1    3    3    0    0 -0.38973299010E+02  0.30603464743E+02 -0.47373704089E+02  0.68554780498E+02  0.00000000000E+00 0.  1.
</event>
<event>
 7    1  0.6253338E-006  0.5060546E+02  0.7818608E-02  0.1487245E+00
          2   -1    0    0  502    0  0.00000000000E+00  0.00000000000E+00  0.14909212523E+03  0.14909212523E+03  0.00000000000E+00 0. -1.
          1   -1    0    0  501    0 -0.00000000000E+00 -0.00000000000E+00 -0.13001046144E+04  0.13001046144E+04  0.00000000000E+00 0. -1.
         25    2    1    2    0    0  0.20386694987E+02  0.36286009774E+02  0.61355238238E+02  0.14535895503E+03  0.12502987127E+03 0.  0.
          2    1    1    2  501    0 -0.48897170190E+02 -0.13442667892E+02 -0.12502101548E+04  0.12512382146E+04  0.00000000000E+00 0. -1.
          1    1    1    2  502    0  0.28510475203E+02 -0.22843341881E+02  0.37842427315E+02  0.52599570053E+02  0.00000000000E+00 0. -1.
         22    1    3    3    0    0  0.61688436046E+02  0.26324235124E+02 -0.42425367316E+01  0.67204371990E+02  0.00000000000E+00 0. -1.
         22    1    3    3    0    0 -0.41301741060E+02  0.99617746499E+01  0.65597774970E+02  0.78154583037E+02  0.00000000000E+00 0. -1.
</event>
<event>
 7    1  0.6253338E-006  0.7362112E+02  0.7818608E-02  0.1466731E+00
          2   -1    0    0  502    0  0.00000000000E+00  0.00000000000E+00  0.41385113813E+03  0.41385113813E+03  0.00000000000E+00 0. -1.
          1   -1    0    0  501    0 -0.00000000000E+00 -0.00000000000E+00 -0.80087071477E+03  0.80087071477E+03  0.00000000000E+00 0. -1.
         25    2    1    2    0    0  0.70210489864E+02  0.54136725307E+02  0.63330583649E+02  0.16583355540E+03  0.12501882801E+03 0.  0.
          2    1    1    2  501    0 -0.41840810465E+02 -0.60366531147E+02 -0.74710933025E+03  0.75071107815E+03  0.00000000000E+00 0. -1.
          1    1    1    2  502    0 -0.28369679399E+02  0.62298058397E+01  0.29675916996E+03  0.29817721936E+03  0.00000000000E+00 0. -1.
         22    1    3    3    0    0 -0.21912098640E+02  0.17250424153E+02  0.60434275333E+02  0.66558386664E+02  0.00000000000E+00 0.  1.
         22    1    3    3    0    0  0.92122588504E+02  0.36886301154E+02  0.28963083162E+01  0.99275168735E+02  0.00000000000E+00 0.  1.
</event>
<event>
 7    1  0.6253338E-006  0.1063572E+03  0.7818608E-02  0.1384551E+00
          2   -1    0    0  502    0  0.00000000000E+00  0.00000000000E+00  0.48080184152E+03  0.48080184152E+03  0.00000000000E+00 0. -1.
          1   -1    0    0  501    0 -0.00000000000E+00 -0.00000000000E+00 -0.51725684129E+02  0.51725684129E+02  0.00000000000E+00 0. -1.
         25    2    1    2    0    0  0.33260514145E+02  0.78975986087E+02  0.15517606057E+03  0.21690463785E+03  0.12499817586E+03 0.  0.
          2    1    1    2  501    0  0.32301925345E+02  0.19347960177E+02  0.82364764342E+02  0.90563305754E+02  0.00000000000E+00 0. -1.
          1    1    1    2  502    0 -0.65562439491E+02 -0.98323946265E+02  0.19153533248E+03  0.22505958205E+03  0.00000000000E+00 0. -1.
         22    1    3    3    0    0  0.68892354361E+02  0.88462156268E+02  0.13267796440E+03  0.17370996465E+03  0.00000000000E+00 0.  1.
         22    1    3    3    0    0 -0.35631840216E+02 -0.94861701809E+01  0.22498096169E+02  0.43194673202E+02  0.00000000000E+00 0.  1.
</event>
<event>
 7    1  0.6253338E-006  0.1413620E+03  0.7818608E-02  0.1366107E+00
          2   -1    0    0  502    0  0.00000000000E+00  0.00000000000E+00  0.41724933479E+03  0.41724933479E+03  0.00000000000E+00 0. -1.
          1   -1    0    0  501    0 -0.00000000000E+00 -0.00000000000E+00 -0.13355228429E+04  0.13355228429E+04  0.00000000000E+00 0. -1.
         25    2    1    2    0    0  0.47740238713E+02  0.16636842569E+03 -0.84445748452E+03  0.87102971787E+03  0.12500697101E+03 0.  0.
          2    1    1    2  501    0 -0.15131123900E+02 -0.29284060706E+02 -0.46488999190E+03  0.46605709059E+03  0.00000000000E+00 0. -1.
          1    1    1    2  502    0 -0.32609114814E+02 -0.13708436499E+03  0.39107396831E+03  0.41568536922E+03  0.00000000000E+00 0. -1.
         22    1    3    3    0    0  0.32765868259E+02  0.33098910271E+02 -0.64105627001E+02  0.79238067854E+02  0.00000000000E+00 0. -1.
         22    1    3    3    0    0  0.14974370454E+02  0.13326951542E+03 -0.78035185752E+03  0.79179165002E+03  0.00000000000E+00 0. -1.
</event>
<event>
 7    1  0.6253338E-006  0.8598076E+02  0.7818608E-02  0.1387464E+00
          2   -1    0    0  502    0  0.00000000000E+00  0.00000000000E+00  0.26262951071E+04  0.26262951071E+04  0.00000000000E+00 0. -1.
          1   -1    0    0  501    0 -0.00000000000E+00 -0.00000000000E+00 -0.34054095080E+03  0.34054095080E+03  0.00000000000E+00 0. -1.
         25    2    1    2    0    0  0.35312960803E+02  0.60716005334E+02  0.19197407057E+03  0.23960878578E+03  0.12499955179E+03 0.  0.
          2    1    1    2  501    0 -0.37266961950E+02  0.26091207826E+02 -0.31430350982E+03  0.31757876797E+03  0.00000000000E+00 0. -1.
          1    1    1    2  502    0  0.19540011476E+01 -0.86807213160E+02  0.24080835956E+04  0.24096485042E+04  0.00000000000E+00 0. -1.
         22    1    3    3    0    0  0.33986583046E+02  0.77851426577E+02  0.54195736662E+02  0.10076264347E+03  0.00000000000E+00 0. -1.
         22    1    3    3    0    0  0.13263777564E+01 -0.17135421243E+02  0.13777833391E+03  0.13884614231E+03  0.00000000000E+00 0. -1.
</event>
<event>
 7    1  0.6253338E-006  0.1249127E+03  0.7818608E-02  0.1292343E+00
          2   -1    0    0  502    0  0.00000000000E+00  0.00000000000E+00  0.27130053890E+04  0.27130053890E+04  0.00000000000E+00 0. -1.
          1   -1    0    0  501    0 -0.00000000000E+00 -0.00000000000E+00 -0.34887163199E+03  0.34887163199E+03  0.00000000000E+00 0. -1.
         25    2    1    2    0    0  0.13827026490E+02  0.57529331690E+02  0.37972963736E+03  0.40412801893E+03  0.12499619005E+03 0.  0.
          2    1    1    2  501    0 -0.60514675473E+02 -0.11163857845E+03 -0.32412580560E+03  0.34811310805E+03  0.00000000000E+00 0. -1.
          1    1    1    2  502    0  0.46687648982E+02  0.54109246757E+02  0.23085299252E+04  0.23096358940E+04  0.00000000000E+00 0. -1.
         22    1    3    3    0    0 -0.36641543564E+02 -0.14424103737E+02  0.54534526169E+02  0.67265682393E+02  0.00000000000E+00 0.  1.
         22    1    3    3    0    0  0.50468570055E+02  0.71953435427E+02  0.32519511119E+03  0.33686233654E+03  0.00000000000E+00 0.  1.
</event>
<event>
 7    1  0.6253338E-006  0.5314630E+02  0.7818608E-02  0.1523322E+00
          2   -1    0    0  502    0  0.00000000000E+00  0.00000000000E+00  0.10080946750E+04  0.10080946750E+04  0.00000000000E+00 0. -1.
          1   -1    0    0  501    0 -0.00000000000E+00 -0.00000000000E+00 -0.21550463681E+03  0.21550463681E+03  0.00000000000E+00 0. -1.
         25    2    1    2    0    0 -0.25901700064E+02 -0.42792971823E+02 -0.50318970587E+02  0.14372736617E+03  0.12499368176E+03 0.  0.
          2    1    1    2  501    0 -0.20883721415E+02  0.17421988096E+02 -0.11617320556E+03  0.11931416169E+03  0.00000000000E+00 0. -1.
          1    1    1    2  502    0  0.46785421479E+02  0.25370983728E+02  0.95908221436E+03  0.96055778399E+03  0.00000000000E+00 0. -1.
         22    1    3    3    0    0  0.98026608662E+01  0.31565119870E+01  0.37216446586E+02  0.38615018121E+02  0.00000000000E+00 0. -1.
         22    1    3    3    0    0 -0.35704360930E+02 -0.45949483810E+02 -0.87535417173E+02  0.10511234804E+03  0.00000000000E+00 0. -1.
</event>
<event>
 7    1  0.6253338E-006  0.9352898E+02  0.7818608E-02  0.1365003E+00
          2   -1    0    0  502    0  0.00000000000E+00  0.00000000000E+00  0.75176864825E+03  0.75176864825E+03  0.00000000000E+00 0. -1.
          1   -1    0    0  501    0 -0.00000000000E+00 -0.00000000000E+00 -0.77370907433E+02  0.77370907433E+02  0.00000000000E+00 0. -1.
         25    2    1    2    0    0 -0.50528977888E+02 -0.43744232242E+02  0.32187752921E+03  0.35170576587E+03  0.12500026589E+03 0.  0.
          2    1    1    2  501    0 -0.50059870241E+02  0.47069320453E+01 -0.43803527798E+02  0.66685042292E+02  0.00000000000E+00 0. -1.
          1    1    1    2  502    0  0.10058884813E+03  0.39037300197E+02  0.39632373940E+03  0.41074874752E+03  0.00000000000E+00 0. -1.
         22    1    3    3    0    0 -0.58056291123E+02  0.22879114204E+02  0.84517759429E+02  0.10505826224E+03  0.00000000000E+00 0. -1.
         22    1    3    3    0    0  0.75273132344E+01 -0.66623346446E+02  0.23735976978E+03  0.24664750363E+03  0.00000000000E+00 0. -1.
</event>
<event>
 7    1  0.6253338E-006  0.2872787E+02  0.7818608E-02  0.1628541E+00
          2   -1    0    0  502    0  0.00000000000E+00  0.00000000000E+00  0.11054253547E+04  0.11054253547E+04  0.00000000000E+00 0. -1.
          1   -1    0    0  501    0 -0.00000000000E+00 -0.00000000000E+00 -0.14987530981E+02  0.14987530981E+02  0.00000000000E+00 0. -1.
         25    2    1    2    0    0 -0.33624192276E+02 -0.40841379067E+02  0.33371163397E+03  0.36025973490E+03  0.12500006956E+03 0.  0.
          2    1    1    2  501    0  0.11338493214E+02  0.23579921082E+02  0.12073207335E+03  0.12353464147E+03  0.00000000000E+00 0. -1.
          1    1    1    2  502    0  0.22285699062E+02  0.17261457985E+02  0.63599411637E+03  0.63661850930E+03  0.00000000000E+00 0. -1.
         22    1    3    3    0    0 -0.38550176054E+02 -0.63331027370E+02  0.32835583510E+03  0.33662217626E+03  0.00000000000E+00 0. -1.
         22    1    3    3    0    0  0.49259837783E+01  0.22489648303E+02  0.53557988701E+01  0.23637558642E+02  0.00000000000E+00 0. -1.
</event>
<event>
 7    1  0.6253338E-006  0.3458138E+02  0.7818608E-02  0.1601135E+00
          2   -1    0    0  502    0  0.00000000000E+00  0.00000000000E+00  0.28016748206E+03  0.28016748206E+03  0.00000000000E+00 0. -1.
          1   -1    0    0  501    0 -0.00000000000E+00 -0.00000000000E+00 -0.10350700357E+03  0.10350700357E+03  0.00000000000E+00 0. -1.
         25    2    1    2    0    0 -0.40550615863E+02  0.11190662550E+01  0.18400340396E+03  0.22611452369E+03  0.12499968158E+03 0.  0.
          2    1    1    2  501    0  0.27605394556E+02  0.20911892300E+02 -0.76423875178E+02  0.83904551399E+02  0.00000000000E+00 0. -1.
          1    1    1    2  502    0  0.12945221308E+02 -0.22030958555E+02  0.69080949711E+02  0.73655410545E+02  0.00000000000E+00 0. -1.
         22    1    3    3    0    0  0.52386461331E+01 -0.49117295818E+02  0.30037796719E+02  0.57811948536E+02  0.00000000000E+00 0. -1.
         22    1    3    3    0    0 -0.45789261996E+02  0.50236362073E+02  0.15396560725E+03  0.16830257515E+03  0.00000000000E+00 0. -1.
</event>
<event>
 7    1  0.6253338E-006  0.1179077E+03  0.7818608E-02  0.1362353E+00
          2   -1    0    0  502    0  0.00000000000E+00  0.00000000000E+00  0.15467668447E+03  0.15467668447E+03  0.00000000000E+00 0. -1.
          1   -1    0    0  501    0 -0.00000000000E+00 -0.00000000000E+00 -0.11874349531E+04  0.11874349531E+04  0.00000000000E+00 0. -1.
         25    2    1    2    0    0  0.11976533393E+03  0.84995457235E+02 -0.20656048494E+03  0.28259462981E+03  0.12499811158E+03 0.  0.
          2    1    1    2  501    0 -0.10554973812E+03 -0.46776062945E+02 -0.93563428801E+03  0.94273022025E+03  0.00000000000E+00 0. -1.
          1    1    1    2  502    0 -0.14215595810E+02 -0.38219394290E+02  0.10943650431E+03  0.11678678752E+03  0.00000000000E+00 0. -1.
         22    1    3    3    0    0  0.42623169892E+01 -0.93562595352E+01  0.13368912447E+02  0.16865193702E+02  0.00000000000E+00 0. -1.
         22    1    3    3    0    0  0.11550301694E+03  0.94351716770E+02 -0.21992939738E+03  0.26572943610E+03  0.00000000000E+00 0. -1.
</event>
<event>
 7    1  0.6253338E-006  0.6933845E+02  0.7818608E-02  0.1448871E+00
          2   -1    0    0  502    0  0.00000000000E+00  0.00000000000E+00  0.28944045934E+04  0.28944045934E+04  0.00000000000E+00 0. -1.
          1   -1    0    0  501    0 -0.00000000000E+00 -0.00000000000E+00 -0.91939980529E+03  0.91939980529E+03  0.00000000000E+00 0. -1.
         25    2    1    2    0    0  0.43066945007E+02  0.94546385064E+02  0.12703488683E+03  0.20629409111E+03  0.12500243547E+03 0.  0.
          2    1    1    2  501    0 -0.11788819756E+02 -0.33088413722E+02 -0.87898352758E+03  0.87968509204E+03  0.00000000000E+00 0. -1.
          1    1    1    2  502    0 -0.31278125251E+02 -0.61457971342E+02  0.27269534289E+04  0.27278252156E+04  0.00000000000E+00 0. -1.
         22    1    3    3    0    0 -0.16783841997E+02  0.47867852929E+02 -0.80365051265E+01  0.51357707415E+02  0.00000000000E+00 0. -1.
         22    1    3    3    0    0  0.59850787004E+02  0.46678532135E+02  0.13507139195E+03  0.15493638369E+03  0.00000000000E+00 0. -1.
</event>
<event>
 7    1  0.6253338E-006  0.9682495E+02  0.7818608E-02  0.1390272E+00
          2   -1    0    0  502    0  0.00000000000E+00  0.00000000000E+00  0.21007094539E+04  0.21007094539E+04  0.00000000000E+00 0. -1.
          1   -1    0    0  501    0 -0.00000000000E+00 -0.00000000000E+00 -0.75811540670E+03  0.75811540670E+03  0.00000000000E+00 0. -1.
         25    2    1    2    0    0 -0.12836440514E+03  0.13963496650E+02  0.91524161655E+03  0.93271888932E+03  0.12499964035E+03 0.  0.
          2    1    1    2  501    0  0.37963494121E+02 -0.10890201425E+02 -0.74711617157E+03  0.74815933944E+03  0.00000000000E+00 0. -1.
          1    1    1    2  502    0  0.90400911018E+02 -0.30732952250E+01  0.11744686022E+04  0.11779466318E+04  0.00000000000E+00 0. -1.
         22    1    3    3    0    0  0.13883652498E+02  0.11741385586E+01  0.12404493233E+02  0.18654915181E+02  0.00000000000E+00 0. -1.
         22    1    3    3    0    0 -0.14224805764E+03  0.12789358091E+02  0.90283712331E+03  0.91406397414E+03  0.00000000000E+00 0. -1.
</event>
<event>
 7    1  0.6253338E-006  0.4865929E+02  0.7818608E-02  0.1462317E+00
          2   -1    0    0  502    0  0.00000000000E+00  0.00000000000E+00  0.22981892648E+03  0.22981892648E+03  0.00000000000E+00 0. -1.
          1   -1    0    0  501    0 -0.00000000000E+00 -0.00000000000E+00 -0.22166633586E+04  0.22166633586E+04  0.00000000000E+00 0. -1.
         25    2    1    2    0    0  0.52950994365E+01  0.63681115070E+00 -0.28694946656E+02  0.12831649555E+03  0.12495310904E+03 0.  0.
          2    1    1    2  501    0  0.45301758758E+02 -0.24565837848E+01 -0.21343517486E+04  0.21348338743E+04  0.00000000000E+00 0. -1.
          1    1    1    2  502    0 -0.50596858195E+02  0.18197726341E+01  0.17620226310E+03  0.18333191526E+03  0.00000000000E+00 0. -1.
         22    1    3    3    0    0  0.17472811944E-01  0.57420826881E+01 -0.78129175560E+02  0.78339899749E+02  0.00000000000E+00 0.  1.
         22    1    3    3    0    0  0.52776266246E+01 -0.51052715374E+01  0.49434228905E+02  0.49976595799E+02  0.00000000000E+00 0.  1.
</event>
<event>
 7    1  0.6253338E-006  0.4059758E+03  0.7818608E-02  0.1207193E+00
          2   -1    0    0  502    0  0.00000000000E+00  0.00000000000E+00  0.35617018360E+04  0.35617018360E+04  0.00000000000E+00 0. -1.
          1   -1    0    0  501    0 -0.00000000000E+00 -0.00000000000E+00 -0.10705601351E+03  0.10705601351E+03  0.00000000000E+00 0. -1.
         25    2    1    2    0    0 -0.29449599152E+03  0.21655073481E+03  0.54965733650E+03  0.67184109089E+03  0.12500061628E+03 0.  0.
          2    1    1    2  501    0 -0.32997559857E+02  0.39600240934E+02 -0.99314530946E+01  0.52494302539E+02  0.00000000000E+00 0. -1.
          1    1    1    2  502    0  0.32749355138E+03 -0.25615097574E+03  0.29149199391E+04  0.29444224561E+04  0.00000000000E+00 0. -1.
         22    1    3    3    0    0 -0.26852947905E+03  0.14019819470E+03  0.46457046852E+03  0.55460737026E+03  0.00000000000E+00 0. -1.
         22    1    3    3    0    0 -0.25966512466E+02  0.76352540112E+02  0.85086867974E+02  0.11723372063E+03  0.00000000000E+00 0. -1.
</event>
<event>
 7    1  0.6253338E-006  0.7635675E+02  0.7818608E-02  0.1356547E+00
          2   -1    0    0  502    0  0.00000000000E+00  0.00000000000E+00  0.92909803008E+03  0.92909803008E+03  0.00000000000E+00 0. -1.
          1   -1    0    0  501    0 -0.00000000000E+00 -0.00000000000E+00 -0.13624620714E+04  0.13624620714E+04  0.00000000000E+00 0. -1.
         25    2    1    2    0    0  0.32507638278E+01  0.26031927717E+02  0.23447110649E+03  0.26699973126E+03  0.12499571189E+03 0.  0.
          2    1    1    2  501    0 -0.68955100945E+02 -0.33419894929E+02 -0.13434923305E+04  0.13456757921E+04  0.00000000000E+00 0. -1.
          1    1    1    2  502    0  0.65704337117E+02  0.73879672119E+01  0.67565718266E+03  0.67888457815E+03  0.00000000000E+00 0. -1.
         22    1    3    3    0    0  0.11779266166E+02 -0.21569910417E+02  0.21244199102E+03  0.21385885929E+03  0.00000000000E+00 0.  1.
         22    1    3    3    0    0 -0.85285023380E+01  0.47601838133E+02  0.22029115464E+02  0.53140871972E+02  0.00000000000E+00 0.  1.
</event>
<event>
 7    1  0.6253338E-006  0.8311277E+02  0.7818608E-02  0.1425375E+00
          2   -1    0    0  502    0  0.00000000000E+00  0.00000000000E+00  0.16620708066E+04  0.16620708066E+04  0.00000000000E+00 0. -1.
          1   -1    0    0  501    0 -0.00000000000E+00 -0.00000000000E+00 -0.28639262137E+03  0.28639262137E+03  0.00000000000E+00 0. -1.
         25    2    1    2    0    0 -0.95394939280E+02  0.46807303994E+02  0.36513777559E+02  0.16807632880E+03  0.12500111281E+03 0.  0.
          2    1    1    2  501    0  0.61200480397E+02 -0.54058107603E+02 -0.21285178719E+03  0.22797732586E+03  0.00000000000E+00 0. -1.
          1    1    1    2  502    0  0.34194458883E+02  0.72508036088E+01  0.15520161948E+04  0.15524097733E+04  0.00000000000E+00 0. -1.
         22    1    3    3    0    0 -0.96877640924E+02  0.58198571798E+02  0.69821395262E+02  0.13284343532E+03  0.00000000000E+00 0.  1.
         22    1    3    3    0    0  0.14827016441E+01 -0.11391267804E+02 -0.33307617703E+02  0.35232893486E+02  0.00000000000E+00 0.  1.
</event>
<event>
 7    1  0.6253338E-006  0.5097080E+02  0.7818608E-02  0.1440259E+00
          2   -1    0    0  502    0  0.00000000000E+00  0.00000000000E+00  0.39449284932E+04  0.39449284932E+04  0.00000000000E+00 0. -1.
          1   -1    0    0  501    0 -0.00000000000E+00 -0.00000000000E+00 -0.73881423920E+02  0.73881423920E+02  0.00000000000E+00 0. -1.
         25    2    1    2    0    0  0.16260560121E+02  0.13609488967E+02  0.30959431588E+03  0.33455119394E+03  0.12500494763E+03 0.  0.
          2    1    1    2  501    0 -0.39004956498E+02  0.32762188102E+02 -0.50622080709E+02  0.71814640958E+02  0.00000000000E+00 0. -1.
          1    1    1    2  502    0  0.22744396376E+02 -0.46371677069E+02  0.36120748341E+04  0.36124440822E+04  0.00000000000E+00 0. -1.
         22    1    3    3    0    0 -0.33094405287E+02 -0.41195530457E+02  0.12015295796E+03  0.13125945565E+03  0.00000000000E+00 0. -1.
         22    1    3    3    0    0  0.49354965408E+02  0.54805019424E+02  0.18944135792E+03  0.20329173829E+03  0.00000000000E+00 0. -1.
</event>
<event>
 7    1  0.6253338E-006  0.7742155E+02  0.7818608E-02  0.1459693E+00
          2   -1    0    0  502    0  0.00000000000E+00  0.00000000000E+00  0.18370144550E+04  0.18370144550E+04  0.00000000000E+00 0. -1.
          1   -1    0    0  501    0 -0.00000000000E+00 -0.00000000000E+00 -0.67371906396E+02  0.67371906396E+02  0.00000000000E+00 0. -1.
         25    2    1    2    0    0 -0.36685891579E+02 -0.69604542868E+02  0.35663918731E+03  0.38601471265E+03  0.12500080569E+03 0.  0.
          2    1    1    2  501    0 -0.22126437779E+02  0.18841789937E+02 -0.47563839840E+02  0.55739673099E+02  0.00000000000E+00 0. -1.
          1    1    1    2  502    0  0.58812329358E+02  0.50762752931E+02  0.14605672011E+04  0.14626319756E+04  0.00000000000E+00 0. -1.
         22    1    3    3    0    0 -0.47959212614E+01 -0.27469423042E+02  0.25467099064E+01  0.28000996310E+02  0.00000000000E+00 0. -1.
         22    1    3    3    0    0 -0.31889970318E+02 -0.42135119826E+02  0.35409247741E+03  0.35801371634E+03  0.00000000000E+00 0. -1.
</event>
<event>
 7    1  0.6253338E-006  0.5369257E+02  0.7818608E-02  0.1550006E+00
          2   -1    0    0  502    0  0.00000000000E+00  0.00000000000E+00  0.64292696191E+03  0.64292696191E+03  0.00000000000E+00 0. -1.
          1   -1    0    0  501    0 -0.00000000000E+00 -0.00000000000E+00 -0.43929522644E+03  0.43929522644E+03  0.00000000000E+00 0. -1.
         25    2    1    2    0    0  0.42044270844E+02  0.42071777519E+02  0.40745149569E+03  0.43032610234E+03  0.12500431129E+03 0.  0.
          2    1    1    2  501    0 -0.20701796878E+02 -0.49535249064E+02 -0.42559673888E+03  0.42896956703E+03  0.00000000000E+00 0. -1.
          1    1    1    2  502    0 -0.21342473965E+02  0.74634715449E+01  0.22177697865E+03  0.22292651897E+03  0.00000000000E+00 0. -1.
         22    1    3    3    0    0  0.79459044072E+01 -0.17888359301E+02  0.31171352751E+03  0.31232747882E+03  0.00000000000E+00 0. -1.
         22    1    3    3    0    0  0.34098366437E+02  0.59960136820E+02  0.95737968189E+02  0.11799862353E+03  0.00000000000E+00 0. -1.
</event>
<event>
 7    1  0.6253338E-006  0.1089794E+03  0.7818608E-02  0.1437909E+00
          2   -1    0    0  502    0  0.00000000000E+00  0.00000000000E+00  0.52037448749E+03  0.52037448749E+03  0.00000000000E+00 0. -1.
          1   -1    0    0  501    0 -0.00000000000E+00 -0.00000000000E+00 -0.44773083793E+03  0.44773083793E+03  0.00000000000E+00 0. -1.
         25    2    1    2    0    0  0.11507007979E+03 -0.33917343304E+02  0.26441490928E+03  0.31611854325E+03  0.12499671874E+03 0.  0.
          2    1    1    2  501    0 -0.21176835629E+02 -0.11809547634E+02 -0.40965228780E+03  0.41036924919E+03  0.00000000000E+00 0. -1.
          1    1    1    2  502    0 -0.93893244160E+02  0.45726890938E+02  0.21788102807E+03  0.24161753298E+03  0.00000000000E+00 0. -1.
         22    1    3    3    0    0  0.40771232677E+02 -0.76445806306E+02  0.11601206014E+03  0.14479313801E+03  0.00000000000E+00 0. -1.
         22    1    3    3    0    0  0.74298847112E+02  0.42528463002E+02  0.14840284914E+03  0.17132540524E+03  0.00000000000E+00 0. -1.
</event>
<event>
 7    1  0.6253338E-006  0.1002749E+03  0.7818608E-02  0.1332028E+00
          2   -1    0    0  502    0  0.00000000000E+00  0.00000000000E+00  0.63742346971E+03  0.63742346971E+03  0.00000000000E+00 0. -1.
          1   -1    0    0  501    0 -0.00000000000E+00 -0.00000000000E+00 -0.94733445697E+03  0.94733445697E+03  0.00000000000E+00 0. -1.
         25    2    1    2    0    0 -0.98121024083E+01 -0.94298425654E+02 -0.17328776780E+03  0.23375786472E+03  0.12500247363E+03 0.  0.
          2    1    1    2  501    0 -0.52114558692E+02  0.88729123686E+02 -0.73864386417E+03  0.74577714010E+03  0.00000000000E+00 0. -1.
          1    1    1    2  502    0  0.61926661101E+02  0.55693019682E+01  0.60202064472E+03  0.60522292186E+03  0.00000000000E+00 0. -1.
         22    1    3    3    0    0  0.11042972679E+02 -0.68078547952E+02 -0.13222970074E+02  0.70224517616E+02  0.00000000000E+00 0.  1.
         22    1    3    3    0    0 -0.20855075088E+02 -0.26219877702E+02 -0.16006479773E+03  0.16353334710E+03  0.00000000000E+00 0.  1.
</event>
<event>
 7    1  0.6253338E-006  0.4882474E+02  0.7818608E-02  0.1464384E+00
          2   -1    0    0  502    0  0.00000000000E+00  0.00000000000E+00  0.11095850378E+04  0.11095850378E+04  0.00000000000E+00 0. -1.
          1   -1    0    0  501    0 -0.00000000000E+00 -0.00000000000E+00 -0.31299953118E+03  0.31299953118E+03  0.00000000000E+00 0. -1.
         25    2    1    2    0    0 -0.67144386391E+02  0.61991395960E+02 -0.34308113286E+02  0.15859669243E+03  0.12499824965E+03 0.  0.
          2    1    1    2  501    0  0.36730738504E+02 -0.29446590298E+02 -0.21350815075E+03  0.21863663753E+03  0.00000000000E+00 0. -1.
          1    1    1    2  502    0  0.30413647888E+02 -0.32544805662E+02  0.10444017707E+04  0.10453512390E+04  0.00000000000E+00 0. -1.
         22    1    3    3    0    0 -0.94474416631E+02  0.69045961755E+02 -0.38621614137E+01  0.11707978700E+03  0.00000000000E+00 0. -1.
         22    1    3    3    0    0  0.27330030239E+02 -0.70545657949E+01 -0.30445951872E+02  0.41516905434E+02  0.00000000000E+00 0. -1.
</event>
<event>
 7    1  0.6253338E-006  0.1234137E+03  0.7818608E-02  0.1431377E+00
          2   -1    0    0  502    0  0.00000000000E+00  0.00000000000E+00  0.73928123111E+03  0.73928123111E+03  0.00000000000E+00 0. -1.
          1   -1    0    0  501    0 -0.00000000000E+00 -0.00000000000E+00 -0.80045229025E+03  0.80045229025E+03  0.00000000000E+00 0. -1.
         25    2    1    2    0    0  0.45533045279E+02 -0.92727030175E+02 -0.32058285608E+03  0.35926276244E+03  0.12499921811E+03 0.  0.
          2    1    1    2  501    0  0.18046144849E+02 -0.13422690075E+02 -0.45493319556E+03  0.45548879720E+03  0.00000000000E+00 0. -1.
          1    1    1    2  502    0 -0.63579190128E+02  0.10614972025E+03  0.71434499249E+03  0.72498196172E+03  0.00000000000E+00 0. -1.
         22    1    3    3    0    0 -0.43322606714E+02 -0.34958661289E+02 -0.97183635496E+02  0.11199828240E+03  0.00000000000E+00 0.  1.
         22    1    3    3    0    0  0.88855651994E+02 -0.57768368887E+02 -0.22339922058E+03  0.24726448005E+03  0.00000000000E+00 0.  1.
</event>
<event>
 7    1  0.6253338E-006  0.6353758E+02  0.7818608E-02  0.1398798E+00
          2   -1    0    0  502    0  0.00000000000E+00  0.00000000000E+00  0.62988441343E+03  0.62988441343E+03  0.00000000000E+00 0. -1.
          1   -1    0    0  501    0 -0.00000000000E+00 -0.00000000000E+00 -0.10314014683E+04  0.10314014683E+04  0.00000000000E+00 0. -1.
         25    2    1    2    0    0  0.15926218334E+02 -0.58414275427E+02  0.71717172174E+02  0.15631548816E+03  0.12500122819E+03 0.  0.
          2    1    1    2  501    0 -0.59528476881E+02  0.22913782011E+02 -0.98653717136E+03  0.98859712292E+03  0.00000000000E+00 0. -1.
          1    1    1    2  502    0  0.43602258547E+02  0.35500493416E+02  0.51330294432E+03  0.51637327064E+03  0.00000000000E+00 0. -1.
         22    1    3    3    0    0  0.40204654124E+02  0.22014594052E+02  0.53314976302E+02  0.70310335389E+02  0.00000000000E+00 0.  1.
         22    1    3    3    0    0 -0.24278435789E+02 -0.80428869479E+02  0.18402195872E+02  0.86005152770E+02  0.00000000000E+00 0.  1.
</event>
<event>
 7    1  0.6253338E-006  0.8658154E+02  0.7818608E-02  0.1385759E+00
          2   -1    0    0  502    0  0.00000000000E+00  0.00000000000E+00  0.26900330979E+03  0.26900330979E+03  0.00000000000E+00 0. -1.
          1   -1    0    0  501    0 -0.00000000000E+00 -0.00000000000E+00 -0.40721322015E+03  0.40721322015E+03  0.00000000000E+00 0. -1.
         25    2    1    2    0    0  0.99174150601E+02  0.23397902557E+01  0.36812164341E+02  0.16377164208E+03  0.12500011416E+03 0.  0.
          2    1    1    2  501    0 -0.75749694685E+02 -0.41699949892E+02 -0.33503085563E+03  0.34600950318E+03  0.00000000000E+00 0. -1.
          1    1    1    2  502    0 -0.23424455916E+02  0.39360159636E+02  0.16000878093E+03  0.16643538469E+03  0.00000000000E+00 0. -1.
         22    1    3    3    0    0  0.79664321425E+02 -0.49145134098E+02 -0.63405420544E+01  0.93818179407E+02  0.00000000000E+00 0. -1.
         22    1    3    3    0    0  0.19509829176E+02  0.51484924354E+02  0.43152706396E+02  0.69953462670E+02  0.00000000000E+00 0. -1.
</event>
<event>
 7    1  0.6253338E-006  0.7146291E+02  0.7818608E-02  0.1502854E+00
          2   -1    0    0  502    0  0.00000000000E+00  0.00000000000E+00  0.25852045130E+02  0.25852045130E+02  0.00000000000E+00 0. -1.
          1   -1    0    0  501    0 -0.00000000000E+00 -0.00000000000E+00 -0.16694716030E+04  0.16694716030E+04  0.00000000000E+00 0. -1.
         25    2    1    2    0    0 -0.37690713257E+02 -0.37434409306E+02 -0.42093350141E+03  0.44230150964E+03  0.12499475174E+03 0.  0.
          2    1    1    2  501    0  0.60546292194E+02  0.41545692130E+02 -0.12271749485E+04  0.12293698599E+04  0.00000000000E+00 0. -1.
          1    1    1    2  502    0 -0.22855578937E+02 -0.41112828239E+01  0.44888920153E+01  0.23652278675E+02  0.00000000000E+00 0. -1.
         22    1    3    3    0    0  0.12012930925E+02 -0.49703743449E+02 -0.64989764002E+02  0.82694873162E+02  0.00000000000E+00 0.  1.
         22    1    3    3    0    0 -0.49703644182E+02  0.12269334143E+02 -0.35594373740E+03  0.35960663648E+03  0.00000000000E+00 0.  1.
</event>
<event>
 7    1  0.6253338E-006  0.7467353E+02  0.7818608E-02  0.1379092E+00
          2   -1    0    0  502    0  0.00000000000E+00  0.00000000000E+00  0.46960890940E+03  0.46960890940E+03  0.00000000000E+00 0. -1.
          1   -1    0    0  501    0 -0.00000000000E+00 -0.00000000000E+00 -0.67420901367E+03  0.67420901367E+03  0.00000000000E+00 0. -1.
         25    2    1    2    0    0 -0.44955363437E+02 -0.94507014398E+01 -0.20677542695E+03  0.24595030490E+03  0.12500069931E+03 0.  0.
          2    1    1    2  501    0 -0.15910068809E+02  0.53758973645E+02 -0.44291802535E+03  0.44645216397E+03  0.00000000000E+00 0. -1.
          1    1    1    2  502    0  0.60865432246E+02 -0.44308272206E+02  0.44509334803E+03  0.45141545420E+03  0.00000000000E+00 0. -1.
         22    1    3    3    0    0 -0.22707640978E+02 -0.39215438492E+02 -0.10935847462E+02  0.46616309749E+02  0.00000000000E+00 0. -1.
         22    1    3    3    0    0 -0.22247722459E+02  0.29764737052E+02 -0.19583957949E+03  0.19933399515E+03  0.00000000000E+00 0. -1.
</event>
<event>
 7    1  0.6253338E-006  0.1392015E+03  0.7818608E-02  0.1312010E+00
          2   -1    0    0  502    0  0.00000000000E+00  0.00000000000E+00  0.32163962426E+03  0.32163962426E+03  0.00000000000E+00 0. -1.
          1   -1    0    0  501    0 -0.00000000000E+00 -0.00000000000E+00 -0.14021951680E+04  0.14021951680E+04  0.00000000000E+00 0. -1.
         25    2    1    2    0    0  0.63766132920E+02 -0.77571386902E+02 -0.24689117178E+01  0.16036534121E+03  0.12501002905E+03 0.  0.
          2    1    1    2  501    0  0.13323483853E+02 -0.51846044542E+02 -0.12967975122E+04  0.12979018897E+04  0.00000000000E+00 0. -1.
          1    1    1    2  502    0 -0.77089616774E+02  0.12941743144E+03  0.21871088015E+03  0.26556756141E+03  0.00000000000E+00 0. -1.
         22    1    3    3    0    0  0.20605244486E+02 -0.95829677561E+01 -0.58167519273E+02  0.62448936498E+02  0.00000000000E+00 0. -1.
         22    1    3    3    0    0  0.43160888435E+02 -0.67988419146E+02  0.55698607556E+02  0.97916404714E+02  0.00000000000E+00 0. -1.
</event>
<event>
 7    1  0.6253338E-006  0.9736288E+02  0.7818608E-02  0.1303591E+00
          2   -1    0    0  502    0  0.00000000000E+00  0.00000000000E+00  0.38246925034E+03  0.38246925034E+03  0.00000000000E+00 0. -1.
          1   -1    0    0  501    0 -0.00000000000E+00 -0.00000000000E+00 -0.98523214110E+03  0.98523214110E+03  0.00000000000E+00 0. -1.
         25    2    1    2    0    0 -0.13518171907E+03 -0.63467015482E+02 -0.48917144757E+03  0.52651512684E+03  0.12500925746E+03 0.  0.
          2    1    1    2  501    0  0.38692030690E+02  0.73013114803E+02 -0.46723798272E+03  0.47448848318E+03  0.00000000000E+00 0. -1.
          1    1    1    2  502    0  0.96489688382E+02 -0.95460993212E+01  0.35364653954E+03  0.36669778142E+03  0.00000000000E+00 0. -1.
         22    1    3    3    0    0 -0.12918604770E+03 -0.16150760905E+02 -0.43629821983E+03  0.45530870694E+03  0.00000000000E+00 0. -1.
         22    1    3    3    0    0 -0.59956713760E+01 -0.47316254577E+02 -0.52873227745E+02  0.71206419897E+02  0.00000000000E+00 0. -1.
</event>
<event>
 7    1  0.1284930E-005  0.1193830E+03  0.7818608E-02  0.1315326E+00
          2   -1    0    0  502    0  0.00000000000E+00  0.00000000000E+00  0.23558563566E+04  0.23558563566E+04  0.00000000000E+00 0. -1.
          1   -1    0    0  501    0 -0.00000000000E+00 -0.00000000000E+00 -0.13689425774E+04  0.13689425774E+04  0.00000000000E+00 0. -1.
         25    2    1    2    0    0 -0.25212181107E+02 -0.54946512445E+02 -0.11293074993E+03  0.17897730584E+03  0.12499899368E+03 0.  0.
          2    1    1    2  501    0 -0.10286368907E+02 -0.59697849807E+02 -0.12206867516E+04  0.12221889331E+04  0.00000000000E+00 0. -1.
          1    1    1    2  502    0  0.35498550014E+02  0.11464436225E+03  0.23205312807E+04  0.23236326950E+04  0.00000000000E+00 0. -1.
         22    1    3    3    0    0 -0.11771960135E+02 -0.89490072969E+02 -0.43331432816E+02  0.10012325042E+03  0.00000000000E+00 0. -1.
         22    1    3    3    0    0 -0.13440220972E+02  0.34543560524E+02 -0.69599317110E+02  0.78854055417E+02  0.00000000000E+00 0. -1.
</event>
<event>
 7    1  0.6253338E-006  0.5953615E+02  0.7818608E-02  0.1417161E+00
          2   -1    0    0  502    0  0.00000000000E+00  0.00000000000E+00  0.40217233879E+02  0.40217233879E+02  0.00000000000E+00 0. -1.
          1   -1    0    0  501    0 -0.00000000000E+00 -0.00000000000E+00 -0.10268389290E+04  0.10268389290E+04  0.00000000000E+00 0. -1.
         25    2    1    2    0    0  0.45816261045E+02  0.31298047225E+02 -0.11477204500E+03  0.17853899480E+03  0.12499941126E+03 0.  0.
          2    1    1    2  501    0 -0.57274897697E+02  0.19395790396E+02 -0.78484706745E+03  0.78717312574E+03  0.00000000000E+00 0. -1.
          1    1    1    2  502    0  0.11458636652E+02 -0.50693837621E+02 -0.87002582676E+02  0.10134404235E+03  0.00000000000E+00 0. -1.
         22    1    3    3    0    0  0.39625446717E+02 -0.92081022578E+01  0.14297866766E+02  0.43120693047E+02  0.00000000000E+00 0. -1.
         22    1    3    3    0    0  0.61908143272E+01  0.40506149483E+02 -0.12906991176E+03  0.13541830176E+03  0.00000000000E+00 0. -1.
</event>
<event>
 7    1  0.6253338E-006  0.9174355E+02  0.7818608E-02  0.1460444E+00
          2   -1    0    0  502    0  0.00000000000E+00  0.00000000000E+00  0.61028999688E+03  0.61028999688E+03  0.00000000000E+00 0. -1.
          1   -1    0    0  501    0 -0.00000000000E+00 -0.00000000000E+00 -0.92089339830E+02  0.92089339830E+02  0.00000000000E+00 0. -1.
         25    2    1    2    0    0  0.69544545838E+02  0.50160617711E+02  0.14850911780E+03  0.21220821217E+03  0.12499934327E+03 0.  0.
          2    1    1    2  501    0 -0.59240063569E+02 -0.72268712282E+02 -0.23393789639E+02  0.96329752934E+02  0.00000000000E+00 0. -1.
          1    1    1    2  502    0 -0.10304482269E+02  0.22108094572E+02  0.39308532889E+03  0.39384137161E+03  0.00000000000E+00 0. -1.
         22    1    3    3    0    0  0.71182743551E+02 -0.20635798617E+02  0.44715072695E+02  0.86557823968E+02  0.00000000000E+00 0.  1.
         22    1    3    3    0    0 -0.16381977134E+01  0.70796416327E+02  0.10379404511E+03  0.12565038821E+03  0.00000000000E+00 0.  1.
</event>
<event>
 7    1  0.6253338E-006  0.1137601E+03  0.7818608E-02  0.1362221E+00
          2   -1    0    0  502    0  0.00000000000E+00  0.00000000000E+00  0.12166451374E+04  0.12166451374E+04  0.00000000000E+00 0. -1.
          1   -1    0    0  501    0 -0.00000000000E+00 -0.00000000000E+00 -0.15146092416E+03  0.15146092416E+03  0.00000000000E+00 0. -1.
         25    2    1    2    0    0  0.97523222807E+02 -0.73496315656E+02 -0.96239489848E+01  0.17501576559E+03  0.12500164162E+03 0.  0.
          2    1    1    2  501    0 -0.10652685896E+03  0.32154501917E+02 -0.60177663491E+01  0.11143651639E+03  0.00000000000E+00 0. -1.
          1    1    1    2  502    0  0.90036361539E+01  0.41341813739E+02  0.10808259286E+04  0.10816537796E+04  0.00000000000E+00 0. -1.
         22    1    3    3    0    0  0.38270226178E+02 -0.10188243447E+03 -0.10216643348E+02  0.10931157517E+03  0.00000000000E+00 0. -1.
         22    1    3    3    0    0  0.59252996629E+02  0.28386118818E+02  0.59269436324E+00  0.65704190412E+02  0.00000000000E+00 0. -1.
</event>
<event>
 7    1  0.6253338E-006  0.2028075E+03  0.7818608E-02  0.1241829E+00
          2   -1    0    0  502    0  0.00000000000E+00  0.00000000000E+00  0.76459102814E+03  0.76459102814E+03  0.00000000000E+00 0. -1.
          1   -1    0    0  501    0 -0.00000000000E+00 -0.00000000000E+00 -0.92023280787E+03  0.92023280787E+03  0.00000000000E+00 0. -1.
         25    2    1    2    0    0  0.15199419618E+03 -0.71908726705E+02 -0.28086378793E+03  0.35040340680E+03  0.12499991790E+03 0.  0.
          2    1    1    2  501    0  0.51638719616E+02  0.50059102226E+02 -0.58799709624E+03  0.59237914908E+03  0.00000000000E+00 0. -1.
          1    1    1    2  502    0 -0.20363291580E+03  0.21849624478E+02  0.71321910444E+03  0.74204128014E+03  0.00000000000E+00 0. -1.
         22    1    3    3    0    0 -0.15080218098E+01 -0.41515538109E+02 -0.11546923145E+03  0.12271494386E+03  0.00000000000E+00 0. -1.
         22    1    3    3    0    0  0.15350221799E+03 -0.30393188596E+02 -0.16539455647E+03  0.22768846293E+03  0.00000000000E+00 0. -1.
</event>
<event>
 7    1  0.6253338E-006  0.8657291E+02  0.7818608E-02  0.1341335E+00
          2   -1    0    0  502    0  0.00000000000E+00  0.00000000000E+00  0.57057894974E+03  0.57057894974E+03  0.00000000000E+00 0. -1.
          1   -1    0    0  501    0 -0.00000000000E+00 -0.00000000000E+00 -0.16856963158E+04  0.16856963158E+04  0.00000000000E+00 0. -1.
         25    2    1    2    0    0 -0.11857576207E+03  0.72261183399E+02 -0.69288140440E+03  0.71762856560E+03  0.12499691043E+03 0.  0.
          2    1    1    2  501    0  0.53300387660E+02 -0.60028466273E+02 -0.97681362376E+03  0.98010673075E+03  0.00000000000E+00 0. -1.
          1    1    1    2  502    0  0.65275374412E+02 -0.12232717126E+02  0.55457766211E+03  0.55853996919E+03  0.00000000000E+00 0. -1.
         22    1    3    3    0    0 -0.21630470365E+02  0.20943781178E+00 -0.94505296615E+01  0.23605796391E+02  0.00000000000E+00 0.  1.
         22    1    3    3    0    0 -0.96945291708E+02  0.72051745588E+02 -0.68343087474E+03  0.69402276921E+03  0.00000000000E+00 0.  1.
</event>
<event>
 7    1  0.6253338E-006  0.1750405E+03  0.7818608E-02  0.1238856E+00
          2   -1    0    0  502    0  0.00000000000E+00  0.00000000000E+00  0.83600612918E+03  0.83600612918E+03  0.00000000000E+00 0. -1.
          1   -1    0    0  501    0 -0.00000000000E+00 -0.00000000000E+00 -0.18762685803E+04  0.18762685803E+04  0.00000000000E+00 0. -1.
         25    2    1    2    0    0 -0.50714212077E+02 -0.17374765236E+03  0.46705408673E+02  0.22486785016E+03  0.12499590725E+03 0.  0.
          2    1    1    2  501    0 -0.35147922629E+02  0.17194055947E+03 -0.17802230323E+04  0.17888524191E+04  0.00000000000E+00 0. -1.
          1    1    1    2  502    0  0.85862134706E+02  0.18070928892E+01  0.69325517251E+03  0.69855444024E+03  0.00000000000E+00 0. -1.
         22    1    3    3    0    0  0.16108725275E+02  0.13188145961E+02 -0.45137105943E+00  0.20823591422E+02  0.00000000000E+00 0.  1.
         22    1    3    3    0    0 -0.66822937353E+02 -0.18693579832E+03  0.47156779732E+02  0.20404425874E+03  0.00000000000E+00 0.  1.
</event>
<event>
 7    1  0.6253338E-006  0.1170702E+03  0.7818608E-02  0.1435585E+00
          2   -1    0    0  502    0  0.00000000000E+00  0.00000000000E+00  0.11043924999E+04  0.11043924999E+04  0.00000000000E+00 0. -1.
          1   -1    0    0  501    0 -0.00000000000E+00 -0.00000000000E+00 -0.96897460162E+02  0.96897460162E+02  0.00000000000E+00 0. -1.
         25    2    1    2    0    0  0.13636255121E+03 -0.23299497581E+02  0.91362404904E+03  0.93245226307E+03  0.12498283064E+03 0.  0.
          2    1    1    2  501    0 -0.11532056408E+03  0.14090960247E+02 -0.47572842094E+02  0.12554108078E+03  0.00000000000E+00 0. -1.
          1    1    1    2  502    0 -0.21041987135E+02  0.92085373336E+01  0.14144383277E+03  0.14329661619E+03  0.00000000000E+00 0. -1.
         22    1    3    3    0    0  0.34517561091E+02 -0.64153654346E+02  0.46072628805E+03  0.46645028234E+03  0.00000000000E+00 0.  1.
         22    1    3    3    0    0  0.10184499012E+03  0.40854156765E+02  0.45289776099E+03  0.46600198073E+03  0.00000000000E+00 0.  1.
</event>
<event>
 7    1  0.6253338E-006  0.2379613E+03  0.7818608E-02  0.1157051E+00
          2   -1    0    0  502    0  0.00000000000E+00  0.00000000000E+00  0.17548476804E+03  0.17548476804E+03  0.00000000000E+00 0. -1.
          1   -1    0    0  501    0 -0.00000000000E+00 -0.00000000000E+00 -0.97940315034E+03  0.97940315034E+03  0.00000000000E+00 0. -1.
         25    2    1    2    0    0 -0.24523480509E+03 -0.64205901366E+02 -0.42489344497E+03  0.51031724366E+03  0.12500696862E+03 0.  0.
          2    1    1    2  501    0  0.23046294904E+03 -0.89312098831E+02 -0.41789908571E+03  0.48551979127E+03  0.00000000000E+00 0. -1.
          1    1    1    2  502    0  0.14771856051E+02  0.15351800020E+03  0.38874148382E+02  0.15905088346E+03  0.00000000000E+00 0. -1.
         22    1    3    3    0    0 -0.31536178126E+02 -0.59153961667E+02 -0.12782136363E+03  0.14433302710E+03  0.00000000000E+00 0. -1.
         22    1    3    3    0    0 -0.21369862696E+03 -0.50519396987E+01 -0.29707208134E+03  0.36598421656E+03  0.00000000000E+00 0. -1.
</event>
<event>
 7    1  0.6253338E-006  0.1465622E+03  0.7818608E-02  0.1280943E+00
          2   -1    0    0  502    0  0.00000000000E+00  0.00000000000E+00  0.97183356707E+03  0.97183356707E+03  0.00000000000E+00 0. -1.
          1   -1    0    0  501    0 -0.00000000000E+00 -0.00000000000E+00 -0.17158823517E+04  0.17158823517E+04  0.00000000000E+00 0. -1.
         25    2    1    2    0    0 -0.19140126956E+03 -0.91323735928E+02  0.54860737375E+02  0.25220774927E+03  0.12499831020E+03 0.  0.
          2    1    1    2  501    0  0.12680202091E+03  0.70699067897E+02 -0.16125372489E+04  0.16190594461E+04  0.00000000000E+00 0. -1.
          1    1    1    2  502    0  0.64599248653E+02  0.20624668031E+02  0.81362772696E+03  0.81644872340E+03  0.00000000000E+00 0. -1.
         22    1    3    3    0    0 -0.19104297631E+03 -0.10866532990E+03  0.29896686021E+02  0.22180934280E+03  0.00000000000E+00 0.  1.
         22    1    3    3    0    0 -0.35829324859E+00  0.17341593972E+02  0.24964051354E+02  0.30398406464E+02  0.00000000000E+00 0.  1.
</event>
<event>
 7    1  0.6253338E-006  0.7544615E+02  0.7818608E-02  0.1424274E+00
          2   -1    0    0  502    0  0.00000000000E+00  0.00000000000E+00  0.32331296514E+03  0.32331296514E+03  0.00000000000E+00 0. -1.
          1   -1    0    0  501    0 -0.00000000000E+00 -0.00000000000E+00 -0.23078302446E+03  0.23078302446E+03  0.00000000000E+00 0. -1.
         25    2    1    2    0    0 -0.39505952049E+02 -0.96866037119E+02  0.20723245153E+03  0.26365485366E+03  0.12499937398E+03 0.  0.
          2    1    1    2  501    0  0.46275334284E+02  0.58628896364E+02 -0.19086038706E+03  0.20495473013E+03  0.00000000000E+00 0. -1.
          1    1    1    2  502    0 -0.67693822345E+01  0.38237140755E+02  0.76157876214E+02  0.85486405810E+02  0.00000000000E+00 0. -1.
         22    1    3    3    0    0  0.23169637325E+02 -0.86086199800E+02  0.16428669561E+03  0.18691651678E+03  0.00000000000E+00 0. -1.
         22    1    3    3    0    0 -0.62675589374E+02 -0.10779837319E+02  0.42945755927E+02  0.76738336886E+02  0.00000000000E+00 0. -1.
</event>
<event>
 7    1  0.6253338E-006  0.9775529E+02  0.7818608E-02  0.1352504E+00
          2   -1    0    0  502    0  0.00000000000E+00  0.00000000000E+00  0.45220546463E+03  0.45220546463E+03  0.00000000000E+00 0. -1.
          1   -1    0    0  501    0 -0.00000000000E+00 -0.00000000000E+00 -0.22195390081E+03  0.22195390081E+03  0.00000000000E+00 0. -1.
         25    2    1    2    0    0 -0.69948765636E+02 -0.59580601032E+02  0.14741591541E+03  0.21400880121E+03  0.12500254815E+03 0.  0.
          2    1    1    2  501    0  0.37706341336E+02 -0.37876191034E+02 -0.17481580051E+03  0.18280300362E+03  0.00000000000E+00 0. -1.
          1    1    1    2  502    0  0.32242424300E+02  0.97456792066E+02  0.25765144892E+03  0.27734756061E+03  0.00000000000E+00 0. -1.
         22    1    3    3    0    0 -0.39619405941E+02 -0.89108342083E+02  0.14063801775E+03  0.17114042770E+03  0.00000000000E+00 0.  1.
         22    1    3    3    0    0 -0.30329359695E+02  0.29527741051E+02  0.67778976676E+01  0.42868373516E+02  0.00000000000E+00 0.  1.
</event>
<event>
 7    1  0.6253338E-006  0.6975857E+02  0.7818608E-02  0.1493622E+00
          2   -1    0    0  502    0  0.00000000000E+00  0.00000000000E+00  0.37968132672E+03  0.37968132672E+03  0.00000000000E+00 0. -1.
          1   -1    0    0  501    0 -0.00000000000E+00 -0.00000000000E+00 -0.91859924801E+02  0.91859924801E+02  0.00000000000E+00 0. -1.
         25    2    1    2    0    0  0.88017226937E+01  0.82541288344E+02  0.21017347425E+03  0.25824048297E+03  0.12499889264E+03 0.  0.
          2    1    1    2  501    0  0.11920033880E+02 -0.67936002229E+02 -0.48700434416E+02  0.84434115847E+02  0.00000000000E+00 0. -1.
          1    1    1    2  502    0 -0.20721756574E+02 -0.14605286116E+02  0.12634836208E+03  0.12886665270E+03  0.00000000000E+00 0. -1.
         22    1    3    3    0    0  0.25549105016E+02  0.91204923794E+01 -0.73035219704E+01  0.28094155647E+02  0.00000000000E+00 0.  1.
         22    1    3    3    0    0 -0.16747382322E+02  0.73420795965E+02  0.21747699622E+03  0.23014632732E+03  0.00000000000E+00 0.  1.
</event>
<event>
 7    1  0.6253338E-006  0.5786574E+02  0.7818608E-02  0.1552478E+00
          2   -1    0    0  502    0  0.00000000000E+00  0.00000000000E+00  0.15931925123E+04  0.15931925123E+04  0.00000000000E+00 0. -1.
          1   -1    0    0  501    0 -0.00000000000E+00 -0.00000000000E+00 -0.91749810483E+02  0.91749810483E+02  0.00000000000E+00 0. -1.
         25    2    1    2    0    0  0.23420966814E+02  0.30565877942E+02  0.18651828078E+03  0.22780856559E+03  0.12499943565E+03 0.  0.
          2    1    1    2  501    0 -0.38227685657E+02 -0.44958890096E+02 -0.58768866432E+02  0.83285277277E+02  0.00000000000E+00 0. -1.
          1    1    1    2  502    0  0.14806718843E+02  0.14393012154E+02  0.13736932875E+04  0.13738484799E+04  0.00000000000E+00 0. -1.
         22    1    3    3    0    0 -0.47631656362E+02 -0.74810928045E+01  0.89662429283E+02  0.10180418784E+03  0.00000000000E+00 0. -1.
         22    1    3    3    0    0  0.71052623176E+02  0.38046970747E+02  0.96855851497E+02  0.12600437775E+03  0.00000000000E+00 0. -1.
</event>
<event>
 7    1  0.6253338E-006  0.1325300E+03  0.7818608E-02  0.1433442E+00
          2   -1    0    0  502    0  0.00000000000E+00  0.00000000000E+00  0.14314113291E+04  0.14314113291E+04  0.00000000000E+00 0. -1.
          1   -1    0    0  501    0 -0.00000000000E+00 -0.00000000000E+00 -0.71181066040E+03  0.71181066040E+03  0.00000000000E+00 0. -1.
         25    2    1    2    0    0 -0.11248585079E+03  0.43439760394E+02  0.45381301676E+03  0.48591334496E+03  0.12500178084E+03 0.  0.
          2    1    1    2  501    0 -0.88405621479E+01  0.18628172561E+02 -0.69077707780E+03  0.69108475281E+03  0.00000000000E+00 0. -1.
          1    1    1    2  502    0  0.12132641294E+03 -0.62067932956E+02  0.95656472970E+03  0.96622389169E+03  0.00000000000E+00 0. -1.
         22    1    3    3    0    0 -0.13539770821E+03  0.55269978878E+02  0.35869509042E+03  0.38736220498E+03  0.00000000000E+00 0.  1.
         22    1    3    3    0    0  0.22911857418E+02 -0.11830218484E+02  0.95117926342E+02  0.98551139980E+02  0.00000000000E+00 0.  1.
</event>
<event>
 7    1  0.6253338E-006  0.2084247E+03  0.7818608E-02  0.1235569E+00
          2   -1    0    0  502    0  0.00000000000E+00  0.00000000000E+00  0.15760209467E+04  0.15760209467E+04  0.00000000000E+00 0. -1.
          1   -1    0    0  501    0 -0.00000000000E+00 -0.00000000000E+00 -0.22387185952E+04  0.22387185952E+04  0.00000000000E+00 0. -1.
         25    2    1    2    0    0 -0.16922263823E+03  0.18147860002E+02 -0.35284545061E+03  0.41120607452E+03  0.12499951039E+03 0.  0.
          2    1    1    2  501    0 -0.34516113343E+02 -0.66117438505E+02 -0.18488568382E+04  0.18503606367E+04  0.00000000000E+00 0. -1.
          1    1    1    2  502    0  0.20373875158E+03  0.47969578502E+02  0.15390046402E+04  0.15531728307E+04  0.00000000000E+00 0. -1.
         22    1    3    3    0    0 -0.11935093647E+02  0.43958829396E+02 -0.42384344719E+02  0.62219432812E+02  0.00000000000E+00 0. -1.
         22    1    3    3    0    0 -0.15728754459E+03 -0.25810969394E+02 -0.31046110589E+03  0.34898664171E+03  0.00000000000E+00 0. -1.
</event>
<event>
 7    1  0.6253338E-006  0.9677829E+02  0.7818608E-02  0.1332140E+00
          2   -1    0    0  502    0  0.00000000000E+00  0.00000000000E+00  0.17962039904E+03  0.17962039904E+03  0.00000000000E+00 0. -1.
          1   -1    0    0  501    0 -0.00000000000E+00 -0.00000000000E+00 -0.19076952857E+04  0.19076952857E+04  0.00000000000E+00 0. -1.
         25    2    1    2    0    0  0.14684366621E+03  0.38227771268E+02 -0.97156394290E+02  0.21929245046E+03  0.12500155630E+03 0.  0.
          2    1    1    2  501    0 -0.56179771891E+02 -0.31400547412E+02 -0.17313523155E+04  0.17325481239E+04  0.00000000000E+00 0. -1.
          1    1    1    2  502    0 -0.90663894317E+02 -0.68272238561E+01  0.10043382311E+03  0.13547511042E+03  0.00000000000E+00 0. -1.
         22    1    3    3    0    0  0.43282148201E+01  0.29921268539E+02 -0.66828893785E+02  0.73349279472E+02  0.00000000000E+00 0. -1.
         22    1    3    3    0    0  0.14251545139E+03  0.83065027292E+01 -0.30327500505E+02  0.14594317099E+03  0.00000000000E+00 0. -1.
</event>
<event>
 7    1  0.6253338E-006  0.9001882E+02  0.7818608E-02  0.1306190E+00
          2   -1    0    0  502    0  0.00000000000E+00  0.00000000000E+00  0.63748076157E+03  0.63748076157E+03  0.00000000000E+00 0. -1.
          1   -1    0    0  501    0 -0.00000000000E+00 -0.00000000000E+00 -0.74031920803E+03  0.74031920803E+03  0.00000000000E+00 0. -1.
         25    2    1    2    0    0 -0.34254650151E+02  0.30935936492E+00 -0.23779168921E+03  0.27083477734E+03  0.12503244540E+03 0.  0.
          2    1    1    2  501    0  0.78903695918E+02 -0.78474889559E+02 -0.47629562962E+03  0.48912332628E+03  0.00000000000E+00 0. -1.
          1    1    1    2  502    0 -0.44649045767E+02  0.78165530194E+02  0.61124887236E+03  0.61784186598E+03  0.00000000000E+00 0. -1.
         22    1    3    3    0    0 -0.76971492620E+02 -0.11172288484E+02 -0.10363994542E+03  0.12957881383E+03  0.00000000000E+00 0. -1.
         22    1    3    3    0    0  0.42716842468E+02  0.11481647849E+02 -0.13415174378E+03  0.14125596351E+03  0.00000000000E+00 0. -1.
</event>
<event>
 7    1  0.6253338E-006  0.1147150E+03  0.7818608E-02  0.1258284E+00
          2   -1    0    0  502    0  0.00000000000E+00  0.00000000000E+00  0.41156233957E+03  0.41156233957E+03  0.00000000000E+00 0. -1.
          1   -1    0    0  501    0 -0.00000000000E+00 -0.00000000000E+00 -0.81793230880E+03  0.81793230880E+03  0.00000000000E+00 0. -1.
         25    2    1    2    0    0 -0.65608220664E+01  0.12304797556E+02 -0.50907776184E+02  0.13570882400E+03  0.12502332105E+03 0.  0.
          2    1    1    2  501    0  0.11980336033E+03  0.60159591895E+01 -0.71056223244E+03  0.72061621067E+03  0.00000000000E+00 0. -1.
          1    1    1    2  502    0 -0.11324253826E+03 -0.18320756746E+02  0.35510003940E+03  0.37316961369E+03  0.00000000000E+00 0. -1.
         22    1    3    3    0    0  0.42935314485E+02  0.48038382354E+02 -0.21285099728E+02  0.67854129422E+02  0.00000000000E+00 0.  1.
         22    1    3    3    0    0 -0.49496136552E+02 -0.35733584798E+02 -0.29622676456E+02  0.67854694579E+02  0.00000000000E+00 0.  1.
</event>
<event>
 7    1  0.6253338E-006  0.1050790E+03  0.7818608E-02  0.1286951E+00
          2   -1    0    0  502    0  0.00000000000E+00  0.00000000000E+00  0.20038533967E+03  0.20038533967E+03  0.00000000000E+00 0. -1.
          1   -1    0    0  501    0 -0.00000000000E+00 -0.00000000000E+00 -0.57600870186E+03  0.57600870186E+03  0.00000000000E+00 0. -1.
         25    2    1    2    0    0 -0.36801286475E+02  0.37426100001E+02 -0.58966651582E+02  0.14783998558E+03  0.12499819075E+03 0.  0.
          2    1    1    2  501    0  0.33758563766E+02  0.82737046986E+02 -0.44431474932E+03  0.45321149151E+03  0.00000000000E+00 0. -1.
          1    1    1    2  502    0  0.30427227092E+01 -0.12016314699E+03  0.12765803871E+03  0.17534256443E+03  0.00000000000E+00 0. -1.
         22    1    3    3    0    0  0.32277902382E+02 -0.35436322918E+01 -0.59204681775E+02  0.67524918779E+02  0.00000000000E+00 0.  1.
         22    1    3    3    0    0 -0.69079188857E+02  0.40969732293E+02  0.23803019250E+00  0.80315066804E+02  0.00000000000E+00 0.  1.
</event>
<event>
 7    1  0.6253338E-006  0.1240437E+03  0.7818608E-02  0.1443522E+00
          2   -1    0    0  502    0  0.00000000000E+00  0.00000000000E+00  0.18159366562E+04  0.18159366562E+04  0.00000000000E+00 0. -1.
          1   -1    0    0  501    0 -0.00000000000E+00 -0.00000000000E+00 -0.97573963749E+02  0.97573963749E+02  0.00000000000E+00 0. -1.
         25    2    1    2    0    0 -0.15970183503E+02 -0.14227151506E+03  0.12691226995E+04  0.12832749782E+04  0.12500404970E+03 0.  0.
          2    1    1    2  501    0  0.89395902703E+01  0.12309116730E+03 -0.48113860517E+02  0.13246242983E+03  0.00000000000E+00 0. -1.
          1    1    1    2  502    0  0.70305932331E+01  0.19180347758E+02  0.49735385348E+03  0.49777321197E+03  0.00000000000E+00 0. -1.
         22    1    3    3    0    0 -0.34714503312E+02 -0.15792978348E+03  0.99358104878E+03  0.10066529758E+04  0.00000000000E+00 0. -1.
         22    1    3    3    0    0  0.18744319809E+02  0.15658268423E+02  0.27554165073E+03  0.27662200234E+03  0.00000000000E+00 0. -1.
</event>
<event>
 7    1  0.6253338E-006  0.8691186E+02  0.7818608E-02  0.1347715E+00
          2   -1    0    0  502    0  0.00000000000E+00  0.00000000000E+00  0.42796797906E+03  0.42796797906E+03  0.00000000000E+00 0. -1.
          1   -1    0    0  501    0 -0.00000000000E+00 -0.00000000000E+00 -0.52418594385E+03  0.52418594385E+03  0.00000000000E+00 0. -1.
         25    2    1    2    0    0  0.23990683151E+02  0.36893838213E+02 -0.14116968687E+02  0.13327234002E+03  0.12500207851E+03 0.  0.
          2    1    1    2  501    0  0.62129883630E+02 -0.78135784507E+01 -0.44264679341E+03  0.44705408864E+03  0.00000000000E+00 0. -1.
          1    1    1    2  502    0 -0.86120566781E+02 -0.29080259763E+02  0.36054579731E+03  0.37182749426E+03  0.00000000000E+00 0. -1.
         22    1    3    3    0    0  0.14692484324E+02 -0.30557577992E+02 -0.46762705948E+02  0.57761451990E+02  0.00000000000E+00 0. -1.
         22    1    3    3    0    0  0.92981988269E+01  0.67451416205E+02  0.32645737261E+02  0.75510888029E+02  0.00000000000E+00 0. -1.
</event>
<event>
 7    1  0.6253338E-006  0.9076817E+02  0.7818608E-02  0.1458074E+00
          2   -1    0    0  502    0  0.00000000000E+00  0.00000000000E+00  0.75787536688E+03  0.75787536688E+03  0.00000000000E+00 0. -1.
          1   -1    0    0  501    0 -0.00000000000E+00 -0.00000000000E+00 -0.74660453052E+03  0.74660453052E+03  0.00000000000E+00 0. -1.
         25    2    1    2    0    0  0.63569500627E+01  0.93763760788E+02  0.12303343971E+03  0.19898597441E+03  0.12500454820E+03 0.  0.
          2    1    1    2  501    0 -0.24607285922E+02 -0.48577029541E+01 -0.70495368069E+03  0.70539975029E+03  0.00000000000E+00 0. -1.
          1    1    1    2  502    0  0.18250335859E+02 -0.88906057834E+02  0.59319107733E+03  0.60009417270E+03  0.00000000000E+00 0. -1.
         22    1    3    3    0    0 -0.19470022440E+02  0.29726232263E+02 -0.19553697846E+02  0.40559558156E+02  0.00000000000E+00 0.  1.
         22    1    3    3    0    0  0.25826972503E+02  0.64037528525E+02  0.14258713756E+03  0.15842641625E+03  0.00000000000E+00 0.  1.
</event>
<event>
 7    1  0.6253338E-006  0.1043996E+03  0.7818608E-02  0.1275547E+00
          2   -1    0    0  502    0  0.00000000000E+00  0.00000000000E+00  0.50593634437E+03  0.50593634437E+03  0.00000000000E+00 0. -1.
          1   -1    0    0  501    0 -0.00000000000E+00 -0.00000000000E+00 -0.15765950415E+04  0.15765950415E+04  0.00000000000E+00 0. -1.
         25    2    1    2    0    0 -0.78077298545E+02  0.59903659026E+02 -0.68138638421E+03  0.69971194025E+03  0.12499952728E+03 0.  0.
          2    1    1    2  501    0 -0.19459407912E+02 -0.98321439937E+02 -0.87763124223E+03  0.88333593352E+03  0.00000000000E+00 0. -1.
          1    1    1    2  502    0  0.97536706457E+02  0.38417780911E+02  0.48835892932E+03  0.49948351209E+03  0.00000000000E+00 0. -1.
         22    1    3    3    0    0  0.34622539277E+02  0.15979585908E+02 -0.16297724615E+03  0.16737876256E+03  0.00000000000E+00 0.  1.
         22    1    3    3    0    0 -0.11269983782E+03  0.43924073119E+02 -0.51840913806E+03  0.53233317769E+03  0.00000000000E+00 0.  1.
</event>
<event>
 7    1  0.6253338E-006  0.1489019E+03  0.7818608E-02  0.1245632E+00
          2   -1    0    0  502    0  0.00000000000E+00  0.00000000000E+00  0.27883767866E+04  0.27883767866E+04  0.00000000000E+00 0. -1.
          1   -1    0    0  501    0 -0.00000000000E+00 -0.00000000000E+00 -0.12399785834E+03  0.12399785834E+03  0.00000000000E+00 0. -1.
         25    2    1    2    0    0  0.10313355989E+02  0.13539188632E+03  0.38198792008E+03  0.42423633898E+03  0.12499748808E+03 0.  0.
          2    1    1    2  501    0 -0.10245968609E+03 -0.11550445921E+03 -0.43442750992E+02  0.16039495000E+03  0.00000000000E+00 0. -1.
          1    1    1    2  502    0  0.92146330101E+02 -0.19887427114E+02  0.23258337591E+04  0.23277433559E+04  0.00000000000E+00 0. -1.
         22    1    3    3    0    0  0.20675522048E+02 -0.19831195016E+02  0.50537077194E+02  0.58092595733E+02  0.00000000000E+00 0. -1.
         22    1    3    3    0    0 -0.10362166059E+02  0.15522308134E+03  0.33145084289E+03  0.36614374325E+03  0.00000000000E+00 0. -1.
</event>
<event>
 7    1  0.6253338E-006  0.2041713E+03  0.7818608E-02  0.1249602E+00
          2   -1    0    0  502    0  0.00000000000E+00  0.00000000000E+00  0.88723233059E+03  0.88723233059E+03  0.00000000000E+00 0. -1.
          1   -1    0    0  501    0 -0.00000000000E+00 -0.00000000000E+00 -0.17622812985E+03  0.17622812985E+03  0.00000000000E+00 0. -1.
         25    2    1    2    0    0 -0.11582768941E+03  0.11184971027E+03  0.11240073358E+02  0.20415195192E+03  0.12500107560E+03 0.  0.
          2    1    1    2  501    0  0.17820075567E+01  0.66042295328E+02 -0.48385588181E+02  0.81889715268E+02  0.00000000000E+00 0. -1.
          1    1    1    2  502    0  0.11404568185E+03 -0.17789200560E+03  0.74814971557E+03  0.77741879326E+03  0.00000000000E+00 0. -1.
         22    1    3    3    0    0  0.26696604387E+00  0.35868759648E+02  0.48654689287E+02  0.60447646598E+02  0.00000000000E+00 0. -1.
         22    1    3    3    0    0 -0.11609465545E+03  0.75980950622E+02 -0.37414615929E+02  0.14370430532E+03  0.00000000000E+00 0. -1.
</event>
<event>
 7    1  0.6253338E-006  0.2947139E+03  0.7818608E-02  0.1178904E+00
          2   -1    0    0  502    0  0.00000000000E+00  0.00000000000E+00  0.10148537002E+04  0.10148537002E+04  0.00000000000E+00 0. -1.
          1   -1    0    0  501    0 -0.00000000000E+00 -0.00000000000E+00 -0.24239109133E+04  0.24239109133E+04  0.00000000000E+00 0. -1.
         25    2    1    2    0    0  0.16772139179E+03 -0.13586318063E+03 -0.20667237336E+03  0.32392169193E+03  0.12499009353E+03 0.  0.
          2    1    1    2  501    0 -0.22201184251E+03  0.21612688156E+03 -0.21449990228E+04  0.21672611506E+04  0.00000000000E+00 0. -1.
          1    1    1    2  502    0  0.54290450723E+02 -0.80263700929E+02  0.94261418298E+03  0.94758177098E+03  0.00000000000E+00 0. -1.
         22    1    3    3    0    0  0.23229939690E+02 -0.47796456120E+02 -0.12541250612E+03  0.13620729792E+03  0.00000000000E+00 0. -1.
         22    1    3    3    0    0  0.14449145210E+03 -0.88066724512E+02 -0.81259867242E+02  0.18771439402E+03  0.00000000000E+00 0. -1.
</event>
<event>
 7    1  0.6253338E-006  0.1343789E+03  0.7818608E-02  0.1377084E+00
          2   -1    0    0  502    0  0.00000000000E+00  0.00000000000E+00  0.10268333138E+03  0.10268333138E+03  0.00000000000E+00 0. -1.
          1   -1    0    0  501    0 -0.00000000000E+00 -0.00000000000E+00 -0.57586505504E+03  0.57586505504E+03  0.00000000000E+00 0. -1.
         25    2    1    2    0    0 -0.79385634839E+02  0.13860001510E+03 -0.38492848033E+03  0.43509364765E+03  0.12499801617E+03 0.  0.
          2    1    1    2  501    0  0.42141149348E+01 -0.31388577944E+02 -0.10662869606E+03  0.11123255105E+03  0.00000000000E+00 0. -1.
          1    1    1    2  502    0  0.75171519904E+02 -0.10721143716E+03  0.18375452730E+02  0.13222218772E+03  0.00000000000E+00 0. -1.
         22    1    3    3    0    0 -0.63058308750E+02  0.11775331709E+03 -0.15918708722E+03  0.20780453009E+03  0.00000000000E+00 0.  1.
         22    1    3    3    0    0 -0.16327326089E+02  0.20846698016E+02 -0.22574139312E+03  0.22728911756E+03  0.00000000000E+00 0.  1.
</event>
<event>
 7    1  0.6253338E-006  0.9358403E+02  0.7818608E-02  0.1362600E+00
          2   -1    0    0  502    0  0.00000000000E+00  0.00000000000E+00  0.68888915043E+03  0.68888915043E+03  0.00000000000E+00 0. -1.
          1   -1    0    0  501    0 -0.00000000000E+00 -0.00000000000E+00 -0.28339507212E+04  0.28339507212E+04  0.00000000000E+00 0. -1.
         25    2    1    2    0    0  0.98001186746E+02 -0.65529223518E+02 -0.21363382352E+03  0.27415782670E+03  0.12499916660E+03 0.  0.
          2    1    1    2  501    0 -0.48667267903E+02  0.79485129836E+02 -0.25882171052E+04  0.25898946258E+04  0.00000000000E+00 0. -1.
          1    1    1    2  502    0 -0.49333918843E+02 -0.13955906317E+02  0.65678935798E+03  0.65878741915E+03  0.00000000000E+00 0. -1.
         22    1    3    3    0    0 -0.19733263148E+02  0.17509947585E+02 -0.46815049454E+02  0.53736847640E+02  0.00000000000E+00 0. -1.
         22    1    3    3    0    0  0.11773444989E+03 -0.83039171104E+02 -0.16681877407E+03  0.22042097906E+03  0.00000000000E+00 0. -1.
</event>
<event>
 7    1  0.6253338E-006  0.2723903E+03  0.7818608E-02  0.1293934E+00
          2   -1    0    0  502    0  0.00000000000E+00  0.00000000000E+00  0.56814909307E+03  0.56814909307E+03  0.00000000000E+00 0. -1.
          1   -1    0    0  501    0 -0.00000000000E+00 -0.00000000000E+00 -0.16883329886E+04  0.16883329886E+04  0.00000000000E+00 0. -1.
         25    2    1    2    0    0  0.28553231349E+03  0.69559466879E+02 -0.20472762393E+03  0.37934901206E+03  0.12500020589E+03 0.  0.
          2    1    1    2  501    0 -0.26566024712E+03 -0.44107002389E+02 -0.13827477871E+04  0.14087271693E+04  0.00000000000E+00 0. -1.
          1    1    1    2  502    0 -0.19872066373E+02 -0.25452464490E+02  0.46729151554E+03  0.46840590034E+03  0.00000000000E+00 0. -1.
         22    1    3    3    0    0  0.37604824110E+02 -0.27894881860E+02 -0.64457453598E+01  0.47263039085E+02  0.00000000000E+00 0. -1.
         22    1    3    3    0    0  0.24792748938E+03  0.97454348739E+02 -0.19828187857E+03  0.33208597297E+03  0.00000000000E+00 0. -1.
</event>
<event>
 7    1  0.6253338E-006  0.2267849E+02  0.7818608E-02  0.1717876E+00
          2   -1    0    0  502    0  0.00000000000E+00  0.00000000000E+00  0.11871419821E+03  0.11871419821E+03  0.00000000000E+00 0. -1.
          1   -1    0    0  501    0 -0.00000000000E+00 -0.00000000000E+00 -0.79326292613E+02  0.79326292613E+02  0.00000000000E+00 0. -1.
         25    2    1    2    0    0 -0.37688576599E+02  0.99241701072E+00  0.56307725567E+02  0.14218682969E+03  0.12500048353E+03 0.  0.
          2    1    1    2  501    0  0.18836639703E+02  0.75542758467E+01 -0.26223888567E+02  0.33159891593E+02  0.00000000000E+00 0. -1.
          1    1    1    2  502    0  0.18851936896E+02 -0.85466928574E+01  0.93040686005E+01  0.22693769542E+02  0.00000000000E+00 0. -1.
         22    1    3    3    0    0 -0.38946386129E+02 -0.16228759627E+02  0.92730687019E+02  0.10187823097E+03  0.00000000000E+00 0. -1.
         22    1    3    3    0    0  0.12578095300E+01  0.17221176638E+02 -0.36422961451E+02  0.40308598717E+02  0.00000000000E+00 0. -1.
</event>
<event>
 7    1  0.6253338E-006  0.5379506E+02  0.7818608E-02  0.1446063E+00
          2   -1    0    0  502    0  0.00000000000E+00  0.00000000000E+00  0.61253960812E+02  0.61253960812E+02  0.00000000000E+00 0. -1.
          1   -1    0    0  501    0 -0.00000000000E+00 -0.00000000000E+00 -0.26777305447E+04  0.26777305447E+04  0.00000000000E+00 0. -1.
         25    2    1    2    0    0 -0.20340199077E+02 -0.90232346749E+02 -0.78241615802E+03  0.79771867757E+03  0.12499777639E+03 0.  0.
          2    1    1    2  501    0 -0.54752929669E+01  0.51887955093E+02 -0.18772672104E+04  0.18779921507E+04  0.00000000000E+00 0. -1.
          1    1    1    2  502    0  0.25815492044E+02  0.38344391656E+02  0.43206784563E+02  0.63273677254E+02  0.00000000000E+00 0. -1.
         22    1    3    3    0    0  0.47419205294E+02 -0.32020456155E+02 -0.44556425845E+03  0.44922310609E+03  0.00000000000E+00 0. -1.
         22    1    3    3    0    0 -0.67759404371E+02 -0.58211890594E+02 -0.33685189958E+03  0.34849557147E+03  0.00000000000E+00 0. -1.
</event>
<event>
 7    1  0.6253338E-006  0.1766842E+03  0.7818608E-02  0.1372333E+00
          2   -1    0    0  502    0  0.00000000000E+00  0.00000000000E+00  0.10392035653E+04  0.10392035653E+04  0.00000000000E+00 0. -1.
          1   -1    0    0  501    0 -0.00000000000E+00 -0.00000000000E+00 -0.10076285160E+04  0.10076285160E+04  0.00000000000E+00 0. -1.
         25    2    1    2    0    0  0.80035451851E+01  0.16926027109E+03 -0.64665122102E+02  0.22027113677E+03  0.12499879829E+03 0.  0.
          2    1    1    2  501    0  0.24560832167E+02  0.49074118679E+01 -0.85681200907E+03  0.85717800722E+03  0.00000000000E+00 0. -1.
          1    1    1    2  502    0 -0.32564377352E+02 -0.17416768296E+03  0.95305218044E+03  0.96938293729E+03  0.00000000000E+00 0. -1.
         22    1    3    3    0    0 -0.33176400812E+02  0.24632264675E+01  0.72052456578E+01  0.34039045528E+02  0.00000000000E+00 0.  1.
         22    1    3    3    0    0  0.41179945997E+02  0.16679704462E+03 -0.71870367759E+02  0.18623209125E+03  0.00000000000E+00 0.  1.
</event>
<event>
 7    1  0.6253338E-006  0.1333040E+03  0.7818608E-02  0.1248022E+00
          2   -1    0    0  502    0  0.00000000000E+00  0.00000000000E+00  0.17580557875E+04  0.17580557875E+04  0.00000000000E+00 0. -1.
          1   -1    0    0  501    0 -0.00000000000E+00 -0.00000000000E+00 -0.21782529575E+03  0.21782529575E+03  0.00000000000E+00 0. -1.
         25    2    1    2    0    0  0.10159599851E+03 -0.19137445394E+03  0.20382918633E+03  0.32267255194E+03  0.12500124016E+03 0.  0.
          2    1    1    2  501    0 -0.88895573729E+02  0.89360513560E+02 -0.13124299391E+03  0.18196826059E+03  0.00000000000E+00 0. -1.
          1    1    1    2  502    0 -0.12700424779E+02  0.10201394038E+03  0.14676442993E+04  0.14712402707E+04  0.00000000000E+00 0. -1.
         22    1    3    3    0    0  0.12019733644E+02 -0.80612313332E+02  0.14938450703E+03  0.17017211875E+03  0.00000000000E+00 0.  1.
         22    1    3    3    0    0  0.89576264864E+02 -0.11076214061E+03  0.54444679293E+02  0.15250043319E+03  0.00000000000E+00 0.  1.
</event>
<event>
 7    1  0.6253338E-006  0.8467383E+02  0.7818608E-02  0.1480718E+00
          2   -1    0    0  502    0  0.00000000000E+00  0.00000000000E+00  0.29276916843E+03  0.29276916843E+03  0.00000000000E+00 0. -1.
          1   -1    0    0  501    0 -0.00000000000E+00 -0.00000000000E+00 -0.60919355914E+03  0.60919355914E+03  0.00000000000E+00 0. -1.
         25    2    1    2    0    0 -0.42242949626E+02 -0.67653641663E+02  0.10695783786E+03  0.18283082508E+03  0.12500259795E+03 0.  0.
          2    1    1    2  501    0  0.23969814126E+02  0.81386978982E+02 -0.56719920964E+03  0.57350966492E+03  0.00000000000E+00 0. -1.
          1    1    1    2  502    0  0.18273135500E+02 -0.13733337319E+02  0.14381698106E+03  0.14562223758E+03  0.00000000000E+00 0. -1.
         22    1    3    3    0    0 -0.47464273557E+01 -0.42558598023E+02  0.12658155356E+03  0.13362878635E+03  0.00000000000E+00 0. -1.
         22    1    3    3    0    0 -0.37496522270E+02 -0.25095043640E+02 -0.19623715699E+02  0.49202038733E+02  0.00000000000E+00 0. -1.
</event>
<event>
 7    1  0.6253338E-006  0.8838110E+02  0.7818608E-02  0.1311853E+00
          2   -1    0    0  502    0  0.00000000000E+00  0.00000000000E+00  0.11588169852E+04  0.11588169852E+04  0.00000000000E+00 0. -1.
          1   -1    0    0  501    0 -0.00000000000E+00 -0.00000000000E+00 -0.46510090935E+03  0.46510090935E+03  0.00000000000E+00 0. -1.
         25    2    1    2    0    0 -0.50929123047E+01  0.11750092606E+03  0.37799852539E+03  0.41513652948E+03  0.12499218990E+03 0.  0.
          2    1    1    2  501    0 -0.60921397601E+02 -0.58456937335E+02 -0.43993125115E+03  0.44795997137E+03  0.00000000000E+00 0. -1.
          1    1    1    2  502    0  0.66014309905E+02 -0.59043988724E+02  0.75564880158E+03  0.76082139365E+03  0.00000000000E+00 0. -1.
         22    1    3    3    0    0 -0.25423484084E+02  0.13878813517E+03  0.29342439223E+03  0.32558620051E+03  0.00000000000E+00 0.  1.
         22    1    3    3    0    0  0.20330571779E+02 -0.21287209106E+02  0.84574133160E+02  0.89550328979E+02  0.00000000000E+00 0.  1.
</event>
<event>
 7    1  0.6253338E-006  0.1403539E+03  0.7818608E-02  0.1343885E+00
          2   -1    0    0  502    0  0.00000000000E+00  0.00000000000E+00  0.18963602307E+03  0.18963602307E+03  0.00000000000E+00 0. -1.
          1   -1    0    0  501    0 -0.00000000000E+00 -0.00000000000E+00 -0.19374836714E+04  0.19374836714E+04  0.00000000000E+00 0. -1.
         25    2    1    2    0    0  0.14921041790E+03 -0.79879621477E+02 -0.39833178301E+03  0.45048599712E+03  0.12499968604E+03 0.  0.
          2    1    1    2  501    0 -0.10924957327E+03  0.82870136701E+02 -0.15074608029E+04  0.15136845778E+04  0.00000000000E+00 0. -1.
          1    1    1    2  502    0 -0.39960844634E+02 -0.29905152235E+01  0.15794493753E+03  0.16294911959E+03  0.00000000000E+00 0. -1.
         22    1    3    3    0    0  0.15588683336E+03 -0.10262112252E+03 -0.35699301030E+03  0.40283471673E+03  0.00000000000E+00 0. -1.
         22    1    3    3    0    0 -0.66764154654E+01  0.22741501046E+02 -0.41338772715E+02  0.47651280391E+02  0.00000000000E+00 0. -1.
</event>
<event>
 7    1  0.6253338E-006  0.9320163E+02  0.7818608E-02  0.1311841E+00
          2   -1    0    0  502    0  0.00000000000E+00  0.00000000000E+00  0.15013971661E+04  0.15013971661E+04  0.00000000000E+00 0. -1.
          1   -1    0    0  501    0 -0.00000000000E+00 -0.00000000000E+00 -0.29212329523E+03  0.29212329523E+03  0.00000000000E+00 0. -1.
         25    2    1    2    0    0 -0.13644584447E+03  0.46244671030E+02  0.27193000307E+02  0.19266750345E+03  0.12500107818E+03 0.  0.
          2    1    1    2  501    0  0.45877435710E+02 -0.65628158389E+02 -0.20012365324E+03  0.21554876679E+03  0.00000000000E+00 0. -1.
          1    1    1    2  502    0  0.90568408760E+02  0.19383487359E+02  0.13822045238E+04  0.13853041911E+04  0.00000000000E+00 0. -1.
         22    1    3    3    0    0 -0.12208894799E+03 -0.85322628260E+01  0.49211624309E+02  0.13191017663E+03  0.00000000000E+00 0.  1.
         22    1    3    3    0    0 -0.14356896476E+02  0.54776933856E+02 -0.22018624002E+02  0.60757326817E+02  0.00000000000E+00 0.  1.
</event>
<event>
 7    1  0.6253338E-006  0.1418000E+03  0.7818608E-02  0.1362816E+00
          2   -1    0    0  502    0  0.00000000000E+00  0.00000000000E+00  0.14527741997E+03  0.14527741997E+03  0.00000000000E+00 0. -1.
          1   -1    0    0  501    0 -0.00000000000E+00 -0.00000000000E+00 -0.13093988802E+04  0.13093988802E+04  0.00000000000E+00 0. -1.
         25    2    1    2    0    0 -0.51047143460E+01  0.11901753387E+03 -0.86826260747E+02  0.19327150419E+03  0.12499537311E+03 0.  0.
          2    1    1    2  501    0  0.31252704559E+02 -0.14039679371E+03 -0.11616597279E+04  0.11705303562E+04  0.00000000000E+00 0. -1.
          1    1    1    2  502    0 -0.26147990213E+02  0.21379259835E+02  0.84364528466E+02  0.90874439787E+02  0.00000000000E+00 0. -1.
         22    1    3    3    0    0 -0.55653512562E+02  0.58706905617E+02 -0.80821391940E+02  0.11434995244E+03  0.00000000000E+00 0.  1.
         22    1    3    3    0    0  0.50548798216E+02  0.60310628256E+02 -0.60048688075E+01  0.78921551753E+02  0.00000000000E+00 0.  1.
</event>
<event>
 7    1  0.6253338E-006  0.7006744E+02  0.7818608E-02  0.1426771E+00
          2   -1    0    0  502    0  0.00000000000E+00  0.00000000000E+00  0.70136622821E+03  0.70136622821E+03  0.00000000000E+00 0. -1.
          1   -1    0    0  501    0 -0.00000000000E+00 -0.00000000000E+00 -0.55971117826E+03  0.55971117826E+03  0.00000000000E+00 0. -1.
         25    2    1    2    0    0  0.81633435312E+02 -0.70547405110E+02  0.76378692216E+02  0.18192993491E+03  0.12499536977E+03 0.  0.
          2    1    1    2  501    0 -0.36385759659E+02  0.18948057221E+02 -0.50404146813E+03  0.50570817076E+03  0.00000000000E+00 0. -1.
          1    1    1    2  502    0 -0.45247675653E+02  0.51599347888E+02  0.56931782587E+03  0.57343930080E+03  0.00000000000E+00 0. -1.
         22    1    3    3    0    0  0.78325675106E+02 -0.98074664418E+01 -0.64087903602E+01  0.79197035126E+02  0.00000000000E+00 0. -1.
         22    1    3    3    0    0  0.33077602062E+01 -0.60739938668E+02  0.82787482576E+02  0.10273289979E+03  0.00000000000E+00 0. -1.
</event>
<event>
 7    1  0.6253338E-006  0.6571252E+02  0.7818608E-02  0.1420218E+00
          2   -1    0    0  502    0  0.00000000000E+00  0.00000000000E+00  0.24104236604E+03  0.24104236604E+03  0.00000000000E+00 0. -1.
          1   -1    0    0  501    0 -0.00000000000E+00 -0.00000000000E+00 -0.11412950301E+04  0.11412950301E+04  0.00000000000E+00 0. -1.
         25    2    1    2    0    0  0.23170385180E+02  0.15387614977E+02 -0.30212513723E+03  0.32814329552E+03  0.12499911361E+03 0.  0.
          2    1    1    2  501    0 -0.38843475659E+02 -0.58626353470E+02 -0.82232557009E+03  0.82532733394E+03  0.00000000000E+00 0. -1.
          1    1    1    2  502    0  0.15673090478E+02  0.43238738494E+02  0.22419804328E+03  0.22886676666E+03  0.00000000000E+00 0. -1.
         22    1    3    3    0    0  0.55225442479E+02  0.46076495482E+02 -0.24763830931E+03  0.25787133452E+03  0.00000000000E+00 0.  1.
         22    1    3    3    0    0 -0.32055057298E+02 -0.30688880505E+02 -0.54486827928E+02  0.70271960999E+02  0.00000000000E+00 0.  1.
</event>
<event>
 7    1  0.6253338E-006  0.2395433E+03  0.7818608E-02  0.1229653E+00
          2   -1    0    0  502    0  0.00000000000E+00  0.00000000000E+00  0.10252274190E+04  0.10252274190E+04  0.00000000000E+00 0. -1.
          1   -1    0    0  501    0 -0.00000000000E+00 -0.00000000000E+00 -0.39877426905E+04  0.39877426905E+04  0.00000000000E+00 0. -1.
         25    2    1    2    0    0  0.27590276436E+03  0.51032302103E+02 -0.29903867189E+03  0.42869075246E+03  0.12500001086E+03 0.  0.
          2    1    1    2  501    0 -0.23734270160E+03  0.61449839075E+01 -0.36187448105E+04  0.36265249651E+04  0.00000000000E+00 0. -1.
          1    1    1    2  502    0 -0.38560062758E+02 -0.57177286011E+02  0.95526821089E+03  0.95775439191E+03  0.00000000000E+00 0. -1.
         22    1    3    3    0    0  0.19841817353E+03  0.18388695678E+02 -0.12452246856E+03  0.23497608579E+03  0.00000000000E+00 0. -1.
         22    1    3    3    0    0  0.77484590826E+02  0.32643606425E+02 -0.17451620333E+03  0.19371466667E+03  0.00000000000E+00 0. -1.
</event>
<event>
 7    1  0.6253338E-006  0.1455833E+03  0.7818608E-02  0.1405111E+00
          2   -1    0    0  502    0  0.00000000000E+00  0.00000000000E+00  0.84808543223E+03  0.84808543223E+03  0.00000000000E+00 0. -1.
          1   -1    0    0  501    0 -0.00000000000E+00 -0.00000000000E+00 -0.19555436068E+03  0.19555436068E+03  0.00000000000E+00 0. -1.
         25    2    1    2    0    0 -0.15892361878E+03 -0.22754498562E+02  0.19383587987E+03  0.28101810853E+03  0.12499738072E+03 0.  0.
          2    1    1    2  501    0  0.14345710218E+03  0.52666627099E+01 -0.11777177505E+03  0.18568217173E+03  0.00000000000E+00 0. -1.
          1    1    1    2  502    0  0.15466516602E+02  0.17487835852E+02  0.57646696672E+03  0.57693951265E+03  0.00000000000E+00 0. -1.
         22    1    3    3    0    0  0.27956819665E+01 -0.39360859968E+02  0.25417384299E+02  0.46937581527E+02  0.00000000000E+00 0.  1.
         22    1    3    3    0    0 -0.16171930075E+03  0.16606361406E+02  0.16841849557E+03  0.23408052700E+03  0.00000000000E+00 0.  1.
</event>
<event>
 7    1  0.6253338E-006  0.9876195E+02  0.7818608E-02  0.1454990E+00
          2   -1    0    0  502    0  0.00000000000E+00  0.00000000000E+00  0.72072667246E+03  0.72072667246E+03  0.00000000000E+00 0. -1.
          1   -1    0    0  501    0 -0.00000000000E+00 -0.00000000000E+00 -0.11398445921E+04  0.11398445921E+04  0.00000000000E+00 0. -1.
         25    2    1    2    0    0  0.52523023531E+02  0.10361765809E+03 -0.81182896936E+02  0.18897453835E+03  0.12500170527E+03 0.  0.
          2    1    1    2  501    0 -0.56202041438E+02 -0.80329501917E+02 -0.10021647480E+04  0.10069486980E+04  0.00000000000E+00 0. -1.
          1    1    1    2  502    0  0.36790179074E+01 -0.23288156170E+02  0.66422972530E+03  0.66464802818E+03  0.00000000000E+00 0. -1.
         22    1    3    3    0    0  0.86884313742E+02  0.10496623248E+03 -0.64925727823E+02  0.15093755023E+03  0.00000000000E+00 0. -1.
         22    1    3    3    0    0 -0.34361290211E+02 -0.13485743933E+01 -0.16257169113E+02  0.38036988123E+02  0.00000000000E+00 0. -1.
</event>
<event>
 7    1  0.6253338E-006  0.6958158E+02  0.7818608E-02  0.1513276E+00
          2   -1    0    0  502    0  0.00000000000E+00  0.00000000000E+00  0.16197002780E+04  0.16197002780E+04  0.00000000000E+00 0. -1.
          1   -1    0    0  501    0 -0.00000000000E+00 -0.00000000000E+00 -0.16345134811E+03  0.16345134811E+03  0.00000000000E+00 0. -1.
         25    2    1    2    0    0  0.32474289863E+01  0.91322418350E+02  0.74290816070E+03  0.75887366437E+03  0.12500549332E+03 0.  0.
          2    1    1    2  501    0 -0.50312736218E+01 -0.69174719011E+02 -0.14758270388E+03  0.16306780783E+03  0.00000000000E+00 0. -1.
          1    1    1    2  502    0  0.17838446355E+01 -0.22147699339E+02  0.86092347309E+03  0.86121015391E+03  0.00000000000E+00 0. -1.
         22    1    3    3    0    0 -0.34010358102E+02 -0.18604658521E+02  0.18942199664E+03  0.19334821072E+03  0.00000000000E+00 0. -1.
         22    1    3    3    0    0  0.37257787089E+02  0.10992707687E+03  0.55348616405E+03  0.56552545365E+03  0.00000000000E+00 0. -1.
</event>
<event>
 7    1  0.6253338E-006  0.6243423E+02  0.7818608E-02  0.1409008E+00
          2   -1    0    0  502    0  0.00000000000E+00  0.00000000000E+00  0.22676846448E+03  0.22676846448E+03  0.00000000000E+00 0. -1.
          1   -1    0    0  501    0 -0.00000000000E+00 -0.00000000000E+00 -0.60565179362E+03  0.60565179362E+03  0.00000000000E+00 0. -1.
         25    2    1    2    0    0 -0.22893638023E+01 -0.20245948115E+02 -0.93396133947E+02  0.15735800333E+03  0.12499425496E+03 0.  0.
          2    1    1    2  501    0  0.44317879229E+02 -0.28702268714E+02 -0.47342438838E+03  0.47635968151E+03  0.00000000000E+00 0. -1.
          1    1    1    2  502    0 -0.42028515427E+02  0.48948216829E+02  0.18793719319E+03  0.19870257327E+03  0.00000000000E+00 0. -1.
         22    1    3    3    0    0  0.55101237917E+02 -0.33533293764E+02 -0.66353509997E+02  0.92538729727E+02  0.00000000000E+00 0. -1.
         22    1    3    3    0    0 -0.57390601719E+02  0.13287345648E+02 -0.27042623950E+02  0.64819273601E+02  0.00000000000E+00 0. -1.
</event>
<event>
 7    1  0.6253338E-006  0.9433053E+02  0.7818608E-02  0.1454339E+00
          2   -1    0    0  502    0  0.00000000000E+00  0.00000000000E+00  0.95812451458E+03  0.95812451458E+03  0.00000000000E+00 0. -1.
          1   -1    0    0  501    0 -0.00000000000E+00 -0.00000000000E+00 -0.94960390811E+02  0.94960390811E+02  0.00000000000E+00 0. -1.
         25    2    1    2    0    0 -0.77204312229E+01  0.78333035785E+02  0.73274104469E+03  0.74748286480E+03  0.12500210018E+03 0.  0.
          2    1    1    2  501    0  0.29471566440E+02 -0.90251530395E+02 -0.60823573472E+02  0.11275379842E+03  0.00000000000E+00 0. -1.
          1    1    1    2  502    0 -0.21751135217E+02  0.11918494610E+02  0.19124665255E+03  0.19284824218E+03  0.00000000000E+00 0. -1.
         22    1    3    3    0    0 -0.17838413577E+02  0.10724955337E+03  0.65430079654E+03  0.66327234832E+03  0.00000000000E+00 0. -1.
         22    1    3    3    0    0  0.10117982354E+02 -0.28916517585E+02  0.78440248146E+02  0.84210516477E+02  0.00000000000E+00 0. -1.
</event>
<event>
 7    1  0.6253338E-006  0.9868856E+02  0.7818608E-02  0.1289304E+00
          2   -1    0    0  502    0  0.00000000000E+00  0.00000000000E+00  0.13662767679E+04  0.13662767679E+04  0.00000000000E+00 0. -1.
          1   -1    0    0  501    0 -0.00000000000E+00 -0.00000000000E+00 -0.29016314568E+03  0.29016314568E+03  0.00000000000E+00 0. -1.
         25    2    1    2    0    0  0.14437870171E+03  0.75104233713E+02  0.48169313883E+00  0.20520799970E+03  0.12499694270E+03 0.  0.
          2    1    1    2  501    0 -0.93329572411E+02  0.27117263017E+01 -0.17435709565E+03  0.19778311189E+03  0.00000000000E+00 0. -1.
          1    1    1    2  502    0 -0.51049129303E+02 -0.77815960014E+02  0.12499890247E+04  0.12534488020E+04  0.00000000000E+00 0. -1.
         22    1    3    3    0    0  0.10388003084E+03 -0.16166411592E+02 -0.45518365874E+01  0.10522895461E+03  0.00000000000E+00 0. -1.
         22    1    3    3    0    0  0.40498670874E+02  0.91270645304E+02  0.50335297262E+01  0.99979045096E+02  0.00000000000E+00 0. -1.
</event>
<event>
 7    1  0.6253338E-006  0.1370317E+03  0.7818608E-02  0.1291494E+00
          2   -1    0    0  502    0  0.00000000000E+00  0.00000000000E+00  0.64329366158E+03  0.64329366158E+03  0.00000000000E+00 0. -1.
          1   -1    0    0  501    0 -0.00000000000E+00 -0.00000000000E+00 -0.21721223515E+04  0.21721223515E+04  0.00000000000E+00 0. -1.
         25    2    1    2    0    0 -0.17937701360E+03 -0.77110058431E+01  0.33348369636E+03  0.39883391104E+03  0.12498616019E+03 0.  0.
          2    1    1    2  501    0  0.12793748965E+03  0.48526090049E+02 -0.21333347040E+04  0.21377183495E+04  0.00000000000E+00 0. -1.
          1    1    1    2  502    0  0.51439523950E+02 -0.40815084206E+02  0.27102231775E+03  0.27886375247E+03  0.00000000000E+00 0. -1.
         22    1    3    3    0    0 -0.12468437072E+03 -0.59773949150E+02  0.17295943921E+03  0.22143641279E+03  0.00000000000E+00 0.  1.
         22    1    3    3    0    0 -0.54692642874E+02  0.52062943307E+02  0.16052425715E+03  0.17739749825E+03  0.00000000000E+00 0.  1.
</event>
<event>
 7    1  0.6253338E-006  0.6992327E+02  0.7818608E-02  0.1378189E+00
          2   -1    0    0  502    0  0.00000000000E+00  0.00000000000E+00  0.38707168462E+03  0.38707168462E+03  0.00000000000E+00 0. -1.
          1   -1    0    0  501    0 -0.00000000000E+00 -0.00000000000E+00 -0.30346428387E+03  0.30346428387E+03  0.00000000000E+00 0. -1.
         25    2    1    2    0    0  0.33877507095E+01 -0.59623860314E+02 -0.56478039257E+02  0.14960137088E+03  0.12499727868E+03 0.  0.
          2    1    1    2  501    0  0.56489263796E+02  0.21142098176E+02 -0.19202895833E+03  0.20127877701E+03  0.00000000000E+00 0. -1.
          1    1    1    2  502    0 -0.59877014505E+02  0.38481762138E+02  0.33211439834E+03  0.33965582060E+03  0.00000000000E+00 0. -1.
         22    1    3    3    0    0 -0.27141504535E+02  0.11187095227E+02 -0.65680310163E+02  0.71942445825E+02  0.00000000000E+00 0.  1.
         22    1    3    3    0    0  0.30529255245E+02 -0.70810955541E+02  0.92022709065E+01  0.77658925053E+02  0.00000000000E+00 0.  1.
</event>
<event>
 7    1  0.6253338E-006  0.1090840E+03  0.7818608E-02  0.1391082E+00
          2   -1    0    0  502    0  0.00000000000E+00  0.00000000000E+00  0.43015606129E+04  0.43015606129E+04  0.00000000000E+00 0. -1.
          1   -1    0    0  501    0 -0.00000000000E+00 -0.00000000000E+00 -0.13077809720E+03  0.13077809720E+03  0.00000000000E+00 0. -1.
         25    2    1    2    0    0  0.10475538239E+02 -0.12688362303E+03  0.42792578523E+03  0.46363900962E+03  0.12502584888E+03 0.  0.
          2    1    1    2  501    0  0.24902914327E+02  0.24349872261E+02 -0.10945421546E+03  0.11486207687E+03  0.00000000000E+00 0. -1.
          1    1    1    2  502    0 -0.35378452566E+02  0.10253375077E+03  0.38523109459E+04  0.38538376236E+04  0.00000000000E+00 0. -1.
         22    1    3    3    0    0  0.18841613598E+02  0.13500413815E+02  0.15387095700E+03  0.15560700172E+03  0.00000000000E+00 0. -1.
         22    1    3    3    0    0 -0.83660753596E+01 -0.14038403685E+03  0.27405482822E+03  0.30803200790E+03  0.00000000000E+00 0. -1.
</event>
<event>
 7    1  0.6253338E-006  0.1981462E+03  0.7818608E-02  0.1190077E+00
          2   -1    0    0  502    0  0.00000000000E+00  0.00000000000E+00  0.41583763012E+04  0.41583763012E+04  0.00000000000E+00 0. -1.
          1   -1    0    0  501    0 -0.00000000000E+00 -0.00000000000E+00 -0.95798665648E+03  0.95798665648E+03  0.00000000000E+00 0. -1.
         25    2    1    2    0    0 -0.79777738679E+02 -0.29036025868E+02  0.62281999844E+02  0.16343933913E+03  0.12500316670E+03 0.  0.
          2    1    1    2  501    0  0.18465582217E+03  0.10108276534E+03 -0.89418157355E+03  0.91862733716E+03  0.00000000000E+00 0. -1.
          1    1    1    2  502    0 -0.10487808349E+03 -0.72046739469E+02  0.40322892184E+04  0.40342962814E+04  0.00000000000E+00 0. -1.
         22    1    3    3    0    0  0.26252479203E+02 -0.12752808780E+01  0.45516774792E+02  0.52560401379E+02  0.00000000000E+00 0.  1.
         22    1    3    3    0    0 -0.10603021788E+03 -0.27760744990E+02  0.16765225052E+02  0.11087893775E+03  0.00000000000E+00 0.  1.
</event>
<event>
 7    1  0.6253338E-006  0.1463623E+03  0.7818608E-02  0.1365929E+00
          2   -1    0    0  502    0  0.00000000000E+00  0.00000000000E+00  0.93353311036E+02  0.93353311036E+02  0.00000000000E+00 0. -1.
          1   -1    0    0  501    0 -0.00000000000E+00 -0.00000000000E+00 -0.10964432830E+04  0.10964432830E+04  0.00000000000E+00 0. -1.
         25    2    1    2    0    0 -0.70990207939E+02 -0.11635074351E+03 -0.25257607295E+03  0.31304460530E+03  0.12500058855E+03 0.  0.
          2    1    1    2  501    0  0.19880468791E+02 -0.24926395801E+02 -0.72338139047E+03  0.72408369291E+03  0.00000000000E+00 0. -1.
          1    1    1    2  502    0  0.51109739149E+02  0.14127713931E+03 -0.27132508519E+02  0.15266829581E+03  0.00000000000E+00 0. -1.
         22    1    3    3    0    0  0.12728542589E+02 -0.38544955177E+02 -0.16258737037E+03  0.16757798891E+03  0.00000000000E+00 0.  1.
         22    1    3    3    0    0 -0.83718750529E+02 -0.77805788336E+02 -0.89988702587E+02  0.14546661638E+03  0.00000000000E+00 0.  1.
</event>
<event>
 7    1  0.6253338E-006  0.1063596E+03  0.7818608E-02  0.1312626E+00
          2   -1    0    0  502    0  0.00000000000E+00  0.00000000000E+00  0.70738388707E+02  0.70738388707E+02  0.00000000000E+00 0. -1.
          1   -1    0    0  501    0 -0.00000000000E+00 -0.00000000000E+00 -0.12381559380E+04  0.12381559380E+04  0.00000000000E+00 0. -1.
         25    2    1    2    0    0  0.26146100490E+02  0.11408188095E+03 -0.25304878877E+03  0.30554395618E+03  0.12500050212E+03 0.  0.
          2    1    1    2  501    0  0.55030741812E+02 -0.42727706175E+02 -0.88978770940E+03  0.89251118044E+03  0.00000000000E+00 0. -1.
          1    1    1    2  502    0 -0.81176842302E+02 -0.71354174777E+02 -0.24581051128E+02  0.11083919009E+03  0.00000000000E+00 0. -1.
         22    1    3    3    0    0 -0.20958515474E+02  0.82482460903E+02 -0.22832184240E+03  0.24366673849E+03  0.00000000000E+00 0. -1.
         22    1    3    3    0    0  0.47104615964E+02  0.31599420049E+02 -0.24726946362E+02  0.61877217689E+02  0.00000000000E+00 0. -1.
</event>
<event>
 7    1  0.6253338E-006  0.6454450E+02  0.7818608E-02  0.1538588E+00
          2   -1    0    0  502    0  0.00000000000E+00  0.00000000000E+00  0.96673497483E+03  0.96673497483E+03  0.00000000000E+00 0. -1.
          1   -1    0    0  501    0 -0.00000000000E+00 -0.00000000000E+00 -0.17883242169E+03  0.17883242169E+03  0.00000000000E+00 0. -1.
         25    2    1    2    0    0  0.20509617631E+02  0.76006094461E+02  0.46319128233E+02  0.15481628970E+03  0.12500020442E+03 0.  0.
          2    1    1    2  501    0 -0.16406657536E+02 -0.11871089232E+02 -0.12255972466E+03  0.12422152503E+03  0.00000000000E+00 0. -1.
          1    1    1    2  502    0 -0.41029600956E+01 -0.64135005229E+02  0.86414314957E+03  0.86652958179E+03  0.00000000000E+00 0. -1.
         22    1    3    3    0    0  0.59790035488E+02  0.12730439355E+02  0.51817307861E+02  0.80137044017E+02  0.00000000000E+00 0. -1.
         22    1    3    3    0    0 -0.39280417857E+02  0.63275655106E+02 -0.54981796276E+01  0.74679245680E+02  0.00000000000E+00 0. -1.
</event>
<event>
 7    1  0.6253338E-006  0.4558411E+02  0.7818608E-02  0.1511998E+00
          2   -1    0    0  502    0  0.00000000000E+00  0.00000000000E+00  0.75655193831E+02  0.75655193831E+02  0.00000000000E+00 0. -1.
          1   -1    0    0  501    0 -0.00000000000E+00 -0.00000000000E+00 -0.34927384171E+03  0.34927384171E+03  0.00000000000E+00 0. -1.
         25    2    1    2    0    0 -0.64116044119E+02  0.39235044387E+02 -0.51144211045E+02  0.15456604204E+03  0.12499870082E+03 0.  0.
          2    1    1    2  501    0  0.42646340143E+02 -0.12599932684E+02 -0.23088922622E+03  0.23513252310E+03  0.00000000000E+00 0. -1.
          1    1    1    2  502    0  0.21469703976E+02 -0.26635111703E+02  0.84147893929E+01  0.35230470402E+02  0.00000000000E+00 0. -1.
         22    1    3    3    0    0 -0.80942126116E+02 -0.32435825447E+01  0.62016806138E+01  0.81244134867E+02  0.00000000000E+00 0. -1.
         22    1    3    3    0    0  0.16826081997E+02  0.42478626932E+02 -0.57345891659E+02  0.73321907174E+02  0.00000000000E+00 0. -1.
</event>
<event>
 7    1  0.6253338E-006  0.2111111E+03  0.7818608E-02  0.1180368E+00
          2   -1    0    0  502    0  0.00000000000E+00  0.00000000000E+00  0.27249204421E+04  0.27249204421E+04  0.00000000000E+00 0. -1.
          1   -1    0    0  501    0 -0.00000000000E+00 -0.00000000000E+00 -0.19441404037E+03  0.19441404037E+03  0.00000000000E+00 0. -1.
         25    2    1    2    0    0 -0.28407638085E+03 -0.11077210336E+03  0.42593035262E+03  0.53852750804E+03  0.12500145039E+03 0.  0.
          2    1    1    2  501    0  0.15215801859E+03  0.12820357517E+03 -0.63343456481E+02  0.20880759753E+03  0.00000000000E+00 0. -1.
          1    1    1    2  502    0  0.13191836226E+03 -0.17431471811E+02  0.21679195055E+04  0.21719993768E+04  0.00000000000E+00 0. -1.
         22    1    3    3    0    0 -0.68924677023E+02 -0.82953100541E+02  0.10052083802E+03  0.14743224501E+03  0.00000000000E+00 0. -1.
         22    1    3    3    0    0 -0.21515170382E+03 -0.27819002820E+02  0.32540951460E+03  0.39109526304E+03  0.00000000000E+00 0. -1.
</event>
<event>
 7    1  0.6253338E-006  0.4486617E+02  0.7818608E-02  0.1547541E+00
          2   -1    0    0  502    0  0.00000000000E+00  0.00000000000E+00  0.56780999418E+03  0.56780999418E+03  0.00000000000E+00 0. -1.
          1   -1    0    0  501    0 -0.00000000000E+00 -0.00000000000E+00 -0.10606271183E+03  0.10606271183E+03  0.00000000000E+00 0. -1.
         25    2    1    2    0    0  0.17589927948E+02  0.54639915710E+01 -0.23357122096E+02  0.12849123911E+03  0.12500073042E+03 0.  0.
          2    1    1    2  501    0  0.27452492262E+02 -0.14418909126E+01 -0.22648704051E+02  0.35618565047E+02  0.00000000000E+00 0. -1.
          1    1    1    2  502    0 -0.45042420210E+02 -0.40221006584E+01  0.50775310850E+03  0.50976290185E+03  0.00000000000E+00 0. -1.
         22    1    3    3    0    0 -0.53881946689E+01  0.42443974690E+02  0.35282565522E+02  0.55456136352E+02  0.00000000000E+00 0. -1.
         22    1    3    3    0    0  0.22978122617E+02 -0.36979983119E+02 -0.58639687618E+02  0.73035102755E+02  0.00000000000E+00 0. -1.
</event>
<event>
 7    1  0.6253338E-006  0.4149992E+02  0.7818608E-02  0.1522270E+00
          2   -1    0    0  502    0  0.00000000000E+00  0.00000000000E+00  0.21467602791E+04  0.21467602791E+04  0.00000000000E+00 0. -1.
          1   -1    0    0  501    0 -0.00000000000E+00 -0.00000000000E+00 -0.66846140805E+02  0.66846140805E+02  0.00000000000E+00 0. -1.
         25    2    1    2    0    0  0.27378047040E+02  0.53540973979E+02  0.14462881225E+04  0.14529247760E+04  0.12499951264E+03 0.  0.
          2    1    1    2  501    0  0.54176930674E+01 -0.41106510191E+02 -0.56269408218E+02  0.69895227873E+02  0.00000000000E+00 0. -1.
          1    1    1    2  502    0 -0.32795740107E+02 -0.12434463788E+02  0.68989542407E+03  0.69078641606E+03  0.00000000000E+00 0. -1.
         22    1    3    3    0    0 -0.27739659070E+02  0.41659079608E+02  0.11631943573E+04  0.11642706217E+04  0.00000000000E+00 0. -1.
         22    1    3    3    0    0  0.55117706110E+02  0.11881894370E+02  0.28309376517E+03  0.28865415434E+03  0.00000000000E+00 0. -1.
</event>
<event>
 7    1  0.6253338E-006  0.7153229E+02  0.7818608E-02  0.1470501E+00
          2   -1    0    0  502    0  0.00000000000E+00  0.00000000000E+00  0.13044927762E+04  0.13044927762E+04  0.00000000000E+00 0. -1.
          1   -1    0    0  501    0 -0.00000000000E+00 -0.00000000000E+00 -0.56553324775E+03  0.56553324775E+03  0.00000000000E+00 0. -1.
         25    2    1    2    0    0  0.47107004952E+02  0.83819481702E+01 -0.21110016651E+03  0.24995570349E+03  0.12500098574E+03 0.  0.
          2    1    1    2  501    0 -0.75973374413E+02 -0.12028108742E+02 -0.33042254830E+03  0.33925755621E+03  0.00000000000E+00 0. -1.
          1    1    1    2  502    0  0.28866369461E+02  0.36461605720E+01  0.12804822432E+04  0.12808127642E+04  0.00000000000E+00 0. -1.
         22    1    3    3    0    0  0.57869845997E+02 -0.12117882756E+02 -0.28039818767E+02  0.65436943654E+02  0.00000000000E+00 0. -1.
         22    1    3    3    0    0 -0.10762841046E+02  0.20499830926E+02 -0.18306034775E+03  0.18451875984E+03  0.00000000000E+00 0. -1.
</event>
<event>
 7    1  0.6253338E-006  0.2728264E+03  0.7818608E-02  0.1300608E+00
          2   -1    0    0  502    0  0.00000000000E+00  0.00000000000E+00  0.93467690310E+03  0.93467690310E+03  0.00000000000E+00 0. -1.
          1   -1    0    0  501    0 -0.00000000000E+00 -0.00000000000E+00 -0.53779617808E+03  0.53779617808E+03  0.00000000000E+00 0. -1.
         25    2    1    2    0    0 -0.14542503634E+03  0.22536655748E+03  0.11810149940E+03  0.31860872251E+03  0.12500010988E+03 0.  0.
          2    1    1    2  501    0  0.17289554370E+03 -0.21256284447E+03 -0.39427178405E+03  0.48013130660E+03  0.00000000000E+00 0. -1.
          1    1    1    2  502    0 -0.27470507354E+02 -0.12803713014E+02  0.67305100967E+03  0.67373305208E+03  0.00000000000E+00 0. -1.
         22    1    3    3    0    0  0.52246768423E+01  0.84511398305E+02  0.86213881821E+01  0.85110528290E+02  0.00000000000E+00 0.  1.
         22    1    3    3    0    0 -0.15064971319E+03  0.14085515918E+03  0.10948011122E+03  0.23349819422E+03  0.00000000000E+00 0.  1.
</event>
<event>
 7    1  0.6253338E-006  0.5003459E+02  0.7818608E-02  0.1515128E+00
          2   -1    0    0  502    0  0.00000000000E+00  0.00000000000E+00  0.20454924147E+04  0.20454924147E+04  0.00000000000E+00 0. -1.
          1   -1    0    0  501    0 -0.00000000000E+00 -0.00000000000E+00 -0.44468591785E+03  0.44468591785E+03  0.00000000000E+00 0. -1.
         25    2    1    2    0    0 -0.31699373199E+02  0.78102593178E+01 -0.91910570972E+02  0.15854105740E+03  0.12498745303E+03 0.  0.
          2    1    1    2  501    0 -0.56219243577E+00  0.30511353751E+02 -0.31841873183E+03  0.31987770718E+03  0.00000000000E+00 0. -1.
          1    1    1    2  502    0  0.32261565634E+02 -0.38321613069E+02  0.20111357996E+04  0.20117595679E+04  0.00000000000E+00 0. -1.
         22    1    3    3    0    0 -0.71128012038E+02  0.12436389165E+02 -0.17646661655E+02  0.74332109747E+02  0.00000000000E+00 0.  1.
         22    1    3    3    0    0  0.39428638839E+02 -0.46261298469E+01 -0.74263909317E+02  0.84208947654E+02  0.00000000000E+00 0.  1.
</event>
<event>
 7    1  0.6253338E-006  0.1761711E+03  0.7818608E-02  0.1259299E+00
          2   -1    0    0  502    0  0.00000000000E+00  0.00000000000E+00  0.80503906927E+03  0.80503906927E+03  0.00000000000E+00 0. -1.
          1   -1    0    0  501    0 -0.00000000000E+00 -0.00000000000E+00 -0.38662731170E+03  0.38662731170E+03  0.00000000000E+00 0. -1.
         25    2    1    2    0    0  0.35735194767E+02 -0.10634694004E+03 -0.22639701219E+03  0.28190394440E+03  0.12501020334E+03 0.  0.
          2    1    1    2  501    0  0.44389595407E+02 -0.53537850961E+02 -0.11215053198E+03  0.13196393253E+03  0.00000000000E+00 0. -1.
          1    1    1    2  502    0 -0.80124790174E+02  0.15988479101E+03  0.75695930173E+03  0.77779850403E+03  0.00000000000E+00 0. -1.
         22    1    3    3    0    0 -0.21231555448E+02  0.38749282267E+01  0.23143785680E+01  0.21705998333E+02  0.00000000000E+00 0.  1.
         22    1    3    3    0    0  0.56966750215E+02 -0.11022186827E+03 -0.22871139076E+03  0.26019794607E+03  0.00000000000E+00 0.  1.
</event>
<event>
 7    1  0.6253338E-006  0.1957631E+03  0.7818608E-02  0.1222356E+00
          2   -1    0    0  502    0  0.00000000000E+00  0.00000000000E+00  0.74032977827E+03  0.74032977827E+03  0.00000000000E+00 0. -1.
          1   -1    0    0  501    0 -0.00000000000E+00 -0.00000000000E+00 -0.84353278027E+03  0.84353278027E+03  0.00000000000E+00 0. -1.
         25    2    1    2    0    0  0.13172574087E+03 -0.22250580736E+03  0.28702624267E+02  0.28863400812E+03  0.12500097955E+03 0.  0.
          2    1    1    2  501    0 -0.81786442442E+02  0.39984350982E+02 -0.69512976877E+03  0.70106573581E+03  0.00000000000E+00 0. -1.
          1    1    1    2  502    0 -0.49939298428E+02  0.18252145637E+03  0.56322414250E+03  0.59416281461E+03  0.00000000000E+00 0. -1.
         22    1    3    3    0    0 -0.19627262368E+02 -0.23566540443E+01  0.52209792200E+01  0.20446072248E+02  0.00000000000E+00 0.  1.
         22    1    3    3    0    0  0.15135300324E+03 -0.22014915331E+03  0.23481645047E+02  0.26818793587E+03  0.00000000000E+00 0.  1.
</event>
<event>
 7    1  0.6253338E-006  0.9890542E+02  0.7818608E-02  0.1405771E+00
          2   -1    0    0  502    0  0.00000000000E+00  0.00000000000E+00  0.74604147487E+03  0.74604147487E+03  0.00000000000E+00 0. -1.
          1   -1    0    0  501    0 -0.00000000000E+00 -0.00000000000E+00 -0.29904684206E+03  0.29904684206E+03  0.00000000000E+00 0. -1.
         25    2    1    2    0    0 -0.26311756465E+02  0.91463790747E+02  0.41153091496E+02  0.16241844565E+03  0.12501296333E+03 0.  0.
          2    1    1    2  501    0  0.58760512122E+02 -0.80703186869E+02 -0.22748282000E+03  0.24842350040E+03  0.00000000000E+00 0. -1.
          1    1    1    2  502    0 -0.32448755657E+02 -0.10760603878E+02  0.63332436132E+03  0.63424637088E+03  0.00000000000E+00 0. -1.
         22    1    3    3    0    0  0.44770575938E+02  0.22869059189E+02 -0.98763713536E+01  0.51234178525E+02  0.00000000000E+00 0. -1.
         22    1    3    3    0    0 -0.71082332403E+02  0.68594731558E+02  0.51029462849E+02  0.11118426712E+03  0.00000000000E+00 0. -1.
</event>
<event>
 7    1  0.6253338E-006  0.9663350E+02  0.7818608E-02  0.1394526E+00
          2   -1    0    0  502    0  0.00000000000E+00  0.00000000000E+00  0.37848534309E+03  0.37848534309E+03  0.00000000000E+00 0. -1.
          1   -1    0    0  501    0 -0.00000000000E+00 -0.00000000000E+00 -0.30304281316E+03  0.30304281316E+03  0.00000000000E+00 0. -1.
         25    2    1    2    0    0  0.61191446094E+02  0.83218015094E+02  0.18021256379E+03  0.24242591419E+03  0.12499649840E+03 0.  0.
          2    1    1    2  501    0 -0.24359588030E+02 -0.93528950104E+02 -0.26096776521E+03  0.27828982827E+03  0.00000000000E+00 0. -1.
          1    1    1    2  502    0 -0.36831858063E+02  0.10310935011E+02  0.15619773136E+03  0.16081241380E+03  0.00000000000E+00 0. -1.
         22    1    3    3    0    0  0.61672873189E+01 -0.16535063029E+02 -0.10311897451E+02  0.20439642151E+02  0.00000000000E+00 0.  1.
         22    1    3    3    0    0  0.55024158775E+02  0.99753078122E+02  0.19052446124E+03  0.22198627204E+03  0.00000000000E+00 0.  1.
</event>
<event>
 7    1  0.6253338E-006  0.1065210E+03  0.7818608E-02  0.1322492E+00
          2   -1    0    0  502    0  0.00000000000E+00  0.00000000000E+00  0.85311293436E+02  0.85311293436E+02  0.00000000000E+00 0. -1.
          1   -1    0    0  501    0 -0.00000000000E+00 -0.00000000000E+00 -0.14842887791E+04  0.14842887791E+04  0.00000000000E+00 0. -1.
         25    2    1    2    0    0  0.14319034209E+03  0.53764945954E+02 -0.16190433342E+03  0.25540710248E+03  0.12500252533E+03 0.  0.
          2    1    1    2  501    0 -0.50267455258E+02 -0.39085351340E+02 -0.12161541732E+04  0.12178199599E+04  0.00000000000E+00 0. -1.
          1    1    1    2  502    0 -0.92922886830E+02 -0.14679594614E+02 -0.20918979012E+02  0.96373010111E+02  0.00000000000E+00 0. -1.
         22    1    3    3    0    0 -0.69889359219E+01 -0.14397670967E+02 -0.58725047000E+02  0.60866816080E+02  0.00000000000E+00 0.  1.
         22    1    3    3    0    0  0.15017927801E+03  0.68162616921E+02 -0.10317928642E+03  0.19454028641E+03  0.00000000000E+00 0.  1.
</event>
<event>
 7    1  0.6253338E-006  0.4147780E+02  0.7818608E-02  0.1507778E+00
          2   -1    0    0  502    0  0.00000000000E+00  0.00000000000E+00  0.14246098694E+04  0.14246098694E+04  0.00000000000E+00 0. -1.
          1   -1    0    0  501    0 -0.00000000000E+00 -0.00000000000E+00 -0.17046022545E+03  0.17046022545E+03  0.00000000000E+00 0. -1.
         25    2    1    2    0    0  0.27109174605E+02  0.41586376023E+02 -0.65366247208E+02  0.14953917938E+03  0.12499954351E+03 0.  0.
          2    1    1    2  501    0  0.14024932248E+02 -0.36057128316E+02 -0.56725997851E+02  0.68663338538E+02  0.00000000000E+00 0. -1.
          1    1    1    2  502    0 -0.41134106853E+02 -0.55292477071E+01  0.13762418890E+04  0.13768675769E+04  0.00000000000E+00 0. -1.
         22    1    3    3    0    0  0.36601140842E+02 -0.27819016674E+02  0.95704864335E+01  0.46958869345E+02  0.00000000000E+00 0. -1.
         22    1    3    3    0    0 -0.94919662367E+01  0.69405392697E+02 -0.74936733641E+02  0.10258031004E+03  0.00000000000E+00 0. -1.
</event>
<event>
 7    1  0.6253338E-006  0.9725317E+02  0.7818608E-02  0.1446871E+00
          2   -1    0    0  502    0  0.00000000000E+00  0.00000000000E+00  0.11760415207E+04  0.11760415207E+04  0.00000000000E+00 0. -1.
          1   -1    0    0  501    0 -0.00000000000E+00 -0.00000000000E+00 -0.58462707154E+03  0.58462707154E+03  0.00000000000E+00 0. -1.
         25    2    1    2    0    0  0.48535936220E+02  0.57054672455E+02 -0.88948410867E+02  0.17073018430E+03  0.12500401307E+03 0.  0.
          2    1    1    2  501    0 -0.63609303349E+02 -0.77519020439E+02 -0.44911557705E+03  0.46017403615E+03  0.00000000000E+00 0. -1.
          1    1    1    2  502    0  0.15073367128E+02  0.20464347984E+02  0.11294784370E+04  0.11297643718E+04  0.00000000000E+00 0. -1.
         22    1    3    3    0    0  0.26561278429E+02 -0.25990136100E+02  0.11175328267E+02  0.38805626501E+02  0.00000000000E+00 0. -1.
         22    1    3    3    0    0  0.21974657792E+02  0.83044808555E+02 -0.10012373913E+03  0.13192455780E+03  0.00000000000E+00 0. -1.
</event>
<event>
 7    1  0.6253338E-006  0.1738492E+03  0.7818608E-02  0.1190270E+00
          2   -1    0    0  502    0  0.00000000000E+00  0.00000000000E+00  0.26222183021E+03  0.26222183021E+03  0.00000000000E+00 0. -1.
          1   -1    0    0  501    0 -0.00000000000E+00 -0.00000000000E+00 -0.82739830926E+03  0.82739830926E+03  0.00000000000E+00 0. -1.
         25    2    1    2    0    0 -0.10823558644E+03 -0.52798772254E+02 -0.11015568691E+03  0.20557091293E+03  0.12498988903E+03 0.  0.
          2    1    1    2  501    0  0.46008076289E+02 -0.13720574530E+03 -0.61261242390E+03  0.62947290771E+03  0.00000000000E+00 0. -1.
          1    1    1    2  502    0  0.62227510152E+02  0.19000451756E+03  0.15759163175E+03  0.25457631883E+03  0.00000000000E+00 0. -1.
         22    1    3    3    0    0 -0.11339508419E+02  0.35722546171E+02 -0.46444386053E+02  0.59680530762E+02  0.00000000000E+00 0.  1.
         22    1    3    3    0    0 -0.96896078022E+02 -0.88521318426E+02 -0.63711300855E+02  0.14589038217E+03  0.00000000000E+00 0.  1.
</event>
<event>
 7    1  0.6253338E-006  0.1466796E+03  0.7818608E-02  0.1291172E+00
          2   -1    0    0  502    0  0.00000000000E+00  0.00000000000E+00  0.23869207689E+04  0.23869207689E+04  0.00000000000E+00 0. -1.
          1   -1    0    0  501    0 -0.00000000000E+00 -0.00000000000E+00 -0.16779020191E+04  0.16779020191E+04  0.00000000000E+00 0. -1.
         25    2    1    2    0    0 -0.12530468385E+03  0.15527292731E+03  0.25488829609E+03  0.34699268974E+03  0.12499975001E+03 0.  0.
          2    1    1    2  501    0  0.53401717738E+02 -0.30566414004E+02 -0.16287847673E+04  0.16299465842E+04  0.00000000000E+00 0. -1.
          1    1    1    2  502    0  0.71902966110E+02 -0.12470651330E+03  0.20829152209E+04  0.20878835141E+04  0.00000000000E+00 0. -1.
         22    1    3    3    0    0 -0.87687403602E+02  0.18502112580E+02  0.68674097980E+02  0.11290500721E+03  0.00000000000E+00 0. -1.
         22    1    3    3    0    0 -0.37617280247E+02  0.13677081473E+03  0.18621419811E+03  0.23408768253E+03  0.00000000000E+00 0. -1.
</event>
<event>
 7    1  0.6253338E-006  0.2415185E+02  0.7818608E-02  0.1703168E+00
          2   -1    0    0  502    0  0.00000000000E+00  0.00000000000E+00  0.70680469917E+03  0.70680469917E+03  0.00000000000E+00 0. -1.
          1   -1    0    0  501    0 -0.00000000000E+00 -0.00000000000E+00 -0.16878593095E+02  0.16878593095E+02  0.00000000000E+00 0. -1.
         25    2    1    2    0    0 -0.11714308549E+01  0.60150721928E+01  0.33354153415E+03  0.35624887031E+03  0.12500299695E+03 0.  0.
          2    1    1    2  501    0  0.13101840356E+02  0.15876254703E+02  0.15827020977E+02  0.25965520929E+02  0.00000000000E+00 0. -1.
          1    1    1    2  502    0 -0.11930409501E+02 -0.21891326896E+02  0.34055755095E+03  0.34146890103E+03  0.00000000000E+00 0. -1.
         22    1    3    3    0    0  0.38380213785E+02 -0.27954359854E+02  0.26958307390E+03  0.27373257164E+03  0.00000000000E+00 0.  1.
         22    1    3    3    0    0 -0.39551644640E+02  0.33969432047E+02  0.63958460255E+02  0.82516298666E+02  0.00000000000E+00 0.  1.
</event>
<event>
 7    1  0.6253338E-006  0.1126274E+03  0.7818608E-02  0.1264805E+00
          2   -1    0    0  502    0  0.00000000000E+00  0.00000000000E+00  0.22849156324E+03  0.22849156324E+03  0.00000000000E+00 0. -1.
          1   -1    0    0  501    0 -0.00000000000E+00 -0.00000000000E+00 -0.20014452982E+03  0.20014452982E+03  0.00000000000E+00 0. -1.
         25    2    1    2    0    0 -0.57197650012E+01  0.62547858584E+02  0.26602937306E+01  0.13991302962E+03  0.12499451335E+03 0.  0.
          2    1    1    2  501    0  0.76079291946E+02 -0.13787134348E+03 -0.44961115890E+02  0.16376222995E+03  0.00000000000E+00 0. -1.
          1    1    1    2  502    0 -0.70359526945E+02  0.75323484897E+02  0.70647855584E+02  0.12496083349E+03  0.00000000000E+00 0. -1.
         22    1    3    3    0    0 -0.26466065728E+02 -0.32623110196E+02  0.60843524523E+01  0.42446899754E+02  0.00000000000E+00 0.  1.
         22    1    3    3    0    0  0.20746300726E+02  0.95170968779E+02 -0.34240587218E+01  0.97466129862E+02  0.00000000000E+00 0.  1.
</event>
<event>
 7    1  0.6253338E-006  0.5145984E+02  0.7818608E-02  0.1455274E+00
          2   -1    0    0  502    0  0.00000000000E+00  0.00000000000E+00  0.30218251683E+03  0.30218251683E+03  0.00000000000E+00 0. -1.
          1   -1    0    0  501    0 -0.00000000000E+00 -0.00000000000E+00 -0.13844445495E+03  0.13844445495E+03  0.00000000000E+00 0. -1.
         25    2    1    2    0    0  0.10067759647E+02  0.29149760883E+01  0.76320010703E+02  0.14683279061E+03  0.12500106998E+03 0.  0.
          2    1    1    2  501    0 -0.53219849582E+02  0.10384877919E+02 -0.93086191104E+02  0.10772760581E+03  0.00000000000E+00 0. -1.
          1    1    1    2  502    0  0.43152089935E+02 -0.13299854007E+02  0.18050424228E+03  0.18606657536E+03  0.00000000000E+00 0. -1.
         22    1    3    3    0    0  0.25028725281E+01 -0.97328777262E+01  0.10979671918E+03  0.11025567025E+03  0.00000000000E+00 0.  1.
         22    1    3    3    0    0  0.75648871193E+01  0.12647853814E+02 -0.33476708479E+02  0.36577120360E+02  0.00000000000E+00 0.  1.
</event>
<event>
 7    1  0.6253338E-006  0.1374232E+03  0.7818608E-02  0.1309835E+00
          2   -1    0    0  502    0  0.00000000000E+00  0.00000000000E+00  0.31948971505E+04  0.31948971505E+04  0.00000000000E+00 0. -1.
          1   -1    0    0  501    0 -0.00000000000E+00 -0.00000000000E+00 -0.84886056575E+03  0.84886056575E+03  0.00000000000E+00 0. -1.
         25    2    1    2    0    0  0.16284993043E+03 -0.77574598052E+02  0.32054062529E+03  0.38847091299E+03  0.12500175868E+03 0.  0.
          2    1    1    2  501    0 -0.55104878493E+02 -0.46745042285E+01 -0.81233754170E+03  0.81421783343E+03  0.00000000000E+00 0. -1.
          1    1    1    2  502    0 -0.10774505194E+03  0.82249102281E+02  0.28378335012E+04  0.28410689698E+04  0.00000000000E+00 0. -1.
         22    1    3    3    0    0  0.16539401782E+03 -0.10123243527E+03  0.29898971272E+03  0.35636783720E+03  0.00000000000E+00 0.  1.
         22    1    3    3    0    0 -0.25440873863E+01  0.23657837215E+02  0.21550912570E+02  0.32103075786E+02  0.00000000000E+00 0.  1.
</event>
<event>
 7    1  0.6253338E-006  0.1407578E+03  0.7818608E-02  0.1375601E+00
          2   -1    0    0  502    0  0.00000000000E+00  0.00000000000E+00  0.17620491524E+03  0.17620491524E+03  0.00000000000E+00 0. -1.
          1   -1    0    0  501    0 -0.00000000000E+00 -0.00000000000E+00 -0.50223477450E+03  0.50223477450E+03  0.00000000000E+00 0. -1.
         25    2    1    2    0    0 -0.11511076574E+03 -0.85493800691E+02 -0.24299522065E+00  0.19022258657E+03  0.12499958020E+03 0.  0.
          2    1    1    2  501    0  0.92514140143E+02  0.10613465786E+03 -0.39132619636E+03  0.41588414695E+03  0.00000000000E+00 0. -1.
          1    1    1    2  502    0  0.22596625597E+02 -0.20640857168E+02  0.65539332320E+02  0.72332956209E+02  0.00000000000E+00 0. -1.
         22    1    3    3    0    0 -0.12705667693E+01 -0.39599426647E+02 -0.44649626599E+02  0.59693534709E+02  0.00000000000E+00 0.  1.
         22    1    3    3    0    0 -0.11384019897E+03 -0.45894374044E+02  0.44406631378E+02  0.13052905187E+03  0.00000000000E+00 0.  1.
</event>
<event>
 7    1  0.6253338E-006  0.6776300E+02  0.7818608E-02  0.1368336E+00
          2   -1    0    0  502    0  0.00000000000E+00  0.00000000000E+00  0.10980790133E+04  0.10980790133E+04  0.00000000000E+00 0. -1.
          1   -1    0    0  501    0 -0.00000000000E+00 -0.00000000000E+00 -0.60123751429E+03  0.60123751429E+03  0.00000000000E+00 0. -1.
         25    2    1    2    0    0  0.14784522953E+02 -0.37770289626E+02  0.36458036543E+03  0.38754524619E+03  0.12500919202E+03 0.  0.
          2    1    1    2  501    0 -0.64544000150E+02 -0.19759698126E+02 -0.58580829686E+03  0.58968443620E+03  0.00000000000E+00 0. -1.
          1    1    1    2  502    0  0.49759477197E+02  0.57529987752E+02  0.71806943048E+03  0.72208684522E+03  0.00000000000E+00 0. -1.
         22    1    3    3    0    0  0.33144759468E+02 -0.12033804632E+02  0.35160996415E+03  0.35337367534E+03  0.00000000000E+00 0.  1.
         22    1    3    3    0    0 -0.18360236516E+02 -0.25736484994E+02  0.12970401277E+02  0.34171570846E+02  0.00000000000E+00 0.  1.
</event>
<event>
 7    1  0.6253338E-006  0.4006274E+02  0.7818608E-02  0.1532543E+00
          2   -1    0    0  502    0  0.00000000000E+00  0.00000000000E+00  0.64143891743E+03  0.64143891743E+03  0.00000000000E+00 0. -1.
          1   -1    0    0  501    0 -0.00000000000E+00 -0.00000000000E+00 -0.17903646064E+04  0.17903646064E+04  0.00000000000E+00 0. -1.
         25    2    1    2    0    0  0.33551026936E+01 -0.85036861137E+01 -0.38877850516E+02  0.13123152610E+03  0.12500662699E+03 0.  0.
          2    1    1    2  501    0 -0.35887077194E+02  0.18189412223E+02 -0.17045884689E+04  0.17050632203E+04  0.00000000000E+00 0. -1.
          1    1    1    2  502    0  0.32531974500E+02 -0.96857261093E+01  0.59454063046E+03  0.59550877737E+03  0.00000000000E+00 0. -1.
         22    1    3    3    0    0  0.24962696685E+02 -0.62412453422E+02 -0.22572454597E+02  0.70908153794E+02  0.00000000000E+00 0.  1.
         22    1    3    3    0    0 -0.21607593991E+02  0.53908767308E+02 -0.16305395920E+02  0.60323372310E+02  0.00000000000E+00 0.  1.
</event>
<event>
 7    1  0.6253338E-006  0.9757290E+02  0.7818608E-02  0.1381624E+00
          2   -1    0    0  502    0  0.00000000000E+00  0.00000000000E+00  0.66440910392E+03  0.66440910392E+03  0.00000000000E+00 0. -1.
          1   -1    0    0  501    0 -0.00000000000E+00 -0.00000000000E+00 -0.39502919470E+03  0.39502919470E+03  0.00000000000E+00 0. -1.
         25    2    1    2    0    0 -0.12241910799E+03  0.11196615740E+02  0.12744133635E+03  0.21674503965E+03  0.12500126318E+03 0.  0.
          2    1    1    2  501    0  0.28958198520E+02 -0.30461861686E+02 -0.34446387481E+03  0.34701853456E+03  0.00000000000E+00 0. -1.
          1    1    1    2  502    0  0.93460909468E+02  0.19265245946E+02  0.48640244769E+03  0.49567472441E+03  0.00000000000E+00 0. -1.
         22    1    3    3    0    0 -0.55441855047E+02 -0.32143927743E+02 -0.26496895390E+01  0.64140878046E+02  0.00000000000E+00 0.  1.
         22    1    3    3    0    0 -0.66977252941E+02  0.43340543482E+02  0.13009102589E+03  0.15260416160E+03  0.00000000000E+00 0.  1.
</event>
<event>
 7    1  0.6253338E-006  0.6103002E+02  0.7818608E-02  0.1398548E+00
          2   -1    0    0  502    0  0.00000000000E+00  0.00000000000E+00  0.63341721553E+03  0.63341721553E+03  0.00000000000E+00 0. -1.
          1   -1    0    0  501    0 -0.00000000000E+00 -0.00000000000E+00 -0.54919907983E+03  0.54919907983E+03  0.00000000000E+00 0. -1.
         25    2    1    2    0    0  0.78211220839E+02  0.30592076282E+02  0.32840962199E+03  0.36129051605E+03  0.12500034792E+03 0.  0.
          2    1    1    2  501    0 -0.25160192348E+02 -0.55606747284E+02 -0.52800205680E+03  0.53151793724E+03  0.00000000000E+00 0. -1.
          1    1    1    2  502    0 -0.53051028490E+02  0.25014671002E+02  0.28381057051E+03  0.28980784206E+03  0.00000000000E+00 0. -1.
         22    1    3    3    0    0  0.69373654706E+02  0.31296150456E+02  0.33902360783E+03  0.34746101892E+03  0.00000000000E+00 0. -1.
         22    1    3    3    0    0  0.88375661322E+01 -0.70407417391E+00 -0.10613985842E+02  0.13829497136E+02  0.00000000000E+00 0. -1.
</event>
<event>
 7    1  0.6253338E-006  0.1842883E+03  0.7818608E-02  0.1341642E+00
          2   -1    0    0  502    0  0.00000000000E+00  0.00000000000E+00  0.15545669250E+04  0.15545669250E+04  0.00000000000E+00 0. -1.
          1   -1    0    0  501    0 -0.00000000000E+00 -0.00000000000E+00 -0.28203530083E+04  0.28203530083E+04  0.00000000000E+00 0. -1.
         25    2    1    2    0    0 -0.16766595280E+03 -0.12516387437E+02  0.36134678542E+03  0.41768848183E+03  0.12499454725E+03 0.  0.
          2    1    1    2  501    0  0.17977335911E+03  0.41179617471E+02 -0.27889281480E+04  0.27950195771E+04  0.00000000000E+00 0. -1.
          1    1    1    2  502    0 -0.12107406313E+02 -0.28663230034E+02  0.11617952793E+04  0.11622118744E+04  0.00000000000E+00 0. -1.
         22    1    3    3    0    0 -0.79530480553E+01  0.38191748775E+02  0.98808807731E+02  0.10623107423E+03  0.00000000000E+00 0.  1.
         22    1    3    3    0    0 -0.15971290474E+03 -0.50708136213E+02  0.26253797768E+03  0.31145740760E+03  0.00000000000E+00 0.  1.
</event>
<event>
 7    1  0.6253338E-006  0.1933080E+03  0.7818608E-02  0.1305599E+00
          2   -1    0    0  502    0  0.00000000000E+00  0.00000000000E+00  0.75266548979E+03  0.75266548979E+03  0.00000000000E+00 0. -1.
          1   -1    0    0  501    0 -0.00000000000E+00 -0.00000000000E+00 -0.69145805448E+03  0.69145805448E+03  0.00000000000E+00 0. -1.
         25    2    1    2    0    0 -0.14910141711E+03  0.11944422569E+03  0.11326790021E+03  0.25485468654E+03  0.12499255339E+03 0.  0.
          2    1    1    2  501    0  0.12234536175E+03 -0.15032688512E+03 -0.60476048339E+03  0.63506047129E+03  0.00000000000E+00 0. -1.
          1    1    1    2  502    0  0.26756055361E+02  0.30882659427E+02  0.55270001849E+03  0.55420838643E+03  0.00000000000E+00 0. -1.
         22    1    3    3    0    0 -0.12770901883E+03  0.35233219609E+02  0.10209117569E+03  0.16725304603E+03  0.00000000000E+00 0.  1.
         22    1    3    3    0    0 -0.21392398281E+02  0.84211006080E+02  0.11176724520E+02  0.87601640511E+02  0.00000000000E+00 0.  1.
</event>
<event>
 7    1  0.6253338E-006  0.1852193E+03  0.7818608E-02  0.1306618E+00
          2   -1    0    0  502    0  0.00000000000E+00  0.00000000000E+00  0.20089766311E+03  0.20089766311E+03  0.00000000000E+00 0. -1.
          1   -1    0    0  501    0 -0.00000000000E+00 -0.00000000000E+00 -0.15234704637E+04  0.15234704637E+04  0.00000000000E+00 0. -1.
         25    2    1    2    0    0 -0.14237931318E+03  0.43722491380E+02 -0.30907078306E+03  0.36514822918E+03  0.12499982102E+03 0.  0.
          2    1    1    2  501    0 -0.41657043478E+02  0.70575904438E+01 -0.11331334151E+04  0.11339208329E+04  0.00000000000E+00 0. -1.
          1    1    1    2  502    0  0.18403635666E+03 -0.50780081823E+02  0.11963139758E+03  0.22529906473E+03  0.00000000000E+00 0. -1.
         22    1    3    3    0    0 -0.85656444079E+02 -0.36678900943E+02 -0.18168261754E+03  0.20418359802E+03  0.00000000000E+00 0. -1.
         22    1    3    3    0    0 -0.56722869101E+02  0.80401392323E+02 -0.12738816553E+03  0.16096463116E+03  0.00000000000E+00 0. -1.
</event>
<event>
 7    1  0.6253338E-006  0.7677053E+02  0.7818608E-02  0.1488642E+00
          2   -1    0    0  502    0  0.00000000000E+00  0.00000000000E+00  0.26440809427E+04  0.26440809427E+04  0.00000000000E+00 0. -1.
          1   -1    0    0  501    0 -0.00000000000E+00 -0.00000000000E+00 -0.10759156016E+03  0.10759156016E+03  0.00000000000E+00 0. -1.
         25    2    1    2    0    0  0.61064890405E+02  0.16364582446E+02  0.23055291464E+04  0.23097807152E+04  0.12500234820E+03 0.  0.
          2    1    1    2  501    0 -0.76853402599E+02  0.15085095670E+01 -0.90959640776E+02  0.11908978689E+03  0.00000000000E+00 0. -1.
          1    1    1    2  502    0  0.15788512194E+02 -0.17873092013E+02  0.32191987691E+03  0.32280200075E+03  0.00000000000E+00 0. -1.
         22    1    3    3    0    0 -0.27719574810E+02  0.16771289283E+02  0.22105424538E+03  0.22341582391E+03  0.00000000000E+00 0.  1.
         22    1    3    3    0    0  0.88784465215E+02 -0.40670683717E+00  0.20844749011E+04  0.20863648913E+04  0.00000000000E+00 0.  1.
</event>
<event>
 7    1  0.6253338E-006  0.1037391E+03  0.7818608E-02  0.1318703E+00
          2   -1    0    0  502    0  0.00000000000E+00  0.00000000000E+00  0.69379431014E+03  0.69379431014E+03  0.00000000000E+00 0. -1.
          1   -1    0    0  501    0 -0.00000000000E+00 -0.00000000000E+00 -0.80767193022E+03  0.80767193022E+03  0.00000000000E+00 0. -1.
         25    2    1    2    0    0 -0.14300043904E+03  0.85437200710E+02  0.10597798838E+03  0.23367520419E+03  0.12499650476E+03 0.  0.
          2    1    1    2  501    0  0.56064313729E+02 -0.37826333653E+02 -0.73757468239E+03  0.74066892124E+03  0.00000000000E+00 0. -1.
          1    1    1    2  502    0  0.86936125312E+02 -0.47610867057E+02  0.51771907392E+03  0.52712211493E+03  0.00000000000E+00 0. -1.
         22    1    3    3    0    0 -0.15690862333E+03  0.46404362617E+02  0.10011796263E+03  0.19182619056E+03  0.00000000000E+00 0.  1.
         22    1    3    3    0    0  0.13908184291E+02  0.39032838093E+02  0.58600257563E+01  0.41849013629E+02  0.00000000000E+00 0.  1.
</event>
<event>
 7    1  0.6253338E-006  0.2514630E+02  0.7818608E-02  0.1684305E+00
          2   -1    0    0  502    0  0.00000000000E+00  0.00000000000E+00  0.10377255278E+04  0.10377255278E+04  0.00000000000E+00 0. -1.
          1   -1    0    0  501    0 -0.00000000000E+00 -0.00000000000E+00 -0.42687048996E+02  0.42687048996E+02  0.00000000000E+00 0. -1.
         25    2    1    2    0    0 -0.15561629916E+02 -0.12171876082E+02  0.18062965620E+03  0.22055118188E+03  0.12500172893E+03 0.  0.
          2    1    1    2  501    0  0.17563007901E+02 -0.13031683084E+02 -0.17227963872E+02  0.27840379841E+02  0.00000000000E+00 0. -1.
          1    1    1    2  502    0 -0.20013779848E+01  0.25203559167E+02  0.83163678653E+03  0.83202101513E+03  0.00000000000E+00 0. -1.
         22    1    3    3    0    0 -0.10051111556E+02 -0.68044974542E+02  0.11675054912E+03  0.13550584535E+03  0.00000000000E+00 0.  1.
         22    1    3    3    0    0 -0.55105183604E+01  0.55873098459E+02  0.63879107080E+02  0.85045336530E+02  0.00000000000E+00 0.  1.
</event>
<event>
 7    1  0.6253338E-006  0.1694818E+03  0.7818608E-02  0.1335783E+00
          2   -1    0    0  502    0  0.00000000000E+00  0.00000000000E+00  0.12287813767E+04  0.12287813767E+04  0.00000000000E+00 0. -1.
          1   -1    0    0  501    0 -0.00000000000E+00 -0.00000000000E+00 -0.77650023201E+03  0.77650023201E+03  0.00000000000E+00 0. -1.
         25    2    1    2    0    0  0.83340977802E+02 -0.12667081238E+03 -0.10029055117E+03  0.22062139956E+03  0.12499757598E+03 0.  0.
          2    1    1    2  501    0 -0.18145585198E+02 -0.30626817044E+02 -0.60931957145E+03  0.61035858668E+03  0.00000000000E+00 0. -1.
          1    1    1    2  502    0 -0.65195392604E+02  0.15729762942E+03  0.11618912673E+04  0.11743016225E+04  0.00000000000E+00 0. -1.
         22    1    3    3    0    0  0.36686381913E+02  0.14074578885E+02  0.37694346011E+01  0.39473953765E+02  0.00000000000E+00 0.  1.
         22    1    3    3    0    0  0.46654595889E+02 -0.14074539126E+03 -0.10405998578E+03  0.18114744580E+03  0.00000000000E+00 0.  1.
</event>
<event>
 7    1  0.6253338E-006  0.1141130E+03  0.7818608E-02  0.1260332E+00
          2   -1    0    0  502    0  0.00000000000E+00  0.00000000000E+00  0.13254398474E+03  0.13254398474E+03  0.00000000000E+00 0. -1.
          1   -1    0    0  501    0 -0.00000000000E+00 -0.00000000000E+00 -0.13258360526E+04  0.13258360526E+04  0.00000000000E+00 0. -1.
         25    2    1    2    0    0  0.18597228909E+02  0.14642142690E+02 -0.34594825675E+03  0.36859868326E+03  0.12499817475E+03 0.  0.
          2    1    1    2  501    0  0.23928115620E+01  0.10625627852E+03 -0.93370236352E+03  0.93973199686E+03  0.00000000000E+00 0. -1.
          1    1    1    2  502    0 -0.20990040471E+02 -0.12089842121E+03  0.86358552362E+02  0.15004935727E+03  0.00000000000E+00 0. -1.
         22    1    3    3    0    0  0.36585732024E+02 -0.43659026768E+01 -0.20626395014E+02  0.42225881461E+02  0.00000000000E+00 0. -1.
         22    1    3    3    0    0 -0.17988503115E+02  0.19008045366E+02 -0.32532186173E+03  0.32637280180E+03  0.00000000000E+00 0. -1.
</event>
<event>
 7    1  0.6253338E-006  0.1153491E+03  0.7818608E-02  0.1380980E+00
          2   -1    0    0  502    0  0.00000000000E+00  0.00000000000E+00  0.90305403495E+03  0.90305403495E+03  0.00000000000E+00 0. -1.
          1   -1    0    0  501    0 -0.00000000000E+00 -0.00000000000E+00 -0.36566649378E+03  0.36566649378E+03  0.00000000000E+00 0. -1.
         25    2    1    2    0    0  0.13388266034E+03 -0.55522995165E+02  0.26170408481E+03  0.32422304705E+03  0.12499674597E+03 0.  0.
          2    1    1    2  501    0 -0.28620514370E+02  0.21405158790E+02 -0.32841219933E+03  0.33035115761E+03  0.00000000000E+00 0. -1.
          1    1    1    2  502    0 -0.10526214597E+03  0.34117836375E+02  0.60409565569E+03  0.61414632406E+03  0.00000000000E+00 0. -1.
         22    1    3    3    0    0  0.94928647044E+02  0.64324940424E+01  0.22069765583E+03  0.24033368532E+03  0.00000000000E+00 0.  1.
         22    1    3    3    0    0  0.38954013292E+02 -0.61955489208E+02  0.41006428982E+02  0.83889361735E+02  0.00000000000E+00 0.  1.
</event>
<event>
 7    1  0.6538534E-006  0.6836591E+02  0.7818608E-02  0.1410160E+00
          2   -1    0    0  502    0  0.00000000000E+00  0.00000000000E+00  0.63370686983E+03  0.63370686983E+03  0.00000000000E+00 0. -1.
          1   -1    0    0  501    0 -0.00000000000E+00 -0.00000000000E+00 -0.23255019491E+04  0.23255019491E+04  0.00000000000E+00 0. -1.
         25    2    1    2    0    0  0.47821108611E+02  0.64381492361E+01 -0.45808889608E+03  0.47728372973E+03  0.12500405496E+03 0.  0.
          2    1    1    2  501    0 -0.45320646001E+02 -0.54160543005E+02 -0.18562284173E+04  0.18575713345E+04  0.00000000000E+00 0. -1.
          1    1    1    2  502    0 -0.25004626106E+01  0.47722393768E+02  0.62252223408E+03  0.62435375478E+03  0.00000000000E+00 0. -1.
         22    1    3    3    0    0  0.71997423598E+02  0.10793876651E+01 -0.13289637309E+03  0.15114972730E+03  0.00000000000E+00 0.  1.
         22    1    3    3    0    0 -0.24176314986E+02  0.53587615710E+01 -0.32519252298E+03  0.32613400242E+03  0.00000000000E+00 0.  1.
</event>
<event>
 7    1  0.6253338E-006  0.6620928E+02  0.7818608E-02  0.1501007E+00
          2   -1    0    0  502    0  0.00000000000E+00  0.00000000000E+00  0.28267523516E+02  0.28267523516E+02  0.00000000000E+00 0. -1.
          1   -1    0    0  501    0 -0.00000000000E+00 -0.00000000000E+00 -0.10406282447E+04  0.10406282447E+04  0.00000000000E+00 0. -1.
         25    2    1    2    0    0  0.31151308997E+02  0.40464013562E+02 -0.79239676039E+03  0.80381914342E+03  0.12499939600E+03 0.  0.
          2    1    1    2  501    0 -0.97685347718E+01  0.23429508732E+02 -0.18939697962E+03  0.19109050746E+03  0.00000000000E+00 0. -1.
          1    1    1    2  502    0 -0.21382774225E+02 -0.63893522294E+02 -0.30566981212E+02  0.73986117381E+02  0.00000000000E+00 0. -1.
         22    1    3    3    0    0 -0.37378968521E+02 -0.21032597269E+02 -0.26316284930E+03  0.26663503650E+03  0.00000000000E+00 0.  1.
         22    1    3    3    0    0  0.68530277518E+02  0.61496610831E+02 -0.52923391109E+03  0.53718410692E+03  0.00000000000E+00 0.  1.
</event>
<event>
 7    1  0.1526533E-005  0.8181061E+02  0.7818608E-02  0.1357950E+00
          2   -1    0    0  502    0  0.00000000000E+00  0.00000000000E+00  0.15730050517E+04  0.15730050517E+04  0.00000000000E+00 0. -1.
          1   -1    0    0  501    0 -0.00000000000E+00 -0.00000000000E+00 -0.17090225205E+04  0.17090225205E+04  0.00000000000E+00 0. -1.
         25    2    1    2    0    0 -0.58763236729E+02 -0.55472494589E+02 -0.22792276415E+03  0.27222102763E+03  0.12500074327E+03 0.  0.
          2    1    1    2  501    0  0.42918936349E+01  0.82894586984E+02 -0.14571695268E+04  0.14595317615E+04  0.00000000000E+00 0. -1.
          1    1    1    2  502    0  0.54471343094E+02 -0.27422092395E+02  0.15490748222E+04  0.15502747831E+04  0.00000000000E+00 0. -1.
         22    1    3    3    0    0 -0.58464762955E+02 -0.84694436467E+02 -0.10960632908E+03  0.15034900548E+03  0.00000000000E+00 0.  1.
         22    1    3    3    0    0 -0.29847377433E+00  0.29221941878E+02 -0.11831643507E+03  0.12187202215E+03  0.00000000000E+00 0.  1.
</event>
<event>
 7    1  0.6253338E-006  0.1278637E+03  0.7818608E-02  0.1346899E+00
          2   -1    0    0  502    0  0.00000000000E+00  0.00000000000E+00  0.14784609677E+03  0.14784609677E+03  0.00000000000E+00 0. -1.
          1   -1    0    0  501    0 -0.00000000000E+00 -0.00000000000E+00 -0.10492991172E+04  0.10492991172E+04  0.00000000000E+00 0. -1.
         25    2    1    2    0    0  0.14003119909E+03 -0.16520878043E+02 -0.50314823969E+03  0.53727512103E+03  0.12499891378E+03 0.  0.
          2    1    1    2  501    0 -0.23767806802E+02 -0.35669027277E+02 -0.49689854048E+03  0.49874376956E+03  0.00000000000E+00 0. -1.
          1    1    1    2  502    0 -0.11626339229E+03  0.52189905321E+02  0.98593759774E+02  0.16112632333E+03  0.00000000000E+00 0. -1.
         22    1    3    3    0    0 -0.92185929870E+01 -0.35048055328E+02 -0.13005672388E+03  0.13501148123E+03  0.00000000000E+00 0. -1.
         22    1    3    3    0    0  0.14924979208E+03  0.18527177284E+02 -0.37309151581E+03  0.40226363980E+03  0.00000000000E+00 0. -1.
</event>
<event>
 7    1  0.6253338E-006  0.1518367E+03  0.7818608E-02  0.1274952E+00
          2   -1    0    0  502    0  0.00000000000E+00  0.00000000000E+00  0.43657565568E+03  0.43657565568E+03  0.00000000000E+00 0. -1.
          1   -1    0    0  501    0 -0.00000000000E+00 -0.00000000000E+00 -0.88240643001E+03  0.88240643001E+03  0.00000000000E+00 0. -1.
         25    2    1    2    0    0 -0.11846150715E+03 -0.57909858307E+02 -0.36989431570E+03  0.41210855307E+03  0.12499989742E+03 0.  0.
          2    1    1    2  501    0  0.16998678124E+03  0.11553367703E+02 -0.47354819443E+03  0.50326621042E+03  0.00000000000E+00 0. -1.
          1    1    1    2  502    0 -0.51525274090E+02  0.46356490604E+02  0.39761173581E+03  0.40360732221E+03  0.00000000000E+00 0. -1.
         22    1    3    3    0    0 -0.21819853598E+02 -0.63361078634E+01 -0.24471513300E+03  0.24576767198E+03  0.00000000000E+00 0. -1.
         22    1    3    3    0    0 -0.96641653553E+02 -0.51573750444E+02 -0.12517918271E+03  0.16634088108E+03  0.00000000000E+00 0. -1.
</event>
<event>
 7    1  0.6253338E-006  0.1543415E+03  0.7818608E-02  0.1237487E+00
          2   -1    0    0  502    0  0.00000000000E+00  0.00000000000E+00  0.98647292537E+03  0.98647292537E+03  0.00000000000E+00 0. -1.
          1   -1    0    0  501    0 -0.00000000000E+00 -0.00000000000E+00 -0.78106631494E+03  0.78106631494E+03  0.00000000000E+00 0. -1.
         25    2    1    2    0    0  0.58932362644E+02  0.56131151555E+02 -0.37894199227E+02  0.15389807574E+03  0.12499967136E+03 0.  0.
          2    1    1    2  501    0 -0.13821594793E+02  0.97794487742E+02 -0.67461994516E+03  0.68181146128E+03  0.00000000000E+00 0. -1.
          1    1    1    2  502    0 -0.45110767851E+02 -0.15392563930E+03  0.91792075482E+03  0.93182970329E+03  0.00000000000E+00 0. -1.
         22    1    3    3    0    0  0.28014801119E+02  0.63837457915E+02  0.32282877372E+02  0.76826000066E+02  0.00000000000E+00 0.  1.
         22    1    3    3    0    0  0.30917561526E+02 -0.77063063595E+01 -0.70177076599E+02  0.77072075672E+02  0.00000000000E+00 0.  1.
</event>
<event>
 7    1  0.6253338E-006  0.6757533E+02  0.7818608E-02  0.1462775E+00
          2   -1    0    0  502    0  0.00000000000E+00  0.00000000000E+00  0.75341338436E+03  0.75341338436E+03  0.00000000000E+00 0. -1.
          1   -1    0    0  501    0 -0.00000000000E+00 -0.00000000000E+00 -0.70884325226E+03  0.70884325226E+03  0.00000000000E+00 0. -1.
         25    2    1    2    0    0 -0.16900989088E+02  0.35601942455E+02 -0.20122691275E+03  0.24015359269E+03  0.12501334298E+03 0.  0.
          2    1    1    2  501    0  0.22968782622E+02 -0.67591926088E+02 -0.48517869335E+03  0.49040248564E+03  0.00000000000E+00 0. -1.
          1    1    1    2  502    0 -0.60677935344E+01  0.31989983633E+02  0.73097573819E+03  0.73170055829E+03  0.00000000000E+00 0. -1.
         22    1    3    3    0    0  0.23518421683E+02  0.43731506693E+02 -0.18749285019E+02  0.53076327348E+02  0.00000000000E+00 0.  1.
         22    1    3    3    0    0 -0.40419410771E+02 -0.81295642378E+01 -0.18247762774E+03  0.18707726534E+03  0.00000000000E+00 0.  1.
</event>
<event>
 7    1  0.6253338E-006  0.1515414E+03  0.7818608E-02  0.1236941E+00
          2   -1    0    0  502    0  0.00000000000E+00  0.00000000000E+00  0.11851182626E+04  0.11851182626E+04  0.00000000000E+00 0. -1.
          1   -1    0    0  501    0 -0.00000000000E+00 -0.00000000000E+00 -0.84150372423E+03  0.84150372423E+03  0.00000000000E+00 0. -1.
         25    2    1    2    0    0 -0.75010398301E+02  0.46141401763E+01  0.32154485085E+03  0.35307729345E+03  0.12499853560E+03 0.  0.
          2    1    1    2  501    0  0.12054547760E+03 -0.94939012549E+02 -0.81553989161E+03  0.82984934963E+03  0.00000000000E+00 0. -1.
          1    1    1    2  502    0 -0.45535079295E+02  0.90324872373E+02  0.83760957916E+03  0.84369534378E+03  0.00000000000E+00 0. -1.
         22    1    3    3    0    0 -0.19442002200E+02  0.59412303165E+01 -0.57253719410E+01  0.21120358688E+02  0.00000000000E+00 0. -1.
         22    1    3    3    0    0 -0.55568396101E+02 -0.13270901402E+01  0.32727022279E+03  0.33195693477E+03  0.00000000000E+00 0. -1.
</event>
<event>
 7    1  0.6253338E-006  0.1382617E+03  0.7818608E-02  0.1223109E+00
          2   -1    0    0  502    0  0.00000000000E+00  0.00000000000E+00  0.55015993592E+03  0.55015993592E+03  0.00000000000E+00 0. -1.
          1   -1    0    0  501    0 -0.00000000000E+00 -0.00000000000E+00 -0.22803152396E+04  0.22803152396E+04  0.00000000000E+00 0. -1.
         25    2    1    2    0    0 -0.21115313589E+02  0.12457776831E+03  0.60199635618E+02  0.18765386219E+03  0.12499799615E+03 0.  0.
          2    1    1    2  501    0  0.13208744367E+03 -0.40855743794E+02 -0.22030287324E+04  0.22073631057E+04  0.00000000000E+00 0. -1.
          1    1    1    2  502    0 -0.11097213008E+03 -0.83722024513E+02  0.41267379313E+03  0.43545820762E+03  0.00000000000E+00 0. -1.
         22    1    3    3    0    0  0.44570730591E+02  0.10465130536E+02  0.10926176287E+02  0.47068570307E+02  0.00000000000E+00 0.  1.
         22    1    3    3    0    0 -0.65686044180E+02  0.11411263777E+03  0.49273459331E+02  0.14058529188E+03  0.00000000000E+00 0.  1.
</event>
<event>
 7    1  0.6253338E-006  0.4319146E+02  0.7818608E-02  0.1571577E+00
          2   -1    0    0  502    0  0.00000000000E+00  0.00000000000E+00  0.68468448805E+03  0.68468448805E+03  0.00000000000E+00 0. -1.
          1   -1    0    0  501    0 -0.00000000000E+00 -0.00000000000E+00 -0.93620012583E+02  0.93620012583E+02  0.00000000000E+00 0. -1.
         25    2    1    2    0    0  0.15290511973E+02 -0.46950231698E+02  0.29155506877E+03  0.32104107653E+03  0.12499956274E+03 0.  0.
          2    1    1    2  501    0  0.87816490925E+01  0.42293219054E+02 -0.72529331872E+02  0.84417638682E+02  0.00000000000E+00 0. -1.
          1    1    1    2  502    0 -0.24072161065E+02  0.46570126439E+01  0.37203873857E+03  0.37284578542E+03  0.00000000000E+00 0. -1.
         22    1    3    3    0    0 -0.44518808047E+02 -0.21806321226E+02  0.48039195464E+02  0.69030458612E+02  0.00000000000E+00 0.  1.
         22    1    3    3    0    0  0.59809320020E+02 -0.25143910472E+02  0.24351587330E+03  0.25201061792E+03  0.00000000000E+00 0.  1.
</event>
<event>
 7    1  0.6253338E-006  0.1161224E+03  0.7818608E-02  0.1325917E+00
          2   -1    0    0  502    0  0.00000000000E+00  0.00000000000E+00  0.21239985599E+04  0.21239985599E+04  0.00000000000E+00 0. -1.
          1   -1    0    0  501    0 -0.00000000000E+00 -0.00000000000E+00 -0.18728233925E+03  0.18728233925E+03  0.00000000000E+00 0. -1.
         25    2    1    2    0    0 -0.13831981753E+03 -0.20844284740E+02  0.11747051679E+03  0.22133898853E+03  0.12499907761E+03 0.  0.
          2    1    1    2  501    0  0.26391959131E+02  0.50139169800E+02 -0.12762446172E+03  0.13963694025E+03  0.00000000000E+00 0. -1.
          1    1    1    2  502    0  0.11192785840E+03 -0.29294885060E+02  0.19468701656E+04  0.19503049704E+04  0.00000000000E+00 0. -1.
         22    1    3    3    0    0 -0.12750432554E+03 -0.31495596679E+01  0.14089789933E+03  0.19005128464E+03  0.00000000000E+00 0. -1.
         22    1    3    3    0    0 -0.10815491982E+02 -0.17694725072E+02 -0.23427382537E+02  0.31287703890E+02  0.00000000000E+00 0. -1.
</event>
<event>
 7    1  0.6253338E-006  0.1103783E+03  0.7818608E-02  0.1293181E+00
          2   -1    0    0  502    0  0.00000000000E+00  0.00000000000E+00  0.18268090631E+03  0.18268090631E+03  0.00000000000E+00 0. -1.
          1   -1    0    0  501    0 -0.00000000000E+00 -0.00000000000E+00 -0.66102977124E+03  0.66102977124E+03  0.00000000000E+00 0. -1.
         25    2    1    2    0    0 -0.17903432420E+03 -0.21492986714E+02 -0.17205052068E+03  0.27881989717E+03  0.12499566262E+03 0.  0.
          2    1    1    2  501    0  0.98940483480E+02  0.26475551209E+02 -0.41630794246E+03  0.42872191108E+03  0.00000000000E+00 0. -1.
          1    1    1    2  502    0  0.80093840716E+02 -0.49825644946E+01  0.11000959821E+03  0.13616886930E+03  0.00000000000E+00 0. -1.
         22    1    3    3    0    0 -0.86981870713E+02  0.52238334783E+02 -0.80305494884E+02  0.12939730276E+03  0.00000000000E+00 0.  1.
         22    1    3    3    0    0 -0.92052453483E+02 -0.73731321497E+02 -0.91745025796E+02  0.14942259441E+03  0.00000000000E+00 0.  1.
</event>
<event>
 7    1  0.6253338E-006  0.4859894E+02  0.7818608E-02  0.1532024E+00
          2   -1    0    0  502    0  0.00000000000E+00  0.00000000000E+00  0.34733138668E+03  0.34733138668E+03  0.00000000000E+00 0. -1.
          1   -1    0    0  501    0 -0.00000000000E+00 -0.00000000000E+00 -0.55335266568E+03  0.55335266568E+03  0.00000000000E+00 0. -1.
         25    2    1    2    0    0  0.40157535579E+02  0.62688479591E+02 -0.84619140556E+02  0.16831140668E+03  0.12500343009E+03 0.  0.
          2    1    1    2  501    0 -0.21285506552E+02 -0.18309765885E+02 -0.42451753931E+03  0.42544501584E+03  0.00000000000E+00 0. -1.
          1    1    1    2  502    0 -0.18872029027E+02 -0.44378713706E+02  0.30311540087E+03  0.30692762983E+03  0.00000000000E+00 0. -1.
         22    1    3    3    0    0 -0.29194468600E+02  0.71556186356E+01  0.16023975359E+02  0.34062995481E+02  0.00000000000E+00 0. -1.
         22    1    3    3    0    0  0.69352004179E+02  0.55532860956E+02 -0.10064311591E+03  0.13424841120E+03  0.00000000000E+00 0. -1.
</event>
<event>
 7    1  0.6253338E-006  0.1348097E+03  0.7818608E-02  0.1223314E+00
          2   -1    0    0  502    0  0.00000000000E+00  0.00000000000E+00  0.53142587234E+03  0.53142587234E+03  0.00000000000E+00 0. -1.
          1   -1    0    0  501    0 -0.00000000000E+00 -0.00000000000E+00 -0.60529448414E+03  0.60529448414E+03  0.00000000000E+00 0. -1.
         25    2    1    2    0    0  0.13137747996E+02 -0.10946792765E+02 -0.18644733698E+03  0.22512148397E+03  0.12499856153E+03 0.  0.
          2    1    1    2  501    0  0.12458563980E+03  0.40108186682E+02 -0.37863115033E+03  0.40061427369E+03  0.00000000000E+00 0. -1.
          1    1    1    2  502    0 -0.13772338779E+03 -0.29161393917E+02  0.49120987550E+03  0.51098459882E+03  0.00000000000E+00 0. -1.
         22    1    3    3    0    0  0.59570667357E+02  0.26518637627E+02 -0.11333786927E+03  0.13075693160E+03  0.00000000000E+00 0.  1.
         22    1    3    3    0    0 -0.46432919362E+02 -0.37465430392E+02 -0.73109467710E+02  0.94364552369E+02  0.00000000000E+00 0.  1.
</event>
<event>
 7    1  0.6253338E-006  0.9863146E+02  0.7818608E-02  0.1373251E+00
          2   -1    0    0  502    0  0.00000000000E+00  0.00000000000E+00  0.21203487179E+04  0.21203487179E+04  0.00000000000E+00 0. -1.
          1   -1    0    0  501    0 -0.00000000000E+00 -0.00000000000E+00 -0.30915959104E+03  0.30915959104E+03  0.00000000000E+00 0. -1.
         25    2    1    2    0    0 -0.41194846342E+02  0.98911425485E+02 -0.77529894264E+02  0.18197843061E+03  0.12499911699E+03 0.  0.
          2    1    1    2  501    0  0.44527651971E+02 -0.32649919127E+00 -0.17544634643E+03  0.18100894693E+03  0.00000000000E+00 0. -1.
          1    1    1    2  502    0 -0.33328056294E+01 -0.98584926294E+02  0.20641653675E+04  0.20665209314E+04  0.00000000000E+00 0. -1.
         22    1    3    3    0    0  0.11516821524E+02 -0.18383446150E+02 -0.44042288866E+02  0.49094923148E+02  0.00000000000E+00 0. -1.
         22    1    3    3    0    0 -0.52711667867E+02  0.11729487163E+03 -0.33487605397E+02  0.13288350747E+03  0.00000000000E+00 0. -1.
</event>
<event>
 7    1  0.6253338E-006  0.9978352E+02  0.7818608E-02  0.1336179E+00
          2   -1    0    0  502    0  0.00000000000E+00  0.00000000000E+00  0.19336247897E+04  0.19336247897E+04  0.00000000000E+00 0. -1.
          1   -1    0    0  501    0 -0.00000000000E+00 -0.00000000000E+00 -0.19189215578E+03  0.19189215578E+03  0.00000000000E+00 0. -1.
         25    2    1    2    0    0  0.55831645490E+02  0.86479486920E+01  0.33685089326E+03  0.36371090813E+03  0.12500056300E+03 0.  0.
          2    1    1    2  501    0  0.45980525399E+02 -0.38943578846E+02 -0.17153704314E+03  0.18181245342E+03  0.00000000000E+00 0. -1.
          1    1    1    2  502    0 -0.10181217089E+03  0.30295630154E+02  0.15764187838E+04  0.15799935840E+04  0.00000000000E+00 0. -1.
         22    1    3    3    0    0  0.87215499290E+02  0.34126612632E+02  0.26771933482E+03  0.28362794510E+03  0.00000000000E+00 0.  1.
         22    1    3    3    0    0 -0.31383853800E+02 -0.25478663940E+02  0.69131558444E+02  0.80082963035E+02  0.00000000000E+00 0.  1.
</event>
<event>
 7    1  0.6253338E-006  0.8639870E+02  0.7818608E-02  0.1360042E+00
          2   -1    0    0  502    0  0.00000000000E+00  0.00000000000E+00  0.61878921649E+03  0.61878921649E+03  0.00000000000E+00 0. -1.
          1   -1    0    0  501    0 -0.00000000000E+00 -0.00000000000E+00 -0.18446508728E+04  0.18446508728E+04  0.00000000000E+00 0. -1.
         25    2    1    2    0    0 -0.65722063397E+02  0.12055735548E+03  0.21851768117E+02  0.18696422727E+03  0.12499862772E+03 0.  0.
          2    1    1    2  501    0  0.12097679256E+02 -0.55433304673E+02 -0.17581750616E+04  0.17590903195E+04  0.00000000000E+00 0. -1.
          1    1    1    2  502    0  0.53624384141E+02 -0.65124050803E+02  0.51046163716E+03  0.51738554249E+03  0.00000000000E+00 0. -1.
         22    1    3    3    0    0 -0.52221100276E+02  0.14565837851E+03  0.71678682540E+01  0.15490250121E+03  0.00000000000E+00 0.  1.
         22    1    3    3    0    0 -0.13500963120E+02 -0.25101023038E+02  0.14683899862E+02  0.32061726059E+02  0.00000000000E+00 0.  1.
</event>
<event>
 7    1  0.6720603E-006  0.1527931E+03  0.7818608E-02  0.1373339E+00
          2   -1    0    0  502    0  0.00000000000E+00  0.00000000000E+00  0.12761072565E+04  0.12761072565E+04  0.00000000000E+00 0. -1.
          1   -1    0    0  501    0 -0.00000000000E+00 -0.00000000000E+00 -0.17070745693E+04  0.17070745693E+04  0.00000000000E+00 0. -1.
         25    2    1    2    0    0 -0.12009570911E+02  0.12869044822E+03 -0.61424627477E+03  0.64002262094E+03  0.12500003195E+03 0.  0.
          2    1    1    2  501    0  0.15401650349E+02  0.24245227551E+02 -0.10751164135E+04  0.10755000439E+04  0.00000000000E+00 0. -1.
          1    1    1    2  502    0 -0.33920794385E+01 -0.15293567577E+03  0.12583953755E+04  0.12676591609E+04  0.00000000000E+00 0. -1.
         22    1    3    3    0    0 -0.34360834208E+02  0.55629758073E+02 -0.95862051032E+02  0.11603822533E+03  0.00000000000E+00 0.  1.
         22    1    3    3    0    0  0.22351263297E+02  0.73060690144E+02 -0.51838422374E+03  0.52398439561E+03  0.00000000000E+00 0.  1.
</event>
<event>
 7    1  0.6253338E-006  0.8225009E+02  0.7818608E-02  0.1344460E+00
          2   -1    0    0  502    0  0.00000000000E+00  0.00000000000E+00  0.39063080478E+03  0.39063080478E+03  0.00000000000E+00 0. -1.
          1   -1    0    0  501    0 -0.00000000000E+00 -0.00000000000E+00 -0.25007505030E+03  0.25007505030E+03  0.00000000000E+00 0. -1.
         25    2    1    2    0    0  0.93391397911E+02 -0.67294030513E+02  0.13566762034E+03  0.21744194427E+03  0.12499942468E+03 0.  0.
          2    1    1    2  501    0 -0.26100602499E+02  0.77383666707E+02 -0.19537520413E+03  0.21175680323E+03  0.00000000000E+00 0. -1.
          1    1    1    2  502    0 -0.67290795411E+02 -0.10089636194E+02  0.20026333827E+03  0.21150710759E+03  0.00000000000E+00 0. -1.
         22    1    3    3    0    0  0.11338007173E+03 -0.24773515916E+02  0.66293827387E+02  0.13365492623E+03  0.00000000000E+00 0.  1.
         22    1    3    3    0    0 -0.19988673820E+02 -0.42520514597E+02  0.69373792950E+02  0.83787018033E+02  0.00000000000E+00 0.  1.
</event>
<event>
 7    1  0.6253338E-006  0.7037429E+02  0.7818608E-02  0.1364854E+00
          2   -1    0    0  502    0  0.00000000000E+00  0.00000000000E+00  0.23137376651E+04  0.23137376651E+04  0.00000000000E+00 0. -1.
          1   -1    0    0  501    0 -0.00000000000E+00 -0.00000000000E+00 -0.19203713397E+03  0.19203713397E+03  0.00000000000E+00 0. -1.
         25    2    1    2    0    0 -0.12829510390E+02  0.10275426597E+03 -0.92505816728E+01  0.16257949083E+03  0.12499392811E+03 0.  0.
          2    1    1    2  501    0 -0.38511947766E+02 -0.54712112290E+02 -0.94965666434E+02  0.11616825364E+03  0.00000000000E+00 0. -1.
          1    1    1    2  502    0  0.51341458156E+02 -0.48042153681E+02  0.22259167792E+04  0.22270270546E+04  0.00000000000E+00 0. -1.
         22    1    3    3    0    0  0.19465799785E+02  0.11768411573E+03  0.13962166948E+02  0.12009750439E+03  0.00000000000E+00 0.  1.
         22    1    3    3    0    0 -0.32295310175E+02 -0.14929849757E+02 -0.23212748621E+02  0.42481986436E+02  0.00000000000E+00 0.  1.
</event>
<event>
 7    1  0.6253338E-006  0.8151542E+02  0.7818608E-02  0.1339515E+00
          2   -1    0    0  502    0  0.00000000000E+00  0.00000000000E+00  0.13620789465E+03  0.13620789465E+03  0.00000000000E+00 0. -1.
          1   -1    0    0  501    0 -0.00000000000E+00 -0.00000000000E+00 -0.64259219628E+03  0.64259219628E+03  0.00000000000E+00 0. -1.
         25    2    1    2    0    0 -0.56960451354E+02  0.81843644431E+02 -0.13378824122E+03  0.20848795872E+03  0.12500024116E+03 0.  0.
          2    1    1    2  501    0  0.71647862072E+02 -0.79454728914E+00 -0.45096269779E+03  0.45661953774E+03  0.00000000000E+00 0. -1.
          1    1    1    2  502    0 -0.14687410718E+02 -0.81049097142E+02  0.78366637383E+02  0.11369259446E+03  0.00000000000E+00 0. -1.
         22    1    3    3    0    0 -0.27945562731E+02  0.10094383831E+03 -0.13827034103E+03  0.17346267661E+03  0.00000000000E+00 0.  1.
         22    1    3    3    0    0 -0.29014888623E+02 -0.19100193879E+02  0.44820998109E+01  0.35025282108E+02  0.00000000000E+00 0.  1.
</event>
<event>
 7    1  0.6253338E-006  0.7732119E+02  0.7818608E-02  0.1402559E+00
          2   -1    0    0  502    0  0.00000000000E+00  0.00000000000E+00  0.90586883841E+03  0.90586883841E+03  0.00000000000E+00 0. -1.
          1   -1    0    0  501    0 -0.00000000000E+00 -0.00000000000E+00 -0.47513185499E+03  0.47513185499E+03  0.00000000000E+00 0. -1.
         25    2    1    2    0    0  0.65594631790E+02 -0.91507154510E+02  0.11701968916E+03  0.20492617800E+03  0.12499966293E+03 0.  0.
          2    1    1    2  501    0 -0.40172329986E+02  0.19940401932E+02 -0.42806817806E+03  0.43041119966E+03  0.00000000000E+00 0. -1.
          1    1    1    2  502    0 -0.25422301805E+02  0.71566752578E+02  0.74178547231E+03  0.74566331574E+03  0.00000000000E+00 0. -1.
         22    1    3    3    0    0  0.29337220873E+02 -0.84900583503E+02  0.13637366767E+03  0.16329898604E+03  0.00000000000E+00 0.  1.
         22    1    3    3    0    0  0.36257410918E+02 -0.66065710065E+01 -0.19353978503E+02  0.41627191964E+02  0.00000000000E+00 0.  1.
</event>
<event>
 7    1  0.1304709E-005  0.9275537E+02  0.7818608E-02  0.1357367E+00
          2   -1    0    0  502    0  0.00000000000E+00  0.00000000000E+00  0.14934517966E+04  0.14934517966E+04  0.00000000000E+00 0. -1.
          1   -1    0    0  501    0 -0.00000000000E+00 -0.00000000000E+00 -0.23562950019E+04  0.23562950019E+04  0.00000000000E+00 0. -1.
         25    2    1    2    0    0  0.32393468866E+02 -0.12189868333E+03 -0.82636137488E+03  0.84522618350E+03  0.12500221418E+03 0.  0.
          2    1    1    2  501    0  0.24099896634E+02  0.48383695602E+02 -0.15185718101E+04  0.15195335237E+04  0.00000000000E+00 0. -1.
          1    1    1    2  502    0 -0.56493365500E+02  0.73514987731E+02  0.14820899797E+04  0.14849870914E+04  0.00000000000E+00 0. -1.
         22    1    3    3    0    0 -0.18301948044E+02 -0.63365147350E+02 -0.14283413999E+03  0.15732671340E+03  0.00000000000E+00 0.  1.
         22    1    3    3    0    0  0.50695416910E+02 -0.58533535984E+02 -0.68352723489E+03  0.68789947010E+03  0.00000000000E+00 0.  1.
</event>
<event>
 7    1  0.6253338E-006  0.1023921E+03  0.7818608E-02  0.1401732E+00
          2   -1    0    0  502    0  0.00000000000E+00  0.00000000000E+00  0.24346483716E+03  0.24346483716E+03  0.00000000000E+00 0. -1.
          1   -1    0    0  501    0 -0.00000000000E+00 -0.00000000000E+00 -0.35041096295E+03  0.35041096295E+03  0.00000000000E+00 0. -1.
         25    2    1    2    0    0  0.65915878119E+02 -0.96359456751E+02  0.37879954242E+02  0.17518975852E+03  0.12500605050E+03 0.  0.
          2    1    1    2  501    0 -0.31826354288E+02  0.96392852434E+02 -0.27026370723E+03  0.28869875350E+03  0.00000000000E+00 0. -1.
          1    1    1    2  502    0 -0.34089523831E+02 -0.33395682850E-01  0.12543762719E+03  0.12998728809E+03  0.00000000000E+00 0. -1.
         22    1    3    3    0    0  0.66987134025E+02 -0.68479494660E+02 -0.31151664637E+02  0.10073303095E+03  0.00000000000E+00 0. -1.
         22    1    3    3    0    0 -0.10712559066E+01 -0.27879962092E+02  0.69031618880E+02  0.74456727571E+02  0.00000000000E+00 0. -1.
</event>
<event>
 7    1  0.6253338E-006  0.1282312E+03  0.7818608E-02  0.1329308E+00
          2   -1    0    0  502    0  0.00000000000E+00  0.00000000000E+00  0.36711477605E+03  0.36711477605E+03  0.00000000000E+00 0. -1.
          1   -1    0    0  501    0 -0.00000000000E+00 -0.00000000000E+00 -0.77696077819E+03  0.77696077819E+03  0.00000000000E+00 0. -1.
         25    2    1    2    0    0  0.15137602388E+03 -0.88267958831E+02  0.16104402897E+01  0.21525226290E+03  0.12500004002E+03 0.  0.
          2    1    1    2  501    0 -0.10642845271E+03  0.66832766741E+02 -0.66177372893E+03  0.67360084810E+03  0.00000000000E+00 0. -1.
          1    1    1    2  502    0 -0.44947571173E+02  0.21435192090E+02  0.25031728650E+03  0.25522244324E+03  0.00000000000E+00 0. -1.
         22    1    3    3    0    0  0.25257166458E+02 -0.43794542297E+02  0.51829921617E+02  0.72403226222E+02  0.00000000000E+00 0.  1.
         22    1    3    3    0    0  0.12611885742E+03 -0.44473416534E+02 -0.50219481327E+02  0.14284903668E+03  0.00000000000E+00 0.  1.
</event>
<event>
 7    1  0.6253338E-006  0.4342212E+03  0.7818608E-02  0.1245024E+00
          2   -1    0    0  502    0  0.00000000000E+00  0.00000000000E+00  0.13378548490E+04  0.13378548490E+04  0.00000000000E+00 0. -1.
          1   -1    0    0  501    0 -0.00000000000E+00 -0.00000000000E+00 -0.15052042198E+04  0.15052042198E+04  0.00000000000E+00 0. -1.
         25    2    1    2    0    0 -0.26022498247E+02 -0.43235310508E+03  0.73383625006E+03  0.86124807219E+03  0.12500488815E+03 0.  0.
          2    1    1    2  501    0  0.32274408612E+02 -0.40254463483E+01 -0.13531436495E+04  0.13535344761E+04  0.00000000000E+00 0. -1.
          1    1    1    2  502    0 -0.62519103652E+01  0.43637855143E+03  0.45195802866E+03  0.62827652049E+03  0.00000000000E+00 0. -1.
         22    1    3    3    0    0  0.29358975650E+02 -0.27558593381E+03  0.38033758389E+03  0.47060199116E+03  0.00000000000E+00 0. -1.
         22    1    3    3    0    0 -0.55381473897E+02 -0.15676717127E+03  0.35349866617E+03  0.39064608103E+03  0.00000000000E+00 0. -1.
</event>
<event>
 7    1  0.6253338E-006  0.2448059E+03  0.7818608E-02  0.1177791E+00
          2   -1    0    0  502    0  0.00000000000E+00  0.00000000000E+00  0.88744409899E+03  0.88744409899E+03  0.00000000000E+00 0. -1.
          1   -1    0    0  501    0 -0.00000000000E+00 -0.00000000000E+00 -0.31445395842E+04  0.31445395842E+04  0.00000000000E+00 0. -1.
         25    2    1    2    0    0  0.25807903245E+03  0.56936045809E+02  0.22961272695E+03  0.37174321973E+03  0.12499806692E+03 0.  0.
          2    1    1    2  501    0 -0.20339104604E+02 -0.11636478731E+03 -0.30466936870E+04  0.30489829231E+04  0.00000000000E+00 0. -1.
          1    1    1    2  502    0 -0.23773992785E+03  0.59428741505E+02  0.55998547485E+03  0.61125754036E+03  0.00000000000E+00 0. -1.
         22    1    3    3    0    0  0.25291798422E+03  0.56071548386E+02  0.16548717697E+03  0.30740450716E+03  0.00000000000E+00 0. -1.
         22    1    3    3    0    0  0.51610482300E+01  0.86449742342E+00  0.64125549984E+02  0.64338712572E+02  0.00000000000E+00 0. -1.
</event>
<event>
 7    1  0.6253338E-006  0.4717148E+02  0.7818608E-02  0.1557882E+00
          2   -1    0    0  502    0  0.00000000000E+00  0.00000000000E+00  0.51304637279E+02  0.51304637279E+02  0.00000000000E+00 0. -1.
          1   -1    0    0  501    0 -0.00000000000E+00 -0.00000000000E+00 -0.64128842200E+03  0.64128842200E+03  0.00000000000E+00 0. -1.
         25    2    1    2    0    0 -0.23635224595E+02 -0.12193564955E+02 -0.17969658011E+03  0.22050855765E+03  0.12500342487E+03 0.  0.
          2    1    1    2  501    0  0.34746451454E+02  0.33998242728E+02 -0.43476327776E+03  0.43747263239E+03  0.00000000000E+00 0. -1.
          1    1    1    2  502    0 -0.11111226859E+02 -0.21804677773E+02  0.24476073151E+02  0.34611869235E+02  0.00000000000E+00 0. -1.
         22    1    3    3    0    0  0.76869774056E+01  0.53612498415E+02 -0.88645436229E+02  0.10388167775E+03  0.00000000000E+00 0. -1.
         22    1    3    3    0    0 -0.31322202000E+02 -0.65806063370E+02 -0.91051143878E+02  0.11662687990E+03  0.00000000000E+00 0. -1.
</event>
<event>
 7    1  0.6253338E-006  0.4685370E+02  0.7818608E-02  0.1540710E+00
          2   -1    0    0  502    0  0.00000000000E+00  0.00000000000E+00  0.12100198513E+04  0.12100198513E+04  0.00000000000E+00 0. -1.
          1   -1    0    0  501    0 -0.00000000000E+00 -0.00000000000E+00 -0.14487815916E+03  0.14487815916E+03  0.00000000000E+00 0. -1.
         25    2    1    2    0    0 -0.10599303817E+01 -0.24564340373E+02  0.19541380449E+03  0.23327330755E+03  0.12500140303E+03 0.  0.
          2    1    1    2  501    0 -0.21250501147E+02 -0.17477276593E+02 -0.12386926766E+03  0.12688827553E+03  0.00000000000E+00 0. -1.
          1    1    1    2  502    0  0.22310431529E+02  0.42041616966E+02  0.99359715532E+03  0.99473642739E+03  0.00000000000E+00 0. -1.
         22    1    3    3    0    0 -0.36585407438E+02 -0.64371552218E+02  0.11390144766E+03  0.13585186252E+03  0.00000000000E+00 0. -1.
         22    1    3    3    0    0  0.35525477057E+02  0.39807211844E+02  0.81512356834E+02  0.97421445029E+02  0.00000000000E+00 0. -1.
</event>
<event>
 7    1  0.6253338E-006  0.6514161E+02  0.7818608E-02  0.1530344E+00
          2   -1    0    0  502    0  0.00000000000E+00  0.00000000000E+00  0.30261724649E+03  0.30261724649E+03  0.00000000000E+00 0. -1.
          1   -1    0    0  501    0 -0.00000000000E+00 -0.00000000000E+00 -0.71032184050E+03  0.71032184050E+03  0.00000000000E+00 0. -1.
         25    2    1    2    0    0 -0.22747479309E+02  0.81908591912E+02 -0.12268653700E+02  0.15166910747E+03  0.12500613206E+03 0.  0.
          2    1    1    2  501    0  0.29148674645E+01 -0.20978326776E+02 -0.62376285157E+03  0.62412232907E+03  0.00000000000E+00 0. -1.
          1    1    1    2  502    0  0.19832611844E+02 -0.60930265136E+02  0.22832691126E+03  0.23714765044E+03  0.00000000000E+00 0. -1.
         22    1    3    3    0    0  0.52088886434E+02  0.30325041351E+02 -0.41808049991E+01  0.60418038311E+02  0.00000000000E+00 0.  1.
         22    1    3    3    0    0 -0.74836365743E+02  0.51583550562E+02 -0.80878487012E+01  0.91251069159E+02  0.00000000000E+00 0.  1.
</event>
<event>
 7    1  0.6253338E-006  0.3039287E+03  0.7818608E-02  0.1214907E+00
          2   -1    0    0  502    0  0.00000000000E+00  0.00000000000E+00  0.11418957211E+04  0.11418957211E+04  0.00000000000E+00 0. -1.
          1   -1    0    0  501    0 -0.00000000000E+00 -0.00000000000E+00 -0.94161671586E+03  0.94161671586E+03  0.00000000000E+00 0. -1.
         25    2    1    2    0    0  0.19692860606E+03  0.16219734928E+03 -0.23120340659E+03  0.36628899327E+03  0.12499502141E+03 0.  0.
          2    1    1    2  501    0  0.63392747360E+02  0.18053132407E+01 -0.61918947578E+03  0.62242871599E+03  0.00000000000E+00 0. -1.
          1    1    1    2  502    0 -0.26032135342E+03 -0.16400266252E+03  0.10506718876E+04  0.10947947276E+04  0.00000000000E+00 0. -1.
         22    1    3    3    0    0  0.10931815597E+03  0.59731464319E+02 -0.18645856837E+03  0.22424340520E+03  0.00000000000E+00 0. -1.
         22    1    3    3    0    0  0.87610450089E+02  0.10246588496E+03 -0.44744838215E+02  0.14204558808E+03  0.00000000000E+00 0. -1.
</event>
<event>
 7    1  0.6253338E-006  0.2172768E+03  0.7818608E-02  0.1225648E+00
          2   -1    0    0  502    0  0.00000000000E+00  0.00000000000E+00  0.27946692913E+04  0.27946692913E+04  0.00000000000E+00 0. -1.
          1   -1    0    0  501    0 -0.00000000000E+00 -0.00000000000E+00 -0.14442244213E+03  0.14442244213E+03  0.00000000000E+00 0. -1.
         25    2    1    2    0    0  0.22399913037E+03  0.13534299438E+03  0.24368073947E+03  0.37881253183E+03  0.12500117978E+03 0.  0.
          2    1    1    2  501    0 -0.76479041227E+02  0.20792450048E+02 -0.50411903099E+02  0.93929386776E+02  0.00000000000E+00 0. -1.
          1    1    1    2  502    0 -0.14752008914E+03 -0.15613544443E+03  0.24569780128E+04  0.24663498149E+04  0.00000000000E+00 0. -1.
         22    1    3    3    0    0  0.65016994056E+02  0.18472698339E+02  0.14103260591E+03  0.15639260222E+03  0.00000000000E+00 0.  1.
         22    1    3    3    0    0  0.15898213631E+03  0.11687029604E+03  0.10264813357E+03  0.22241992961E+03  0.00000000000E+00 0.  1.
</event>
<event>
 7    1  0.6253338E-006  0.5139356E+03  0.7818608E-02  0.1233303E+00
          2   -1    0    0  502    0  0.00000000000E+00  0.00000000000E+00  0.93996876229E+03  0.93996876229E+03  0.00000000000E+00 0. -1.
          1   -1    0    0  501    0 -0.00000000000E+00 -0.00000000000E+00 -0.14969927273E+04  0.14969927273E+04  0.00000000000E+00 0. -1.
         25    2    1    2    0    0  0.51469748790E+03  0.16233313920E+03  0.83501255586E+02  0.56024132184E+03  0.12502930409E+03 0.  0.
          2    1    1    2  501    0 -0.48851474580E+03 -0.14581435209E+03 -0.12065567787E+04  0.13098426403E+04  0.00000000000E+00 0. -1.
          1    1    1    2  502    0 -0.26182742102E+02 -0.16518787112E+02  0.56603155812E+03  0.56687752743E+03  0.00000000000E+00 0. -1.
         22    1    3    3    0    0  0.22845878842E+02  0.38177001832E+02 -0.67374780603E+01  0.44997902835E+02  0.00000000000E+00 0. -1.
         22    1    3    3    0    0  0.49185160906E+03  0.12415613737E+03  0.90238733646E+02  0.51524341901E+03  0.00000000000E+00 0. -1.
</event>
<event>
 7    1  0.6253338E-006  0.2379987E+03  0.7818608E-02  0.1247640E+00
          2   -1    0    0  502    0  0.00000000000E+00  0.00000000000E+00  0.11284649756E+03  0.11284649756E+03  0.00000000000E+00 0. -1.
          1   -1    0    0  501    0 -0.00000000000E+00 -0.00000000000E+00 -0.20037636233E+04  0.20037636233E+04  0.00000000000E+00 0. -1.
         25    2    1    2    0    0  0.17298759202E+03 -0.15985141447E+03 -0.13900024059E+03  0.30070793948E+03  0.12500806485E+03 0.  0.
          2    1    1    2  501    0 -0.34761497471E+02 -0.46178769067E+02 -0.12923434927E+04  0.12936353983E+04  0.00000000000E+00 0. -1.
          1    1    1    2  502    0 -0.13822609455E+03  0.20603018354E+03 -0.45957339243E+03  0.52226678314E+03  0.00000000000E+00 0. -1.
         22    1    3    3    0    0  0.53453064486E+01 -0.58357751496E+02 -0.73666291635E+02  0.94132470402E+02  0.00000000000E+00 0. -1.
         22    1    3    3    0    0  0.16764228557E+03 -0.10149366298E+03 -0.65333948958E+02  0.20657546907E+03  0.00000000000E+00 0. -1.
</event>
<event>
 7    1  0.6253338E-006  0.7462355E+02  0.7818608E-02  0.1420934E+00
          2   -1    0    0  502    0  0.00000000000E+00  0.00000000000E+00  0.34047418398E+04  0.34047418398E+04  0.00000000000E+00 0. -1.
          1   -1    0    0  501    0 -0.00000000000E+00 -0.00000000000E+00 -0.15054462255E+02  0.15054462255E+02  0.00000000000E+00 0. -1.
         25    2    1    2    0    0  0.33980477483E+01 -0.10766333839E+03  0.70230242075E+03  0.72142545882E+03  0.12499224486E+03 0.  0.
          2    1    1    2  501    0  0.15533518966E+02  0.37161635312E+02  0.76411013856E+02  0.86376619458E+02  0.00000000000E+00 0. -1.
          1    1    1    2  502    0 -0.18931566714E+02  0.70501703076E+02  0.26109739429E+04  0.26119942238E+04  0.00000000000E+00 0. -1.
         22    1    3    3    0    0 -0.13549776499E+02 -0.12626635182E+03  0.44118075050E+03  0.45909393664E+03  0.00000000000E+00 0. -1.
         22    1    3    3    0    0  0.16947824247E+02  0.18603013428E+02  0.26112167024E+03  0.26233152217E+03  0.00000000000E+00 0. -1.
</event>
<event>
 7    1  0.6253338E-006  0.5843087E+02  0.7818608E-02  0.1533147E+00
          2   -1    0    0  502    0  0.00000000000E+00  0.00000000000E+00  0.47213758444E+03  0.47213758444E+03  0.00000000000E+00 0. -1.
          1   -1    0    0  501    0 -0.00000000000E+00 -0.00000000000E+00 -0.98215490948E+03  0.98215490948E+03  0.00000000000E+00 0. -1.
         25    2    1    2    0    0  0.12076498162E+02 -0.34056288799E+02 -0.44821130454E+02  0.13762611786E+03  0.12500536776E+03 0.  0.
          2    1    1    2  501    0 -0.24833063015E+02  0.53411470392E+02 -0.88964112145E+03  0.89158891377E+03  0.00000000000E+00 0. -1.
          1    1    1    2  502    0  0.12756564853E+02 -0.19355181592E+02  0.42444492686E+03  0.42507746228E+03  0.00000000000E+00 0. -1.
         22    1    3    3    0    0 -0.33485201971E+02  0.34020772144E+02 -0.10901476854E+02  0.48964414485E+02  0.00000000000E+00 0. -1.
         22    1    3    3    0    0  0.45561700133E+02 -0.68077060943E+02 -0.33919653599E+02  0.88661703379E+02  0.00000000000E+00 0. -1.
</event>
<event>
 7    1  0.6253338E-006  0.1310337E+03  0.7818608E-02  0.1388581E+00
          2   -1    0    0  502    0  0.00000000000E+00  0.00000000000E+00  0.15625186501E+04  0.15625186501E+04  0.00000000000E+00 0. -1.
          1   -1    0    0  501    0 -0.00000000000E+00 -0.00000000000E+00 -0.83998756960E+02  0.83998756960E+02  0.00000000000E+00 0. -1.
         25    2    1    2    0    0 -0.52972909017E+02 -0.12595092070E+03  0.22931945112E+03  0.29475867591E+03  0.12500201135E+03 0.  0.
          2    1    1    2  501    0  0.29461705045E+02 -0.26803445988E+01 -0.43420507772E+02  0.52540620538E+02  0.00000000000E+00 0. -1.
          1    1    1    2  502    0  0.23511203973E+02  0.12863126530E+03  0.12926209498E+04  0.12992181106E+04  0.00000000000E+00 0. -1.
         22    1    3    3    0    0  0.80835622976E+01 -0.10916700291E+02  0.13068585215E+03  0.13138991695E+03  0.00000000000E+00 0.  1.
         22    1    3    3    0    0 -0.61056471315E+02 -0.11503422041E+03  0.98633598976E+02  0.16336875896E+03  0.00000000000E+00 0.  1.
</event>
<event>
 7    1  0.6253338E-006  0.1367716E+03  0.7818608E-02  0.1283075E+00
          2   -1    0    0  502    0  0.00000000000E+00  0.00000000000E+00  0.20834089281E+03  0.20834089281E+03  0.00000000000E+00 0. -1.
          1   -1    0    0  501    0 -0.00000000000E+00 -0.00000000000E+00 -0.85816014640E+03  0.85816014640E+03  0.00000000000E+00 0. -1.
         25    2    1    2    0    0 -0.66433631550E+02  0.17254965873E+03 -0.95275946577E+02  0.24267059348E+03  0.12499879526E+03 0.  0.
          2    1    1    2  501    0 -0.12005492803E+02 -0.70192444266E+02 -0.65593414483E+03  0.65978838535E+03  0.00000000000E+00 0. -1.
          1    1    1    2  502    0  0.78439124353E+02 -0.10235721446E+03  0.10139083782E+03  0.16404206038E+03  0.00000000000E+00 0. -1.
         22    1    3    3    0    0 -0.43861695289E+02  0.59621832819E+02  0.23080758921E+02  0.77532784644E+02  0.00000000000E+00 0.  1.
         22    1    3    3    0    0 -0.22571936261E+02  0.11292782591E+03 -0.11835670550E+03  0.16513780884E+03  0.00000000000E+00 0.  1.
</event>
<event>
 7    1  0.6253338E-006  0.1570315E+03  0.7818608E-02  0.1213356E+00
          2   -1    0    0  502    0  0.00000000000E+00  0.00000000000E+00  0.28319265691E+04  0.28319265691E+04  0.00000000000E+00 0. -1.
          1   -1    0    0  501    0 -0.00000000000E+00 -0.00000000000E+00 -0.41545449144E+03  0.41545449144E+03  0.00000000000E+00 0. -1.
         25    2    1    2    0    0  0.21381064968E+03 -0.10189581870E+03  0.50829372241E+03  0.57453186478E+03  0.12500641430E+03 0.  0.
          2    1    1    2  501    0 -0.91349099994E+02  0.12584003708E+03 -0.36474208260E+03  0.39650619140E+03  0.00000000000E+00 0. -1.
          1    1    1    2  502    0 -0.12246154969E+03 -0.23944218373E+02  0.22729204379E+04  0.22763430044E+04  0.00000000000E+00 0. -1.
         22    1    3    3    0    0 -0.93488677342E+01  0.34705504334E+01  0.76853256553E+02  0.77497542484E+02  0.00000000000E+00 0.  1.
         22    1    3    3    0    0  0.22315951742E+03 -0.10536636914E+03  0.43144046586E+03  0.49703432229E+03  0.00000000000E+00 0.  1.
</event>
<event>
 7    1  0.6253338E-006  0.6861300E+02  0.7818608E-02  0.1455632E+00
          2   -1    0    0  502    0  0.00000000000E+00  0.00000000000E+00  0.37282970388E+03  0.37282970388E+03  0.00000000000E+00 0. -1.
          1   -1    0    0  501    0 -0.00000000000E+00 -0.00000000000E+00 -0.58767629342E+03  0.58767629342E+03  0.00000000000E+00 0. -1.
         25    2    1    2    0    0 -0.88026943668E+02 -0.10517072111E+02 -0.11285298504E+03  0.19031547897E+03  0.12499933475E+03 0.  0.
          2    1    1    2  501    0  0.27063469699E+02 -0.20211644667E+02 -0.43193821556E+03  0.43325692612E+03  0.00000000000E+00 0. -1.
          1    1    1    2  502    0  0.60963473969E+02  0.30728716779E+02  0.32994461106E+03  0.33693359221E+03  0.00000000000E+00 0. -1.
         22    1    3    3    0    0  0.24382177531E+02 -0.11586635253E+02  0.49914246268E+01  0.27452777954E+02  0.00000000000E+00 0. -1.
         22    1    3    3    0    0 -0.11240912120E+03  0.10695631415E+01 -0.11784440966E+03  0.16286270102E+03  0.00000000000E+00 0. -1.
</event>
<event>
 7    1  0.6253338E-006  0.2586442E+03  0.7818608E-02  0.1289345E+00
          2   -1    0    0  502    0  0.00000000000E+00  0.00000000000E+00  0.11662246028E+04  0.11662246028E+04  0.00000000000E+00 0. -1.
          1   -1    0    0  501    0 -0.00000000000E+00 -0.00000000000E+00 -0.41133555796E+03  0.41133555796E+03  0.00000000000E+00 0. -1.
         25    2    1    2    0    0  0.26121731387E+03 -0.66196804013E+02  0.15730692891E+03  0.33613526292E+03  0.12499977266E+03 0.  0.
          2    1    1    2  501    0 -0.22178470291E+02 -0.27715396116E+02 -0.30293150148E+03  0.30500413492E+03  0.00000000000E+00 0. -1.
          1    1    1    2  502    0 -0.23903884358E+03  0.93912200130E+02  0.90051361744E+03  0.93642076294E+03  0.00000000000E+00 0. -1.
         22    1    3    3    0    0  0.26874273392E+03 -0.77257611668E+02  0.16045339261E+03  0.32239213203E+03  0.00000000000E+00 0. -1.
         22    1    3    3    0    0 -0.75254200441E+01  0.11060807654E+02 -0.31464636993E+01  0.13743130888E+02  0.00000000000E+00 0. -1.
</event>
<event>
 7    1  0.6253338E-006  0.6994771E+02  0.7818608E-02  0.1375287E+00
          2   -1    0    0  502    0  0.00000000000E+00  0.00000000000E+00  0.70721527018E+03  0.70721527018E+03  0.00000000000E+00 0. -1.
          1   -1    0    0  501    0 -0.00000000000E+00 -0.00000000000E+00 -0.19424953825E+04  0.19424953825E+04  0.00000000000E+00 0. -1.
         25    2    1    2    0    0  0.28997846552E+02  0.48600286856E+02  0.45530519548E+02  0.14457138683E+03  0.12499997878E+03 0.  0.
          2    1    1    2  501    0  0.31051495182E+02 -0.62976444752E+02 -0.18907646159E+04  0.18920679324E+04  0.00000000000E+00 0. -1.
          1    1    1    2  502    0 -0.60049341735E+02  0.14376157896E+02  0.60995398401E+03  0.61307133350E+03  0.00000000000E+00 0. -1.
         22    1    3    3    0    0  0.46987628636E+02  0.29751875005E+02  0.82407436683E+02  0.99418292743E+02  0.00000000000E+00 0.  1.
         22    1    3    3    0    0 -0.17989782083E+02  0.18848411851E+02 -0.36876917135E+02  0.45153094092E+02  0.00000000000E+00 0.  1.
</event>
<event>
 7    1  0.6253338E-006  0.1124252E+03  0.7818608E-02  0.1348344E+00
          2   -1    0    0  502    0  0.00000000000E+00  0.00000000000E+00  0.58378193327E+03  0.58378193327E+03  0.00000000000E+00 0. -1.
          1   -1    0    0  501    0 -0.00000000000E+00 -0.00000000000E+00 -0.46813510791E+03  0.46813510791E+03  0.00000000000E+00 0. -1.
         25    2    1    2    0    0 -0.14396809756E+03  0.68082297986E+01 -0.19477333007E+03  0.27264121588E+03  0.12499366937E+03 0.  0.
          2    1    1    2  501    0  0.10019459063E+03 -0.26863192790E+02 -0.22181227581E+03  0.24486990999E+03  0.00000000000E+00 0. -1.
          1    1    1    2  502    0  0.43773506934E+02  0.20054962991E+02  0.53223243124E+03  0.53440591531E+03  0.00000000000E+00 0. -1.
         22    1    3    3    0    0 -0.12186585351E+03  0.56709592657E+02 -0.12085169678E+03  0.18075507397E+03  0.00000000000E+00 0. -1.
         22    1    3    3    0    0 -0.22102244053E+02 -0.49901362859E+02 -0.73921633292E+02  0.91886141914E+02  0.00000000000E+00 0. -1.
</event>
<event>
 7    1  0.6253338E-006  0.1323258E+03  0.7818608E-02  0.1229268E+00
          2   -1    0    0  502    0  0.00000000000E+00  0.00000000000E+00  0.26288593823E+03  0.26288593823E+03  0.00000000000E+00 0. -1.
          1   -1    0    0  501    0 -0.00000000000E+00 -0.00000000000E+00 -0.15804441325E+04  0.15804441325E+04  0.00000000000E+00 0. -1.
         25    2    1    2    0    0 -0.93995162217E+01 -0.63165905660E+02  0.17203356113E+02  0.14142327797E+03  0.12500522208E+03 0.  0.
          2    1    1    2  501    0  0.27011744525E+02 -0.12239591767E+03 -0.14676486572E+04  0.14729911663E+04  0.00000000000E+00 0. -1.
          1    1    1    2  502    0 -0.17612228304E+02  0.18556182333E+03  0.13288710684E+03  0.22891562644E+03  0.00000000000E+00 0. -1.
         22    1    3    3    0    0 -0.14765366446E+02 -0.66339944432E+02 -0.43309706592E+02  0.80589918468E+02  0.00000000000E+00 0. -1.
         22    1    3    3    0    0  0.53658502245E+01  0.31740387723E+01  0.60513062705E+02  0.60833359505E+02  0.00000000000E+00 0. -1.
</event>
<event>
 7    1  0.6253338E-006  0.1486890E+03  0.7818608E-02  0.1314818E+00
          2   -1    0    0  502    0  0.00000000000E+00  0.00000000000E+00  0.34939749298E+03  0.34939749298E+03  0.00000000000E+00 0. -1.
          1   -1    0    0  501    0 -0.00000000000E+00 -0.00000000000E+00 -0.13629274841E+04  0.13629274841E+04  0.00000000000E+00 0. -1.
         25    2    1    2    0    0  0.20959796690E+02 -0.11060813654E+03  0.28176980961E+02  0.17057600302E+03  0.12501502952E+03 0.  0.
          2    1    1    2  501    0 -0.62070150269E+02  0.13701523106E+03 -0.12849108933E+04  0.12936853871E+04  0.00000000000E+00 0. -1.
          1    1    1    2  502    0  0.41110353578E+02 -0.26407094523E+02  0.24320392128E+03  0.24806358689E+03  0.00000000000E+00 0. -1.
         22    1    3    3    0    0  0.71462444199E+00 -0.45037409468E+02 -0.49500522842E+02  0.66926681535E+02  0.00000000000E+00 0. -1.
         22    1    3    3    0    0  0.20245172248E+02 -0.65570727073E+02  0.77677503802E+02  0.10364932149E+03  0.00000000000E+00 0. -1.
</event>
<event>
 7    1  0.6253338E-006  0.2177687E+03  0.7818608E-02  0.1145140E+00
          2   -1    0    0  502    0  0.00000000000E+00  0.00000000000E+00  0.19140524670E+03  0.19140524670E+03  0.00000000000E+00 0. -1.
          1   -1    0    0  501    0 -0.00000000000E+00 -0.00000000000E+00 -0.92186785986E+03  0.92186785986E+03  0.00000000000E+00 0. -1.
         25    2    1    2    0    0 -0.68878666329E+02 -0.16358816273E+03 -0.13992492502E+03  0.25827903078E+03  0.12499486164E+03 0.  0.
          2    1    1    2  501    0  0.21476772654E+03 -0.36028081756E+02 -0.56610311759E+03  0.60654425955E+03  0.00000000000E+00 0. -1.
          1    1    1    2  502    0 -0.14588906021E+03  0.19961624449E+03 -0.24434570550E+02  0.24844981624E+03  0.00000000000E+00 0. -1.
         22    1    3    3    0    0 -0.10091414098E+03 -0.10596099407E+03 -0.70123144607E+02  0.16226105979E+03  0.00000000000E+00 0.  1.
         22    1    3    3    0    0  0.32035474649E+02 -0.57627168661E+02 -0.69801780415E+02  0.96017970990E+02  0.00000000000E+00 0.  1.
</event>
<event>
 7    1  0.6253338E-006  0.9020905E+02  0.7818608E-02  0.1327209E+00
          2   -1    0    0  502    0  0.00000000000E+00  0.00000000000E+00  0.14211365106E+04  0.14211365106E+04  0.00000000000E+00 0. -1.
          1   -1    0    0  501    0 -0.00000000000E+00 -0.00000000000E+00 -0.12082414093E+04  0.12082414093E+04  0.00000000000E+00 0. -1.
         25    2    1    2    0    0  0.14349738455E+03 -0.70174506934E+02  0.35958721585E+02  0.20599411744E+03  0.12499834386E+03 0.  0.
          2    1    1    2  501    0 -0.74586239221E+02  0.48938676295E+02 -0.11204496820E+04  0.11239953696E+04  0.00000000000E+00 0. -1.
          1    1    1    2  502    0 -0.68911145329E+02  0.21235830640E+02  0.12973860617E+04  0.12993884329E+04  0.00000000000E+00 0. -1.
         22    1    3    3    0    0  0.38526895058E+02 -0.86512458042E+02  0.29482779616E+01  0.94749244758E+02  0.00000000000E+00 0.  1.
         22    1    3    3    0    0  0.10497048949E+03  0.16337951108E+02  0.33010443624E+02  0.11124487269E+03  0.00000000000E+00 0.  1.
</event>
<event>
 7    1  0.6253338E-006  0.1545211E+03  0.7818608E-02  0.1213457E+00
          2   -1    0    0  502    0  0.00000000000E+00  0.00000000000E+00  0.13924762534E+04  0.13924762534E+04  0.00000000000E+00 0. -1.
          1   -1    0    0  501    0 -0.00000000000E+00 -0.00000000000E+00 -0.45672542058E+03  0.45672542058E+03  0.00000000000E+00 0. -1.
         25    2    1    2    0    0 -0.46225942925E+02 -0.11315183707E+03  0.63928904890E+02  0.18614723053E+03  0.12499484198E+03 0.  0.
          2    1    1    2  501    0  0.15645415846E+03  0.50738851755E+02 -0.37517281013E+03  0.40964249321E+03  0.00000000000E+00 0. -1.
          1    1    1    2  502    0 -0.11022821553E+03  0.62412985315E+02  0.12469947380E+04  0.12534119502E+04  0.00000000000E+00 0. -1.
         22    1    3    3    0    0 -0.61214213481E+02 -0.12326860149E+01  0.14713581988E+02  0.62969746242E+02  0.00000000000E+00 0. -1.
         22    1    3    3    0    0  0.14988270555E+02 -0.11191915105E+03  0.49215322902E+02  0.12317748429E+03  0.00000000000E+00 0. -1.
</event>
<event>
 7    1  0.6253338E-006  0.7612495E+02  0.7818608E-02  0.1359973E+00
          2   -1    0    0  502    0  0.00000000000E+00  0.00000000000E+00  0.11585711174E+04  0.11585711174E+04  0.00000000000E+00 0. -1.
          1   -1    0    0  501    0 -0.00000000000E+00 -0.00000000000E+00 -0.13653403341E+04  0.13653403341E+04  0.00000000000E+00 0. -1.
         25    2    1    2    0    0  0.44578255692E+02  0.13113218891E+03  0.87232670516E+02  0.20595593651E+03  0.12500174849E+03 0.  0.
          2    1    1    2  501    0 -0.14160651968E+02 -0.74331294960E+02 -0.13038550676E+04  0.13060488899E+04  0.00000000000E+00 0. -1.
          1    1    1    2  502    0 -0.30417603724E+02 -0.56800893954E+02  0.10098531803E+04  0.10119066251E+04  0.00000000000E+00 0. -1.
         22    1    3    3    0    0  0.70119551557E+02  0.13905493375E+03  0.57609583904E+02  0.16604785536E+03  0.00000000000E+00 0.  1.
         22    1    3    3    0    0 -0.25541295865E+02 -0.79227448408E+01  0.29623086612E+02  0.39908081145E+02  0.00000000000E+00 0.  1.
</event>
<event>
 7    1  0.6253338E-006  0.7217040E+02  0.7818608E-02  0.1362154E+00
          2   -1    0    0  502    0  0.00000000000E+00  0.00000000000E+00  0.30874515426E+03  0.30874515426E+03  0.00000000000E+00 0. -1.
          1   -1    0    0  501    0 -0.00000000000E+00 -0.00000000000E+00 -0.47681789878E+03  0.47681789878E+03  0.00000000000E+00 0. -1.
         25    2    1    2    0    0 -0.43386496417E+02  0.16891464040E+02  0.89114294370E+02  0.16041207515E+03  0.12499186679E+03 0.  0.
          2    1    1    2  501    0  0.54821881776E+02  0.48852573814E+02 -0.43191566537E+03  0.43811317565E+03  0.00000000000E+00 0. -1.
          1    1    1    2  502    0 -0.11435385359E+02 -0.65744037853E+02  0.17472862648E+03  0.18703780223E+03  0.00000000000E+00 0. -1.
         22    1    3    3    0    0 -0.50468507453E+02  0.60724992168E+02  0.25775494904E+02  0.83060044882E+02  0.00000000000E+00 0. -1.
         22    1    3    3    0    0  0.70820110355E+01 -0.43833528128E+02  0.63338799467E+02  0.77352030267E+02  0.00000000000E+00 0. -1.
</event>
<event>
 7    1  0.6253338E-006  0.1867643E+03  0.7818608E-02  0.1214776E+00
          2   -1    0    0  502    0  0.00000000000E+00  0.00000000000E+00  0.98330890620E+03  0.98330890620E+03  0.00000000000E+00 0. -1.
          1   -1    0    0  501    0 -0.00000000000E+00 -0.00000000000E+00 -0.30381232700E+03  0.30381232700E+03  0.00000000000E+00 0. -1.
         25    2    1    2    0    0 -0.12198193097E+03 -0.14617318067E+03 -0.85354003836E+02  0.24321753177E+03  0.12499308605E+03 0.  0.
          2    1    1    2  501    0  0.30557335692E+02  0.19436214524E+03 -0.65332141730E+02  0.20731300734E+03  0.00000000000E+00 0. -1.
          1    1    1    2  502    0  0.91424595275E+02 -0.48188964574E+02  0.83018272477E+03  0.83659069408E+03  0.00000000000E+00 0. -1.
         22    1    3    3    0    0 -0.98575342493E+02 -0.16861471710E+03 -0.73855789743E+02  0.20881259217E+03  0.00000000000E+00 0. -1.
         22    1    3    3    0    0 -0.23406588474E+02  0.22441536433E+02 -0.11498214093E+02  0.34404939599E+02  0.00000000000E+00 0. -1.
</event>
<event>
 7    1  0.6253338E-006  0.1709661E+03  0.7818608E-02  0.1195047E+00
          2   -1    0    0  502    0  0.00000000000E+00  0.00000000000E+00  0.74303977147E+03  0.74303977147E+03  0.00000000000E+00 0. -1.
          1   -1    0    0  501    0 -0.00000000000E+00 -0.00000000000E+00 -0.16213157254E+04  0.16213157254E+04  0.00000000000E+00 0. -1.
         25    2    1    2    0    0  0.10746037014E+03 -0.13073315388E+03 -0.14836291214E+03  0.25744015635E+03  0.12499996690E+03 0.  0.
          2    1    1    2  501    0  0.25132682407E+02  0.17448416993E+03 -0.14057733226E+04  0.14167833327E+04  0.00000000000E+00 0. -1.
          1    1    1    2  502    0 -0.13259305255E+03 -0.43751016050E+02  0.67586028083E+03  0.69013200780E+03  0.00000000000E+00 0. -1.
         22    1    3    3    0    0  0.11627973016E+03 -0.10524458942E+03 -0.16345957320E+03  0.22653130318E+03  0.00000000000E+00 0. -1.
         22    1    3    3    0    0 -0.88193600220E+01 -0.25488564460E+02  0.15096661053E+02  0.30908853172E+02  0.00000000000E+00 0. -1.
</event>
<event>
 7    1  0.6253338E-006  0.7278814E+02  0.7818608E-02  0.1381008E+00
          2   -1    0    0  502    0  0.00000000000E+00  0.00000000000E+00  0.22073942804E+04  0.22073942804E+04  0.00000000000E+00 0. -1.
          1   -1    0    0  501    0 -0.00000000000E+00 -0.00000000000E+00 -0.10511229117E+04  0.10511229117E+04  0.00000000000E+00 0. -1.
         25    2    1    2    0    0  0.85823481403E+02  0.28886209714E+02  0.14859956170E+03  0.21426125562E+03  0.12500389134E+03 0.  0.
          2    1    1    2  501    0 -0.46455394681E+02  0.32376226621E+02 -0.10168497506E+04  0.10184251268E+04  0.00000000000E+00 0. -1.
          1    1    1    2  502    0 -0.39368086722E+02 -0.61262436335E+02  0.20245215575E+04  0.20258308096E+04  0.00000000000E+00 0. -1.
         22    1    3    3    0    0  0.18773392246E+02 -0.45091102230E+02  0.77812599976E+02  0.91871913400E+02  0.00000000000E+00 0. -1.
         22    1    3    3    0    0  0.67050089157E+02  0.73977311944E+02  0.70786961726E+02  0.12238934222E+03  0.00000000000E+00 0. -1.
</event>
<event>
 7    1  0.6253338E-006  0.5832404E+02  0.7818608E-02  0.1416488E+00
          2   -1    0    0  502    0  0.00000000000E+00  0.00000000000E+00  0.21618555389E+04  0.21618555389E+04  0.00000000000E+00 0. -1.
          1   -1    0    0  501    0 -0.00000000000E+00 -0.00000000000E+00 -0.20470943370E+02  0.20470943370E+02  0.00000000000E+00 0. -1.
         25    2    1    2    0    0 -0.30134762445E+02 -0.60374355212E+02  0.79502822472E+03  0.80761908035E+03  0.12500213667E+03 0.  0.
          2    1    1    2  501    0 -0.27628742114E+02  0.45614773157E+02  0.39186968490E+02  0.66179101085E+02  0.00000000000E+00 0. -1.
          1    1    1    2  502    0  0.57763504559E+02  0.14759582055E+02  0.13071694023E+04  0.13085283008E+04  0.00000000000E+00 0. -1.
         22    1    3    3    0    0 -0.60801617078E+02 -0.19173062599E+02  0.18991696082E+03  0.20033196194E+03  0.00000000000E+00 0. -1.
         22    1    3    3    0    0  0.30666854633E+02 -0.41201292612E+02  0.60511126390E+03  0.60728711841E+03  0.00000000000E+00 0. -1.
</event>
<event>
 7    1  0.6253338E-006  0.7722736E+02  0.7818608E-02  0.1400109E+00
          2   -1    0    0  502    0  0.00000000000E+00  0.00000000000E+00  0.37302532329E+03  0.37302532329E+03  0.00000000000E+00 0. -1.
          1   -1    0    0  501    0 -0.00000000000E+00 -0.00000000000E+00 -0.69214481680E+03  0.69214481680E+03  0.00000000000E+00 0. -1.
         25    2    1    2    0    0  0.14341634294E+02  0.67620652078E+02 -0.88207751760E+02  0.16787903181E+03  0.12499810715E+03 0.  0.
          2    1    1    2  501    0 -0.57817363233E+02 -0.53274793845E+02 -0.55976865948E+03  0.56526277366E+03  0.00000000000E+00 0. -1.
          1    1    1    2  502    0  0.43475728939E+02 -0.14345858233E+02  0.32885691773E+03  0.33202833463E+03  0.00000000000E+00 0. -1.
         22    1    3    3    0    0  0.46291279636E+02 -0.13142466477E+02 -0.63639778796E+01  0.48539748762E+02  0.00000000000E+00 0.  1.
         22    1    3    3    0    0 -0.31949645341E+02  0.80763118555E+02 -0.81843773881E+02  0.11933928305E+03  0.00000000000E+00 0.  1.
</event>
<event>
 7    1  0.6253338E-006  0.3959515E+02  0.7818608E-02  0.1534474E+00
          2   -1    0    0  502    0  0.00000000000E+00  0.00000000000E+00  0.19103355630E+04  0.19103355630E+04  0.00000000000E+00 0. -1.
          1   -1    0    0  501    0 -0.00000000000E+00 -0.00000000000E+00 -0.19378642326E+02  0.19378642326E+02  0.00000000000E+00 0. -1.
         25    2    1    2    0    0  0.28943461411E+01  0.55270554535E+02  0.59191044703E+03  0.60749218460E+03  0.12500226244E+03 0.  0.
          2    1    1    2  501    0  0.22183742476E+02 -0.32443557383E+02  0.22624050721E+02  0.45349206354E+02  0.00000000000E+00 0. -1.
          1    1    1    2  502    0 -0.25078088618E+02 -0.22826997152E+02  0.12764224229E+04  0.12768728143E+04  0.00000000000E+00 0. -1.
         22    1    3    3    0    0  0.55096950064E+02 -0.56527505629E+01  0.20493619885E+03  0.21228865512E+03  0.00000000000E+00 0. -1.
         22    1    3    3    0    0 -0.52202603923E+02  0.60923305098E+02  0.38697424818E+03  0.39520352948E+03  0.00000000000E+00 0. -1.
</event>
<event>
 7    1  0.6253338E-006  0.2668800E+03  0.7818608E-02  0.1211923E+00
          2   -1    0    0  502    0  0.00000000000E+00  0.00000000000E+00  0.23263455098E+04  0.23263455098E+04  0.00000000000E+00 0. -1.
          1   -1    0    0  501    0 -0.00000000000E+00 -0.00000000000E+00 -0.28581950884E+04  0.28581950884E+04  0.00000000000E+00 0. -1.
         25    2    1    2    0    0 -0.25317116276E+03  0.69283566884E+02 -0.15236743545E+02  0.29112380076E+03  0.12500023490E+03 0.  0.
          2    1    1    2  501    0  0.22828819423E+03 -0.13955489050E+03 -0.26977599700E+04  0.27109961127E+04  0.00000000000E+00 0. -1.
          1    1    1    2  502    0  0.24882968528E+02  0.70271323618E+02  0.21811471349E+04  0.21824206847E+04  0.00000000000E+00 0. -1.
         22    1    3    3    0    0 -0.26328849841E+03  0.49420034191E+02 -0.92676904253E+01  0.26804675574E+03  0.00000000000E+00 0. -1.
         22    1    3    3    0    0  0.10117335657E+02  0.19863532693E+02 -0.59690531200E+01  0.23077045023E+02  0.00000000000E+00 0. -1.
</event>
<event>
 7    1  0.6253338E-006  0.9004518E+02  0.7818608E-02  0.1322393E+00
          2   -1    0    0  502    0  0.00000000000E+00  0.00000000000E+00  0.21201605131E+04  0.21201605131E+04  0.00000000000E+00 0. -1.
          1   -1    0    0  501    0 -0.00000000000E+00 -0.00000000000E+00 -0.45691341931E+03  0.45691341931E+03  0.00000000000E+00 0. -1.
         25    2    1    2    0    0  0.53049469049E+02 -0.60267411259E+02  0.30534617451E+03  0.33956902349E+03  0.12499771356E+03 0.  0.
          2    1    1    2  501    0  0.39584451202E+02  0.64164460504E+02 -0.43536456455E+03  0.44184421557E+03  0.00000000000E+00 0. -1.
          1    1    1    2  502    0 -0.92633920251E+02 -0.38970492447E+01  0.17932654838E+04  0.17956606934E+04  0.00000000000E+00 0. -1.
         22    1    3    3    0    0  0.36991023574E+01  0.35763241745E+02  0.44154630107E+02  0.56941410048E+02  0.00000000000E+00 0.  1.
         22    1    3    3    0    0  0.49350366692E+02 -0.96030653004E+02  0.26119154441E+03  0.28262761344E+03  0.00000000000E+00 0.  1.
</event>
<event>
 7    1  0.6253338E-006  0.6206874E+02  0.7818608E-02  0.1536097E+00
          2   -1    0    0  502    0  0.00000000000E+00  0.00000000000E+00  0.35991420528E+03  0.35991420528E+03  0.00000000000E+00 0. -1.
          1   -1    0    0  501    0 -0.00000000000E+00 -0.00000000000E+00 -0.14137696894E+03  0.14137696894E+03  0.00000000000E+00 0. -1.
         25    2    1    2    0    0 -0.27512648428E+02  0.38632395732E+02 -0.56851669701E+02  0.14528054867E+03  0.12499967060E+03 0.  0.
          2    1    1    2  501    0 -0.21400497208E+02  0.39932748104E+00 -0.34098657759E+02  0.40259895730E+02  0.00000000000E+00 0. -1.
          1    1    1    2  502    0  0.48913145636E+02 -0.39031723213E+02  0.30948756380E+03  0.31575072982E+03  0.00000000000E+00 0. -1.
         22    1    3    3    0    0  0.72858260170E+01 -0.41916420593E+02 -0.37283223745E+01  0.42707961363E+02  0.00000000000E+00 0. -1.
         22    1    3    3    0    0 -0.34798474445E+02  0.80548816325E+02 -0.53123347326E+02  0.10257258730E+03  0.00000000000E+00 0. -1.
</event>
<event>
 7    1  0.6253338E-006  0.1406343E+03  0.7818608E-02  0.1287309E+00
          2   -1    0    0  502    0  0.00000000000E+00  0.00000000000E+00  0.12292409433E+04  0.12292409433E+04  0.00000000000E+00 0. -1.
          1   -1    0    0  501    0 -0.00000000000E+00 -0.00000000000E+00 -0.49286601200E+03  0.49286601200E+03  0.00000000000E+00 0. -1.
         25    2    1    2    0    0 -0.10124353936E+03 -0.13913692949E+03  0.22863196610E+03  0.31226145644E+03  0.12500120737E+03 0.  0.
          2    1    1    2  501    0  0.66314688649E+02  0.55059496001E+01 -0.44358239308E+03  0.44854575336E+03  0.00000000000E+00 0. -1.
          1    1    1    2  502    0  0.34928850707E+02  0.13363097989E+03  0.95132535825E+03  0.96129974547E+03  0.00000000000E+00 0. -1.
         22    1    3    3    0    0 -0.94651877334E+02 -0.68258779258E+02  0.64449406255E+02  0.13331153287E+03  0.00000000000E+00 0.  1.
         22    1    3    3    0    0 -0.65916620222E+01 -0.70878150234E+02  0.16418255985E+03  0.17894992357E+03  0.00000000000E+00 0.  1.
</event>
<event>
 7    1  0.6253338E-006  0.8937069E+02  0.7818608E-02  0.1371619E+00
          2   -1    0    0  502    0  0.00000000000E+00  0.00000000000E+00  0.28301615215E+04  0.28301615215E+04  0.00000000000E+00 0. -1.
          1   -1    0    0  501    0 -0.00000000000E+00 -0.00000000000E+00 -0.12229961088E+03  0.12229961088E+03  0.00000000000E+00 0. -1.
         25    2    1    2    0    0  0.55882236502E+02  0.39676736407E+02  0.37749734310E+03  0.40351700953E+03  0.12499866065E+03 0.  0.
          2    1    1    2  501    0 -0.21383437725E+02  0.44985074182E+02 -0.10271131301E+03  0.11415131242E+03  0.00000000000E+00 0. -1.
          1    1    1    2  502    0 -0.34498798778E+02 -0.84661810589E+02  0.24330758805E+04  0.24347928104E+04  0.00000000000E+00 0. -1.
         22    1    3    3    0    0 -0.33723997839E+02 -0.14452623445E+02  0.76718309296E+02  0.85040492331E+02  0.00000000000E+00 0.  1.
         22    1    3    3    0    0  0.89606234341E+02  0.54129359852E+02  0.30077903380E+03  0.31847651719E+03  0.00000000000E+00 0.  1.
</event>
<event>
 7    1  0.6253338E-006  0.6263549E+02  0.7818608E-02  0.1396297E+00
          2   -1    0    0  502    0  0.00000000000E+00  0.00000000000E+00  0.83619182809E+03  0.83619182809E+03  0.00000000000E+00 0. -1.
          1   -1    0    0  501    0 -0.00000000000E+00 -0.00000000000E+00 -0.14915723694E+04  0.14915723694E+04  0.00000000000E+00 0. -1.
         25    2    1    2    0    0  0.53953944401E+02  0.78897189328E+02 -0.11065174267E+03  0.19236530729E+03  0.12499923477E+03 0.  0.
          2    1    1    2  501    0 -0.58755785591E+02 -0.20914752419E+02 -0.13382726214E+04  0.13397250756E+04  0.00000000000E+00 0. -1.
          1    1    1    2  502    0  0.48018411895E+01 -0.57982436909E+02  0.79354382270E+03  0.79567381458E+03  0.00000000000E+00 0. -1.
         22    1    3    3    0    0  0.54597501718E+02  0.72443391684E+02 -0.97282291041E+01  0.91233604741E+02  0.00000000000E+00 0.  1.
         22    1    3    3    0    0 -0.64355731705E+00  0.64537976439E+01 -0.10092351357E+03  0.10113170255E+03  0.00000000000E+00 0.  1.
</event>
<event>
 7    1  0.6253338E-006  0.8064768E+02  0.7818608E-02  0.1359294E+00
          2   -1    0    0  502    0  0.00000000000E+00  0.00000000000E+00  0.36007281607E+03  0.36007281607E+03  0.00000000000E+00 0. -1.
          1   -1    0    0  501    0 -0.00000000000E+00 -0.00000000000E+00 -0.90553373172E+03  0.90553373172E+03  0.00000000000E+00 0. -1.
         25    2    1    2    0    0 -0.42041887398E+02 -0.45412314720E+02 -0.13757664367E+03  0.19591181074E+03  0.12499722429E+03 0.  0.
          2    1    1    2  501    0  0.83690069346E+02  0.61363544719E+00 -0.73356292159E+03  0.73832172133E+03  0.00000000000E+00 0. -1.
          1    1    1    2  502    0 -0.41648181949E+02  0.44798679273E+02  0.32567864961E+03  0.33137301571E+03  0.00000000000E+00 0. -1.
         22    1    3    3    0    0 -0.16433776679E+02  0.43727226513E+02 -0.44539027486E+02  0.64543507217E+02  0.00000000000E+00 0. -1.
         22    1    3    3    0    0 -0.25608110719E+02 -0.89139541233E+02 -0.93037616187E+02  0.13136830353E+03  0.00000000000E+00 0. -1.
</event>
<event>
 7    1  0.6253338E-006  0.2100131E+03  0.7818608E-02  0.1332966E+00
          2   -1    0    0  502    0  0.00000000000E+00  0.00000000000E+00  0.83654710577E+03  0.83654710577E+03  0.00000000000E+00 0. -1.
          1   -1    0    0  501    0 -0.00000000000E+00 -0.00000000000E+00 -0.22992020824E+03  0.22992020824E+03  0.00000000000E+00 0. -1.
         25    2    1    2    0    0 -0.17929680052E+03  0.10852677570E+03  0.10470567267E+03  0.26554458237E+03  0.12500097446E+03 0.  0.
          2    1    1    2  501    0  0.19379067084E+03 -0.82896662458E+02 -0.74646187512E+02  0.22360396701E+03  0.00000000000E+00 0. -1.
          1    1    1    2  502    0 -0.14493870314E+02 -0.25630113244E+02  0.57656741237E+03  0.57731876463E+03  0.00000000000E+00 0. -1.
         22    1    3    3    0    0 -0.71501689290E+02  0.55444970500E+02  0.11340160088E+03  0.14507432373E+03  0.00000000000E+00 0.  1.
         22    1    3    3    0    0 -0.10779511123E+03  0.53081805202E+02 -0.86959282094E+01  0.12047025864E+03  0.00000000000E+00 0.  1.
</event>
<event>
 7    1  0.6253338E-006  0.1018225E+03  0.7818608E-02  0.1396242E+00
          2   -1    0    0  502    0  0.00000000000E+00  0.00000000000E+00  0.12423487375E+04  0.12423487375E+04  0.00000000000E+00 0. -1.
          1   -1    0    0  501    0 -0.00000000000E+00 -0.00000000000E+00 -0.55121439376E+03  0.55121439376E+03  0.00000000000E+00 0. -1.
         25    2    1    2    0    0  0.40901498510E+02  0.12825139577E+03  0.17225150808E+03  0.25182902213E+03  0.12500368496E+03 0.  0.
          2    1    1    2  501    0 -0.36281870792E+01 -0.35621225232E+02 -0.50837538720E+03  0.50963474150E+03  0.00000000000E+00 0. -1.
          1    1    1    2  502    0 -0.37273311431E+02 -0.92630170536E+02  0.10272582228E+04  0.10320993676E+04  0.00000000000E+00 0. -1.
         22    1    3    3    0    0  0.19589562937E+02  0.15110840057E+03  0.14008991423E+03  0.20698474283E+03  0.00000000000E+00 0. -1.
         22    1    3    3    0    0  0.21311935573E+02 -0.22857004800E+02  0.32161593855E+02  0.44844279296E+02  0.00000000000E+00 0. -1.
</event>
<event>
 7    1  0.6253338E-006  0.1183966E+03  0.7818608E-02  0.1446295E+00
          2   -1    0    0  502    0  0.00000000000E+00  0.00000000000E+00  0.20952710818E+04  0.20952710818E+04  0.00000000000E+00 0. -1.
          1   -1    0    0  501    0 -0.00000000000E+00 -0.00000000000E+00 -0.72381391775E+02  0.72381391775E+02  0.00000000000E+00 0. -1.
         25    2    1    2    0    0 -0.99577422164E+02 -0.23091294509E+02  0.54415717014E+03  0.56760907000E+03  0.12499663856E+03 0.  0.
          2    1    1    2  501    0 -0.20635050579E+02  0.37150867365E+01 -0.56357734484E+02  0.60131534307E+02  0.00000000000E+00 0. -1.
          1    1    1    2  502    0  0.12021247274E+03  0.19376207772E+02  0.15350902544E+04  0.15399118693E+04  0.00000000000E+00 0. -1.
         22    1    3    3    0    0 -0.28784878783E+01 -0.35856336333E+01 -0.66241021253E+01  0.80635717883E+01  0.00000000000E+00 0. -1.
         22    1    3    3    0    0 -0.96698934286E+02 -0.19505660876E+02  0.55078127226E+03  0.55954549821E+03  0.00000000000E+00 0. -1.
</event>
<event>
 7    1  0.6253338E-006  0.9923021E+02  0.7818608E-02  0.1411968E+00
          2   -1    0    0  502    0  0.00000000000E+00  0.00000000000E+00  0.64220435478E+02  0.64220435478E+02  0.00000000000E+00 0. -1.
          1   -1    0    0  501    0 -0.00000000000E+00 -0.00000000000E+00 -0.56569745837E+03  0.56569745837E+03  0.00000000000E+00 0. -1.
         25    2    1    2    0    0  0.56995142610E+02  0.53700865774E+02 -0.17705280299E+03  0.23044456107E+03  0.12499908566E+03 0.  0.
          2    1    1    2  501    0  0.31608032706E+02  0.74035575525E+01 -0.28187430570E+03  0.28373756292E+03  0.00000000000E+00 0. -1.
          1    1    1    2  502    0 -0.88603175316E+02 -0.61104423326E+02 -0.42549914201E+02  0.11573576986E+03  0.00000000000E+00 0. -1.
         22    1    3    3    0    0  0.26860374218E+02  0.62195711362E+02 -0.18594068584E+03  0.19789826898E+03  0.00000000000E+00 0.  1.
         22    1    3    3    0    0  0.30134768392E+02 -0.84948455877E+01  0.88878828465E+01  0.32546292095E+02  0.00000000000E+00 0.  1.
</event>
<event>
 7    1  0.6253338E-006  0.3465788E+02  0.7818608E-02  0.1633866E+00
          2   -1    0    0  502    0  0.00000000000E+00  0.00000000000E+00  0.11480114363E+04  0.11480114363E+04  0.00000000000E+00 0. -1.
          1   -1    0    0  501    0 -0.00000000000E+00 -0.00000000000E+00 -0.63524603158E+02  0.63524603158E+02  0.00000000000E+00 0. -1.
         25    2    1    2    0    0  0.35468627809E+02 -0.16405821130E+02  0.36075625267E+03  0.38379317719E+03  0.12499981797E+03 0.  0.
          2    1    1    2  501    0 -0.34376604406E+02 -0.45959706750E+01 -0.46064160248E+02  0.57660911684E+02  0.00000000000E+00 0. -1.
          1    1    1    2  502    0 -0.10920234038E+01  0.21001791805E+02  0.76979474076E+03  0.77008195063E+03  0.00000000000E+00 0. -1.
         22    1    3    3    0    0  0.80260788968E+02 -0.12217403019E+02  0.27784510309E+03  0.28946322822E+03  0.00000000000E+00 0.  1.
         22    1    3    3    0    0 -0.44792161158E+02 -0.41884181108E+01  0.82911149581E+02  0.94329948968E+02  0.00000000000E+00 0.  1.
</event>
<event>
 7    1  0.6253338E-006  0.5461647E+02  0.7818608E-02  0.1433780E+00
          2   -1    0    0  502    0  0.00000000000E+00  0.00000000000E+00  0.23040355897E+03  0.23040355897E+03  0.00000000000E+00 0. -1.
          1   -1    0    0  501    0 -0.00000000000E+00 -0.00000000000E+00 -0.26463180241E+03  0.26463180241E+03  0.00000000000E+00 0. -1.
         25    2    1    2    0    0 -0.25782971551E+02  0.34895687704E+02 -0.39085524346E+02  0.13796699543E+03  0.12499897189E+03 0.  0.
          2    1    1    2  501    0  0.46850452212E+02  0.17197505079E+02 -0.16802664867E+03  0.17528169818E+03  0.00000000000E+00 0. -1.
          1    1    1    2  502    0 -0.21067480661E+02 -0.52093192783E+02  0.17288392958E+03  0.18178666778E+03  0.00000000000E+00 0. -1.
         22    1    3    3    0    0  0.17260715916E+02  0.70814209104E+02 -0.66298764318E+01  0.73188385598E+02  0.00000000000E+00 0.  1.
         22    1    3    3    0    0 -0.43043687467E+02 -0.35918521400E+02 -0.32455647914E+02  0.64778609833E+02  0.00000000000E+00 0.  1.
</event>
<event>
 7    1  0.6253338E-006  0.3831412E+02  0.7818608E-02  0.1554960E+00
          2   -1    0    0  502    0  0.00000000000E+00  0.00000000000E+00  0.14859675807E+04  0.14859675807E+04  0.00000000000E+00 0. -1.
          1   -1    0    0  501    0 -0.00000000000E+00 -0.00000000000E+00 -0.74552695844E+03  0.74552695844E+03  0.00000000000E+00 0. -1.
         25    2    1    2    0    0 -0.84960550764E+01 -0.67179650607E+02  0.42709736120E+03  0.45013659811E+03  0.12500205041E+03 0.  0.
          2    1    1    2  501    0 -0.38643519037E-01  0.30695920153E+02 -0.73335105870E+03  0.73399319909E+03  0.00000000000E+00 0. -1.
          1    1    1    2  502    0  0.85346985955E+01  0.36483730454E+02  0.10466943198E+04  0.10473647419E+04  0.00000000000E+00 0. -1.
         22    1    3    3    0    0 -0.89065880114E+01 -0.34420492364E+02  0.41290498280E+03  0.41443289255E+03  0.00000000000E+00 0. -1.
         22    1    3    3    0    0  0.41053293491E+00 -0.32759158243E+02  0.14192378397E+02  0.35703705559E+02  0.00000000000E+00 0. -1.
</event>
<event>
 7    1  0.6253338E-006  0.5590557E+02  0.7818608E-02  0.1533806E+00
          2   -1    0    0  502    0  0.00000000000E+00  0.00000000000E+00  0.16211058673E+04  0.16211058673E+04  0.00000000000E+00 0. -1.
          1   -1    0    0  501    0 -0.00000000000E+00 -0.00000000000E+00 -0.50714956041E+02  0.50714956041E+02  0.00000000000E+00 0. -1.
         25    2    1    2    0    0 -0.30250039155E+02  0.15755613561E+02  0.39663331280E+03  0.41726513302E+03  0.12501560779E+03 0.  0.
          2    1    1    2  501    0  0.54324220866E+02 -0.17293537242E+02 -0.20103332467E+02  0.60451065990E+02  0.00000000000E+00 0. -1.
          1    1    1    2  502    0 -0.24074181712E+02  0.15379236812E+01  0.11938609309E+04  0.11941046243E+04  0.00000000000E+00 0. -1.
         22    1    3    3    0    0 -0.62656800948E+02 -0.26623655923E+02  0.29181593469E+03  0.29965185382E+03  0.00000000000E+00 0. -1.
         22    1    3    3    0    0  0.32406761794E+02  0.42379269483E+02  0.10481737810E+03  0.11761327920E+03  0.00000000000E+00 0. -1.
</event>
<event>
 7    1  0.6253338E-006  0.2259203E+03  0.7818608E-02  0.1219732E+00
          2   -1    0    0  502    0  0.00000000000E+00  0.00000000000E+00  0.17650263263E+03  0.17650263263E+03  0.00000000000E+00 0. -1.
          1   -1    0    0  501    0 -0.00000000000E+00 -0.00000000000E+00 -0.29668852752E+04  0.29668852752E+04  0.00000000000E+00 0. -1.
         25    2    1    2    0    0  0.24065380041E+03 -0.68708597104E+01 -0.58062732761E+03  0.64087002954E+03  0.12499936332E+03 0.  0.
          2    1    1    2  501    0 -0.20996647437E+03  0.81923790437E+02 -0.23390597647E+04  0.23498931913E+04  0.00000000000E+00 0. -1.
          1    1    1    2  502    0 -0.30687326042E+02 -0.75052930726E+02  0.12930444967E+03  0.15262468704E+03  0.00000000000E+00 0. -1.
         22    1    3    3    0    0  0.23299966206E+03  0.25492355311E+02 -0.46767756064E+03  0.52312618308E+03  0.00000000000E+00 0. -1.
         22    1    3    3    0    0  0.76541383540E+01 -0.32363215022E+02 -0.11294976697E+03  0.11774384646E+03  0.00000000000E+00 0. -1.
</event>
<event>
 7    1  0.6253338E-006  0.8425705E+02  0.7818608E-02  0.1460524E+00
          2   -1    0    0  502    0  0.00000000000E+00  0.00000000000E+00  0.87770617104E+02  0.87770617104E+02  0.00000000000E+00 0. -1.
          1   -1    0    0  501    0 -0.00000000000E+00 -0.00000000000E+00 -0.12948137317E+04  0.12948137317E+04  0.00000000000E+00 0. -1.
         25    2    1    2    0    0 -0.42643112646E+02 -0.87716284165E+02 -0.66048582589E+02  0.17175587866E+03  0.12500034011E+03 0.  0.
          2    1    1    2  501    0  0.24587902030E+02  0.99996015009E+01 -0.11299726323E+04  0.11302843477E+04  0.00000000000E+00 0. -1.
          1    1    1    2  502    0  0.18055210616E+02  0.77716682664E+02 -0.11021899785E+02  0.80544122501E+02  0.00000000000E+00 0. -1.
         22    1    3    3    0    0  0.12410628695E+02 -0.12723984869E+02  0.31994184402E+02  0.36599881573E+02  0.00000000000E+00 0.  1.
         22    1    3    3    0    0 -0.55053741341E+02 -0.74992299296E+02 -0.98042766991E+02  0.13515599709E+03  0.00000000000E+00 0.  1.
</event>
<event>
 7    1  0.6253338E-006  0.4594407E+02  0.7818608E-02  0.1570488E+00
          2   -1    0    0  502    0  0.00000000000E+00  0.00000000000E+00  0.52938872628E+02  0.52938872628E+02  0.00000000000E+00 0. -1.
          1   -1    0    0  501    0 -0.00000000000E+00 -0.00000000000E+00 -0.47963161791E+03  0.47963161791E+03  0.00000000000E+00 0. -1.
         25    2    1    2    0    0  0.10975208625E+02 -0.29415585469E+02 -0.35155149411E+03  0.37443268377E+03  0.12500259914E+03 0.  0.
          2    1    1    2  501    0 -0.23428992392E+02  0.48997837671E+02 -0.10625012708E+03  0.11932642325E+03  0.00000000000E+00 0. -1.
          1    1    1    2  502    0  0.12453783767E+02 -0.19582252202E+02  0.31108875901E+02  0.38811383527E+02  0.00000000000E+00 0. -1.
         22    1    3    3    0    0  0.16485394512E+02  0.47156707226E+02 -0.10643569245E+03  0.11757584742E+03  0.00000000000E+00 0.  1.
         22    1    3    3    0    0 -0.55101858871E+01 -0.76572292695E+02 -0.24511580166E+03  0.25685683635E+03  0.00000000000E+00 0.  1.
</event>
<event>
 7    1  0.6253338E-006  0.1050038E+03  0.7818608E-02  0.1449394E+00
          2   -1    0    0  502    0  0.00000000000E+00  0.00000000000E+00  0.37922841221E+03  0.37922841221E+03  0.00000000000E+00 0. -1.
          1   -1    0    0  501    0 -0.00000000000E+00 -0.00000000000E+00 -0.14886656763E+04  0.14886656763E+04  0.00000000000E+00 0. -1.
         25    2    1    2    0    0  0.15387376219E+02 -0.12352924801E+03 -0.10044678231E+03  0.20300033121E+03  0.12499332756E+03 0.  0.
          2    1    1    2  501    0 -0.12229443575E+02  0.19604022354E+02 -0.13285982751E+04  0.13287991773E+04  0.00000000000E+00 0. -1.
          1    1    1    2  502    0 -0.31579326443E+01  0.10392522565E+03  0.31960779339E+03  0.33609457993E+03  0.00000000000E+00 0. -1.
         22    1    3    3    0    0 -0.24938935776E+02 -0.27728484381E+02 -0.91339731429E+02  0.98659849489E+02  0.00000000000E+00 0.  1.
         22    1    3    3    0    0  0.40326311995E+02 -0.95800763625E+02 -0.91070508859E+01  0.10434048172E+03  0.00000000000E+00 0.  1.
</event>
<event>
 7    1  0.6253338E-006  0.4323457E+02  0.7818608E-02  0.1494100E+00
          2   -1    0    0  502    0  0.00000000000E+00  0.00000000000E+00  0.11399597963E+03  0.11399597963E+03  0.00000000000E+00 0. -1.
          1   -1    0    0  501    0 -0.00000000000E+00 -0.00000000000E+00 -0.34544215546E+03  0.34544215546E+03  0.00000000000E+00 0. -1.
         25    2    1    2    0    0  0.33231649468E+02 -0.71359170890E+02 -0.19239585146E+02  0.14897139379E+03  0.12500336289E+03 0.  0.
          2    1    1    2  501    0 -0.29092016657E+02  0.30800425961E+02 -0.25078460206E+03  0.25433821636E+03  0.00000000000E+00 0. -1.
          1    1    1    2  502    0 -0.41396328109E+01  0.40558744928E+02  0.38578011372E+02  0.56128524935E+02  0.00000000000E+00 0. -1.
         22    1    3    3    0    0 -0.15456633272E+02 -0.90462313270E+02 -0.27981012376E+02  0.95944122738E+02  0.00000000000E+00 0. -1.
         22    1    3    3    0    0  0.48688282740E+02  0.19103142381E+02  0.87414272296E+01  0.53027271050E+02  0.00000000000E+00 0. -1.
</event>
<event>
 7    1  0.6253338E-006  0.1154697E+03  0.7818608E-02  0.1318859E+00
          2   -1    0    0  502    0  0.00000000000E+00  0.00000000000E+00  0.75740331001E+02  0.75740331001E+02  0.00000000000E+00 0. -1.
          1   -1    0    0  501    0 -0.00000000000E+00 -0.00000000000E+00 -0.13500384296E+04  0.13500384296E+04  0.00000000000E+00 0. -1.
         25    2    1    2    0    0  0.63963446541E+02  0.10085914824E+02 -0.15708982819E+03  0.21097036152E+03  0.12505291340E+03 0.  0.
          2    1    1    2  501    0 -0.12138729546E+03  0.95119242408E+01 -0.11425742384E+04  0.11490436208E+04  0.00000000000E+00 0. -1.
          1    1    1    2  502    0  0.57423848922E+02 -0.19597839065E+02  0.25365968052E+02  0.65764778235E+02  0.00000000000E+00 0. -1.
         22    1    3    3    0    0  0.51433672529E+02 -0.40071087456E+02 -0.26248736356E+02  0.70285922346E+02  0.00000000000E+00 0. -1.
         22    1    3    3    0    0  0.12529774012E+02  0.50157002281E+02 -0.13084109183E+03  0.14068443918E+03  0.00000000000E+00 0. -1.
</event>
<event>
 7    1  0.6253338E-006  0.9891135E+02  0.7818608E-02  0.1359415E+00
          2   -1    0    0  502    0  0.00000000000E+00  0.00000000000E+00  0.16519378093E+04  0.16519378093E+04  0.00000000000E+00 0. -1.
          1   -1    0    0  501    0 -0.00000000000E+00 -0.00000000000E+00 -0.48999570755E+03  0.48999570755E+03  0.00000000000E+00 0. -1.
         25    2    1    2    0    0 -0.11406329603E+03  0.92507691698E+02  0.21695835174E+03  0.29027789572E+03  0.12498888682E+03 0.  0.
          2    1    1    2  501    0  0.71026810588E+02 -0.67405153045E+02 -0.44759763751E+03  0.45818326856E+03  0.00000000000E+00 0. -1.
          1    1    1    2  502    0  0.43036485440E+02 -0.25102538654E+02  0.13925813875E+04  0.13934723526E+04  0.00000000000E+00 0. -1.
         22    1    3    3    0    0 -0.48509206009E+02  0.28649603884E+02  0.18492679504E+03  0.19331803432E+03  0.00000000000E+00 0. -1.
         22    1    3    3    0    0 -0.65554090020E+02  0.63858087814E+02  0.32031556705E+02  0.96959861399E+02  0.00000000000E+00 0. -1.
</event>
<event>
 7    1  0.6253338E-006  0.2542262E+02  0.7818608E-02  0.1695291E+00
          2   -1    0    0  502    0  0.00000000000E+00  0.00000000000E+00  0.72930808747E+03  0.72930808747E+03  0.00000000000E+00 0. -1.
          1   -1    0    0  501    0 -0.00000000000E+00 -0.00000000000E+00 -0.36609348510E+02  0.36609348510E+02  0.00000000000E+00 0. -1.
         25    2    1    2    0    0 -0.10050970552E+02 -0.11991688103E+02  0.18820009425E+03  0.22647198981E+03  0.12500185638E+03 0.  0.
          2    1    1    2  501    0 -0.50770012076E+01  0.25664837649E+02 -0.73623995365E+01  0.27178387733E+02  0.00000000000E+00 0. -1.
          1    1    1    2  502    0  0.15127971760E+02 -0.13673149547E+02  0.51186104425E+03  0.51226705844E+03  0.00000000000E+00 0. -1.
         22    1    3    3    0    0  0.43247000448E+02 -0.38386214082E+02  0.51660171783E+02  0.77540813949E+02  0.00000000000E+00 0. -1.
         22    1    3    3    0    0 -0.53297971000E+02  0.26394525979E+02  0.13653992247E+03  0.14893117586E+03  0.00000000000E+00 0. -1.
</event>
<event>
 7    1  0.6253338E-006  0.1768696E+03  0.7818608E-02  0.1396918E+00
          2   -1    0    0  502    0  0.00000000000E+00  0.00000000000E+00  0.89983922796E+03  0.89983922796E+03  0.00000000000E+00 0. -1.
          1   -1    0    0  501    0 -0.00000000000E+00 -0.00000000000E+00 -0.12464972746E+03  0.12464972746E+03  0.00000000000E+00 0. -1.
         25    2    1    2    0    0 -0.15478387814E+03  0.11655456307E+03  0.12569786726E+03  0.26261900031E+03  0.12500308150E+03 0.  0.
          2    1    1    2  501    0  0.12142267152E+02 -0.16520033759E+02 -0.43085836062E+02  0.47715148917E+02  0.00000000000E+00 0. -1.
          1    1    1    2  502    0  0.14264161099E+03 -0.10003452931E+03  0.69257746930E+03  0.71415480620E+03  0.00000000000E+00 0. -1.
         22    1    3    3    0    0 -0.12976070418E+03  0.14270882531E+03  0.94290880278E+02  0.21469610912E+03  0.00000000000E+00 0. -1.
         22    1    3    3    0    0 -0.25023173962E+02 -0.26154262233E+02  0.31406986987E+02  0.47922891186E+02  0.00000000000E+00 0. -1.
</event>
<event>
 7    1  0.6253338E-006  0.7009970E+02  0.7818608E-02  0.1425825E+00
          2   -1    0    0  502    0  0.00000000000E+00  0.00000000000E+00  0.67344799867E+03  0.67344799867E+03  0.00000000000E+00 0. -1.
          1   -1    0    0  501    0 -0.00000000000E+00 -0.00000000000E+00 -0.37034561747E+03  0.37034561747E+03  0.00000000000E+00 0. -1.
         25    2    1    2    0    0 -0.89912290093E+02 -0.28228988091E+02 -0.93086426770E+02  0.18212912867E+03  0.12499936393E+03 0.  0.
          2    1    1    2  501    0  0.67796998215E+02 -0.66527305907E+01 -0.22705476375E+03  0.23705391271E+03  0.00000000000E+00 0. -1.
          1    1    1    2  502    0  0.22115291878E+02  0.34881718681E+02  0.62324357171E+03  0.62461057477E+03  0.00000000000E+00 0. -1.
         22    1    3    3    0    0 -0.56170529877E+02  0.25837813902E+02 -0.10047112637E+03  0.11797104852E+03  0.00000000000E+00 0. -1.
         22    1    3    3    0    0 -0.33741760216E+02 -0.54066801993E+02  0.73846996033E+01  0.64158080149E+02  0.00000000000E+00 0. -1.
</event>
<event>
 7    1  0.6253338E-006  0.5410400E+02  0.7818608E-02  0.1500408E+00
          2   -1    0    0  502    0  0.00000000000E+00  0.00000000000E+00  0.26132950061E+03  0.26132950061E+03  0.00000000000E+00 0. -1.
          1   -1    0    0  501    0 -0.00000000000E+00 -0.00000000000E+00 -0.25952062326E+04  0.25952062326E+04  0.00000000000E+00 0. -1.
         25    2    1    2    0    0 -0.19770928263E+02 -0.13630230242E+02 -0.40953746939E+03  0.42886104657E+03  0.12499674255E+03 0.  0.
          2    1    1    2  501    0  0.46147071946E+02  0.30280478333E+02 -0.21746889821E+04  0.21753893050E+04  0.00000000000E+00 0. -1.
          1    1    1    2  502    0 -0.26376143683E+02 -0.16650248091E+02  0.25034971950E+03  0.25228538160E+03  0.00000000000E+00 0. -1.
         22    1    3    3    0    0  0.34644598828E+02  0.33943235503E+02 -0.10200276610E+03  0.11294669431E+03  0.00000000000E+00 0. -1.
         22    1    3    3    0    0 -0.54415527091E+02 -0.47573465745E+02 -0.30753470330E+03  0.31591435226E+03  0.00000000000E+00 0. -1.
</event>
<event>
 7    1  0.6253338E-006  0.8249146E+02  0.7818608E-02  0.1339732E+00
          2   -1    0    0  502    0  0.00000000000E+00  0.00000000000E+00  0.36724081202E+03  0.36724081202E+03  0.00000000000E+00 0. -1.
          1   -1    0    0  501    0 -0.00000000000E+00 -0.00000000000E+00 -0.43396604382E+03  0.43396604382E+03  0.00000000000E+00 0. -1.
         25    2    1    2    0    0  0.13436582643E+02  0.19099471284E+01  0.12679604875E+03  0.17856698820E+03  0.12499896658E+03 0.  0.
          2    1    1    2  501    0  0.66226952028E+02  0.49181622601E+02 -0.39315155319E+03  0.40171256509E+03  0.00000000000E+00 0. -1.
          1    1    1    2  502    0 -0.79663534671E+02 -0.51091569730E+02  0.19963027265E+03  0.22092730255E+03  0.00000000000E+00 0. -1.
         22    1    3    3    0    0  0.40891896619E+02 -0.30209274170E+02  0.67315238798E+01  0.51284119070E+02  0.00000000000E+00 0. -1.
         22    1    3    3    0    0 -0.27455313976E+02  0.32119221299E+02  0.12006452487E+03  0.12728286913E+03  0.00000000000E+00 0. -1.
</event>
<event>
 7    1  0.6253338E-006  0.1143582E+03  0.7818608E-02  0.1372443E+00
          2   -1    0    0  502    0  0.00000000000E+00  0.00000000000E+00  0.30919039590E+03  0.30919039590E+03  0.00000000000E+00 0. -1.
          1   -1    0    0  501    0 -0.00000000000E+00 -0.00000000000E+00 -0.45094449367E+03  0.45094449367E+03  0.00000000000E+00 0. -1.
         25    2    1    2    0    0 -0.40010391592E+00 -0.14480971656E+03 -0.11025713327E+03  0.22079793694E+03  0.12500031770E+03 0.  0.
          2    1    1    2  501    0  0.18310288456E+02  0.34050814774E+02 -0.27158678492E+03  0.27432481913E+03  0.00000000000E+00 0. -1.
          1    1    1    2  502    0 -0.17910184540E+02  0.11075890179E+03  0.24008982042E+03  0.26501213350E+03  0.00000000000E+00 0. -1.
         22    1    3    3    0    0  0.58738541274E+02 -0.65937182342E+02 -0.75773406110E+02  0.11635951753E+03  0.00000000000E+00 0.  1.
         22    1    3    3    0    0 -0.59138645190E+02 -0.78872534223E+02 -0.34483727158E+02  0.10443841941E+03  0.00000000000E+00 0.  1.
</event>
<event>
 7    1  0.6253338E-006  0.8242414E+02  0.7818608E-02  0.1441710E+00
          2   -1    0    0  502    0  0.00000000000E+00  0.00000000000E+00  0.38371560281E+03  0.38371560281E+03  0.00000000000E+00 0. -1.
          1   -1    0    0  501    0 -0.00000000000E+00 -0.00000000000E+00 -0.21331963309E+03  0.21331963309E+03  0.00000000000E+00 0. -1.
         25    2    1    2    0    0 -0.24803971358E+02  0.83929164883E+02  0.17335088694E+03  0.23094327413E+03  0.12499969659E+03 0.  0.
          2    1    1    2  501    0 -0.25008635477E+02 -0.18589929373E+02 -0.17377130817E+03  0.17654315298E+03  0.00000000000E+00 0. -1.
          1    1    1    2  502    0  0.49812606834E+02 -0.65339235510E+02  0.17081639095E+03  0.18954880879E+03  0.00000000000E+00 0. -1.
         22    1    3    3    0    0  0.44698363078E+02  0.42111740068E+02  0.11712627815E+03  0.13224941340E+03  0.00000000000E+00 0.  1.
         22    1    3    3    0    0 -0.69502334436E+02  0.41817424815E+02  0.56224608792E+02  0.98693860721E+02  0.00000000000E+00 0.  1.
</event>
<event>
 7    1  0.6253338E-006  0.1153003E+03  0.7818608E-02  0.1314711E+00
          2   -1    0    0  502    0  0.00000000000E+00  0.00000000000E+00  0.11127684471E+03  0.11127684471E+03  0.00000000000E+00 0. -1.
          1   -1    0    0  501    0 -0.00000000000E+00 -0.00000000000E+00 -0.14058878516E+04  0.14058878516E+04  0.00000000000E+00 0. -1.
         25    2    1    2    0    0 -0.10143315568E+03  0.73913478872E+02 -0.80832939750E+03  0.82751029087E+03  0.12499991684E+03 0.  0.
          2    1    1    2  501    0  0.11471857364E+03 -0.12257852369E+02 -0.57183960861E+03  0.58336193230E+03  0.00000000000E+00 0. -1.
          1    1    1    2  502    0 -0.13285417963E+02 -0.61655626502E+02  0.85557999231E+02  0.10629247312E+03  0.00000000000E+00 0. -1.
         22    1    3    3    0    0 -0.71781916764E+02 -0.19637459737E+02 -0.25882901160E+03  0.26931529969E+03  0.00000000000E+00 0. -1.
         22    1    3    3    0    0 -0.29651238914E+02  0.93550938608E+02 -0.54950038589E+03  0.55819499118E+03  0.00000000000E+00 0. -1.
</event>
<event>
 7    1  0.6253338E-006  0.1280096E+03  0.7818608E-02  0.1293086E+00
          2   -1    0    0  502    0  0.00000000000E+00  0.00000000000E+00  0.13445735797E+04  0.13445735797E+04  0.00000000000E+00 0. -1.
          1   -1    0    0  501    0 -0.00000000000E+00 -0.00000000000E+00 -0.42977273698E+03  0.42977273698E+03  0.00000000000E+00 0. -1.
         25    2    1    2    0    0 -0.43503800941E+01 -0.19167530716E+03  0.19819510525E+03  0.30276130241E+03  0.12499902924E+03 0.  0.
          2    1    1    2  501    0  0.12300277534E+02  0.68155810762E+02 -0.37077227219E+03  0.37718508612E+03  0.00000000000E+00 0. -1.
          1    1    1    2  502    0 -0.79498974402E+01  0.12351949640E+03  0.10873780096E+04  0.10943999281E+04  0.00000000000E+00 0. -1.
         22    1    3    3    0    0 -0.89566578155E+01 -0.20548021070E+03  0.20139767885E+03  0.28785997248E+03  0.00000000000E+00 0.  1.
         22    1    3    3    0    0  0.46062777214E+01  0.13804903540E+02 -0.32025735968E+01  0.14901329935E+02  0.00000000000E+00 0.  1.
</event>
<event>
 7    1  0.6253338E-006  0.5969074E+02  0.7818608E-02  0.1420994E+00
          2   -1    0    0  502    0  0.00000000000E+00  0.00000000000E+00  0.43961377903E+03  0.43961377903E+03  0.00000000000E+00 0. -1.
          1   -1    0    0  501    0 -0.00000000000E+00 -0.00000000000E+00 -0.45870718663E+03  0.45870718663E+03  0.00000000000E+00 0. -1.
         25    2    1    2    0    0  0.45276587274E+02 -0.67517661203E+02 -0.18903547365E+03  0.24076724446E+03  0.12500340705E+03 0.  0.
          2    1    1    2  501    0 -0.55814591856E+02  0.18302617284E+02 -0.23870145852E+03  0.24582237645E+03  0.00000000000E+00 0. -1.
          1    1    1    2  502    0  0.10538004582E+02  0.49215043919E+02  0.40864352457E+03  0.41173134476E+03  0.00000000000E+00 0. -1.
         22    1    3    3    0    0  0.57028140254E+01 -0.93874669281E+02 -0.86648950854E+02  0.12787891267E+03  0.00000000000E+00 0.  1.
         22    1    3    3    0    0  0.39573773248E+02  0.26357008078E+02 -0.10238652280E+03  0.11288833179E+03  0.00000000000E+00 0.  1.
</event>
<event>
 7    1  0.6253338E-006  0.1257774E+03  0.7818608E-02  0.1317326E+00
          2   -1    0    0  502    0  0.00000000000E+00  0.00000000000E+00  0.12758227653E+04  0.12758227653E+04  0.00000000000E+00 0. -1.
          1   -1    0    0  501    0 -0.00000000000E+00 -0.00000000000E+00 -0.24916704736E+04  0.24916704736E+04  0.00000000000E+00 0. -1.
         25    2    1    2    0    0 -0.32952522022E+01 -0.70721357269E+02 -0.78364993891E+02  0.16364344546E+03  0.12500294362E+03 0.  0.
          2    1    1    2  501    0 -0.19909855438E+01 -0.56438628209E+02 -0.23670448652E+04  0.23677184538E+04  0.00000000000E+00 0. -1.
          1    1    1    2  502    0  0.52862377460E+01  0.12715998548E+03  0.12295621507E+04  0.12361313396E+04  0.00000000000E+00 0. -1.
         22    1    3    3    0    0  0.23196822235E+02 -0.32053466200E+02  0.27285102266E+02  0.48062397598E+02  0.00000000000E+00 0. -1.
         22    1    3    3    0    0 -0.26492074438E+02 -0.38667891068E+02 -0.10565009616E+03  0.11558104787E+03  0.00000000000E+00 0. -1.
</event>
<event>
 7    1  0.6253338E-006  0.1624562E+03  0.7818608E-02  0.1251815E+00
          2   -1    0    0  502    0  0.00000000000E+00  0.00000000000E+00  0.72189478278E+03  0.72189478278E+03  0.00000000000E+00 0. -1.
          1   -1    0    0  501    0 -0.00000000000E+00 -0.00000000000E+00 -0.22757545233E+03  0.22757545233E+03  0.00000000000E+00 0. -1.
         25    2    1    2    0    0  0.13849654391E+03 -0.10852266722E+03  0.20661576331E+03  0.29877888921E+03  0.12498115466E+03 0.  0.
          2    1    1    2  501    0 -0.16016110254E+03  0.30248344483E+02 -0.14029420294E+03  0.21505581715E+03  0.00000000000E+00 0. -1.
          1    1    1    2  502    0  0.21664558638E+02  0.78274322732E+02  0.42799777009E+03  0.43563552874E+03  0.00000000000E+00 0. -1.
         22    1    3    3    0    0  0.13202285996E+03 -0.36540434099E+02  0.16821853878E+03  0.21693942856E+03  0.00000000000E+00 0.  1.
         22    1    3    3    0    0  0.64736839422E+01 -0.71982233116E+02  0.38397224528E+02  0.81839460651E+02  0.00000000000E+00 0.  1.
</event>
<event>
 7    1  0.6253338E-006  0.1366174E+03  0.7818608E-02  0.1329637E+00
          2   -1    0    0  502    0  0.00000000000E+00  0.00000000000E+00  0.36459285151E+03  0.36459285151E+03  0.00000000000E+00 0. -1.
          1   -1    0    0  501    0 -0.00000000000E+00 -0.00000000000E+00 -0.12277393646E+04  0.12277393646E+04  0.00000000000E+00 0. -1.
         25    2    1    2    0    0  0.25094755439E+02  0.92741225502E+02 -0.53899989727E+03  0.56158393109E+03  0.12499976297E+03 0.  0.
          2    1    1    2  501    0  0.34497905687E+02  0.31336022724E+02 -0.66319182796E+03  0.66482738548E+03  0.00000000000E+00 0. -1.
          1    1    1    2  502    0 -0.59592661126E+02 -0.12407724823E+03  0.33904521218E+03  0.36592089950E+03  0.00000000000E+00 0. -1.
         22    1    3    3    0    0  0.43268679171E+02 -0.64272511981E+01 -0.28447145173E+03  0.28781503610E+03  0.00000000000E+00 0. -1.
         22    1    3    3    0    0 -0.18173923732E+02  0.99168476700E+02 -0.25452844553E+03  0.27376889498E+03  0.00000000000E+00 0. -1.
</event>
<event>
 7    1  0.6253338E-006  0.7154601E+02  0.7818608E-02  0.1355775E+00
          2   -1    0    0  502    0  0.00000000000E+00  0.00000000000E+00  0.23743394214E+04  0.23743394214E+04  0.00000000000E+00 0. -1.
          1   -1    0    0  501    0 -0.00000000000E+00 -0.00000000000E+00 -0.39456813829E+02  0.39456813829E+02  0.00000000000E+00 0. -1.
         25    2    1    2    0    0  0.34420721489E+02 -0.40216393071E+02  0.14339772443E+04  0.14403882013E+04  0.12500115557E+03 0.  0.
          2    1    1    2  501    0  0.31955546345E+02  0.65493197721E+02  0.32485436099E+01  0.72945657346E+02  0.00000000000E+00 0. -1.
          1    1    1    2  502    0 -0.66376267834E+02 -0.25276804650E+02  0.89765681972E+03  0.90046237666E+03  0.00000000000E+00 0. -1.
         22    1    3    3    0    0 -0.37679530646E+02  0.11405552473E+02  0.69418420976E+03  0.69529961221E+03  0.00000000000E+00 0. -1.
         22    1    3    3    0    0  0.72100252135E+02 -0.51621945544E+02  0.73979303451E+03  0.74508858905E+03  0.00000000000E+00 0. -1.
</event>
<event>
 7    1  0.6253338E-006  0.6625412E+02  0.7818608E-02  0.1375543E+00
          2   -1    0    0  502    0  0.00000000000E+00  0.00000000000E+00  0.24037555810E+03  0.24037555810E+03  0.00000000000E+00 0. -1.
          1   -1    0    0  501    0 -0.00000000000E+00 -0.00000000000E+00 -0.12827356891E+03  0.12827356891E+03  0.00000000000E+00 0. -1.
         25    2    1    2    0    0 -0.42215916554E+02  0.54928048662E+02 -0.21792612674E+02  0.14456230783E+03  0.12499627489E+03 0.  0.
          2    1    1    2  501    0 -0.20231084456E+02 -0.73151035406E+02  0.75037004940E+00  0.75900815637E+02  0.00000000000E+00 0. -1.
          1    1    1    2  502    0  0.62447001009E+02  0.18222986744E+02  0.13314423182E+03  0.14818600355E+03  0.00000000000E+00 0. -1.
         22    1    3    3    0    0  0.14970475972E+02 -0.26422591414E+02  0.20354914840E+02  0.36559418020E+02  0.00000000000E+00 0. -1.
         22    1    3    3    0    0 -0.57186392526E+02  0.81350640075E+02 -0.42147527514E+02  0.10800288981E+03  0.00000000000E+00 0. -1.
</event>
<event>
 7    1  0.6253338E-006  0.5986359E+02  0.7818608E-02  0.1512834E+00
          2   -1    0    0  502    0  0.00000000000E+00  0.00000000000E+00  0.13803306497E+04  0.13803306497E+04  0.00000000000E+00 0. -1.
          1   -1    0    0  501    0 -0.00000000000E+00 -0.00000000000E+00 -0.35212730979E+03  0.35212730979E+03  0.00000000000E+00 0. -1.
         25    2    1    2    0    0 -0.69489357022E+02  0.12510185447E+02 -0.61544526052E+02  0.15619404337E+03  0.12499429994E+03 0.  0.
          2    1    1    2  501    0  0.50899649257E+02 -0.30549596558E+02 -0.23950823704E+03  0.24675544118E+03  0.00000000000E+00 0. -1.
          1    1    1    2  502    0  0.18589707764E+02  0.18039411111E+02  0.13292561030E+04  0.13295084750E+04  0.00000000000E+00 0. -1.
         22    1    3    3    0    0 -0.91836089085E+02 -0.18841197541E+02 -0.69723783852E+02  0.11683434434E+03  0.00000000000E+00 0.  1.
         22    1    3    3    0    0  0.22346732064E+02  0.31351382988E+02  0.81792578003E+01  0.39359699025E+02  0.00000000000E+00 0.  1.
</event>
<event>
 7    1  0.6253338E-006  0.2044030E+03  0.7818608E-02  0.1207381E+00
          2   -1    0    0  502    0  0.00000000000E+00  0.00000000000E+00  0.87611199028E+03  0.87611199028E+03  0.00000000000E+00 0. -1.
          1   -1    0    0  501    0 -0.00000000000E+00 -0.00000000000E+00 -0.16259699694E+04  0.16259699694E+04  0.00000000000E+00 0. -1.
         25    2    1    2    0    0 -0.94547586285E+02  0.44868881837E+02  0.59840198397E+03  0.62021020517E+03  0.12499320600E+03 0.  0.
          2    1    1    2  501    0  0.19435956588E+03 -0.66702367956E+02 -0.15984601363E+04  0.16116139904E+04  0.00000000000E+00 0. -1.
          1    1    1    2  502    0 -0.99811979595E+02  0.21833486119E+02  0.25020017320E+03  0.27025776410E+03  0.00000000000E+00 0. -1.
         22    1    3    3    0    0 -0.11250827544E+03 -0.10397548073E+01  0.44913541170E+03  0.46301383475E+03  0.00000000000E+00 0.  1.
         22    1    3    3    0    0  0.17960689157E+02  0.45908636644E+02  0.14926657228E+03  0.15719637042E+03  0.00000000000E+00 0.  1.
</event>
<event>
 7    1  0.6253338E-006  0.1102797E+03  0.7818608E-02  0.1399934E+00
          2   -1    0    0  502    0  0.00000000000E+00  0.00000000000E+00  0.32678867042E+04  0.32678867042E+04  0.00000000000E+00 0. -1.
          1   -1    0    0  501    0 -0.00000000000E+00 -0.00000000000E+00 -0.52845379806E+03  0.52845379806E+03  0.00000000000E+00 0. -1.
         25    2    1    2    0    0  0.12038104956E+03  0.60253987921E+02  0.22527573593E+04  0.22602349395E+04  0.12499648679E+03 0.  0.
          2    1    1    2  501    0 -0.10553956854E+03 -0.31786039302E+02 -0.51866758347E+03  0.53024995518E+03  0.00000000000E+00 0. -1.
          1    1    1    2  502    0 -0.14841481023E+02 -0.28467948618E+02  0.10053431303E+04  0.10058556076E+04  0.00000000000E+00 0. -1.
         22    1    3    3    0    0  0.13213874386E+01  0.64388893226E+02  0.83719109529E+03  0.83966457926E+03  0.00000000000E+00 0. -1.
         22    1    3    3    0    0  0.11905966212E+03 -0.41349053054E+01  0.14155662640E+04  0.14205703602E+04  0.00000000000E+00 0. -1.
</event>
<event>
 7    1  0.6253338E-006  0.1236490E+03  0.7818608E-02  0.1286038E+00
          2   -1    0    0  502    0  0.00000000000E+00  0.00000000000E+00  0.39576195109E+03  0.39576195109E+03  0.00000000000E+00 0. -1.
          1   -1    0    0  501    0 -0.00000000000E+00 -0.00000000000E+00 -0.10070231342E+04  0.10070231342E+04  0.00000000000E+00 0. -1.
         25    2    1    2    0    0 -0.56431486702E+02 -0.18120044965E+02 -0.12994916560E+02  0.13894923246E+03  0.12500069050E+03 0.  0.
          2    1    1    2  501    0 -0.75758338175E+02 -0.11291745193E+02 -0.91560836308E+03  0.91880656498E+03  0.00000000000E+00 0. -1.
          1    1    1    2  502    0  0.13218982488E+03  0.29411790159E+02  0.31734209656E+03  0.34502928781E+03  0.00000000000E+00 0. -1.
         22    1    3    3    0    0 -0.49874293168E+02  0.33548124553E+02 -0.47383143983E+02  0.76538121964E+02  0.00000000000E+00 0. -1.
         22    1    3    3    0    0 -0.65571935340E+01 -0.51668169518E+02  0.34388227423E+02  0.62411110498E+02  0.00000000000E+00 0. -1.
</event>
<event>
 7    1  0.6253338E-006  0.1540094E+03  0.7818608E-02  0.1298550E+00
          2   -1    0    0  502    0  0.00000000000E+00  0.00000000000E+00  0.16447276522E+04  0.16447276522E+04  0.00000000000E+00 0. -1.
          1   -1    0    0  501    0 -0.00000000000E+00 -0.00000000000E+00 -0.10142000932E+04  0.10142000932E+04  0.00000000000E+00 0. -1.
         25    2    1    2    0    0  0.47343296158E+02  0.10479024730E+03  0.52709967790E+02  0.17783608784E+03  0.12499979925E+03 0.  0.
          2    1    1    2  501    0  0.52243216788E+02  0.16273429480E+02 -0.94682826261E+03  0.94840810682E+03  0.00000000000E+00 0. -1.
          1    1    1    2  502    0 -0.99586512946E+02 -0.12106367678E+03  0.15246458538E+04  0.15326835508E+04  0.00000000000E+00 0. -1.
         22    1    3    3    0    0  0.51341797980E+02  0.75423061674E+02  0.91368746140E+02  0.12912345342E+03  0.00000000000E+00 0.  1.
         22    1    3    3    0    0 -0.39985018221E+01  0.29367185628E+02 -0.38658778351E+02  0.48712634419E+02  0.00000000000E+00 0.  1.
</event>
<event>
 7    1  0.6253338E-006  0.5678470E+02  0.7818608E-02  0.1443308E+00
          2   -1    0    0  502    0  0.00000000000E+00  0.00000000000E+00  0.21994060109E+03  0.21994060109E+03  0.00000000000E+00 0. -1.
          1   -1    0    0  501    0 -0.00000000000E+00 -0.00000000000E+00 -0.14041745820E+03  0.14041745820E+03  0.00000000000E+00 0. -1.
         25    2    1    2    0    0 -0.67644813640E+02 -0.61720625911E+02  0.58078658136E+02  0.16544351406E+03  0.12495266839E+03 0.  0.
          2    1    1    2  501    0  0.25019765191E+02  0.48273862896E+02 -0.72650369237E+02  0.90743763639E+02  0.00000000000E+00 0. -1.
          1    1    1    2  502    0  0.42625048449E+02  0.13446763015E+02  0.94094853992E+02  0.10417078160E+03  0.00000000000E+00 0. -1.
         22    1    3    3    0    0  0.22829230494E+02 -0.54192921426E+01  0.53916269289E+02  0.58800566207E+02  0.00000000000E+00 0.  1.
         22    1    3    3    0    0 -0.90474044135E+02 -0.56301333768E+02  0.41623888475E+01  0.10664294785E+03  0.00000000000E+00 0.  1.
</event>
<event>
 7    1  0.6253338E-006  0.8478613E+02  0.7818608E-02  0.1346864E+00
          2   -1    0    0  502    0  0.00000000000E+00  0.00000000000E+00  0.18888136390E+03  0.18888136390E+03  0.00000000000E+00 0. -1.
          1   -1    0    0  501    0 -0.00000000000E+00 -0.00000000000E+00 -0.10797941582E+04  0.10797941582E+04  0.00000000000E+00 0. -1.
         25    2    1    2    0    0 -0.67162173946E+02  0.37143913253E+02 -0.73583350195E+03  0.75031099860E+03  0.12500089650E+03 0.  0.
          2    1    1    2  501    0  0.46023875611E+02  0.45415855655E+02 -0.32334563569E+03  0.32974717162E+03  0.00000000000E+00 0. -1.
          1    1    1    2  502    0  0.21138298335E+02 -0.82559768908E+02  0.16826634338E+03  0.18861735184E+03  0.00000000000E+00 0. -1.
         22    1    3    3    0    0 -0.84293652619E+02  0.10533386829E+02 -0.68625184759E+03  0.69148967485E+03  0.00000000000E+00 0.  1.
         22    1    3    3    0    0  0.17131478672E+02  0.26610526424E+02 -0.49581654364E+02  0.58821323748E+02  0.00000000000E+00 0.  1.
</event>
<event>
 7    1  0.6253338E-006  0.1295655E+03  0.7818608E-02  0.1240136E+00
          2   -1    0    0  502    0  0.00000000000E+00  0.00000000000E+00  0.14533513111E+03  0.14533513111E+03  0.00000000000E+00 0. -1.
          1   -1    0    0  501    0 -0.00000000000E+00 -0.00000000000E+00 -0.12300138483E+04  0.12300138483E+04  0.00000000000E+00 0. -1.
         25    2    1    2    0    0 -0.14281700859E+03  0.14082193625E+03 -0.68545092310E+03  0.72505062638E+03  0.12501170810E+03 0.  0.
          2    1    1    2  501    0  0.18376785153E+02 -0.11304010046E+03 -0.48388256685E+03  0.49725054957E+03  0.00000000000E+00 0. -1.
          1    1    1    2  502    0  0.12444022343E+03 -0.27781835790E+02  0.84654772731E+02  0.15304780349E+03  0.00000000000E+00 0. -1.
         22    1    3    3    0    0 -0.53548324242E+02  0.96824013067E+02 -0.52269930259E+03  0.53428164245E+03  0.00000000000E+00 0.  1.
         22    1    3    3    0    0 -0.89268684344E+02  0.43997923181E+02 -0.16275162051E+03  0.19076898393E+03  0.00000000000E+00 0.  1.
</event>
<event>
 7    1  0.6253338E-006  0.1615955E+03  0.7818608E-02  0.1233226E+00
          2   -1    0    0  502    0  0.00000000000E+00  0.00000000000E+00  0.35526027597E+03  0.35526027597E+03  0.00000000000E+00 0. -1.
          1   -1    0    0  501    0 -0.00000000000E+00 -0.00000000000E+00 -0.57174166559E+03  0.57174166559E+03  0.00000000000E+00 0. -1.
         25    2    1    2    0    0  0.16957914580E+03  0.12241240116E+03 -0.40337011263E+02  0.24697122664E+03  0.12500331860E+03 0.  0.
          2    1    1    2  501    0 -0.15095927284E+02 -0.97374148147E+02 -0.39716899575E+03  0.40920999857E+03  0.00000000000E+00 0. -1.
          1    1    1    2  502    0 -0.15448321852E+03 -0.25038253010E+02  0.22102461738E+03  0.27082071635E+03  0.00000000000E+00 0. -1.
         22    1    3    3    0    0  0.13850745146E+03  0.13377437809E+03 -0.67619640642E+02  0.20408898585E+03  0.00000000000E+00 0.  1.
         22    1    3    3    0    0  0.31071694344E+02 -0.11361976937E+02  0.27282629380E+02  0.42882240791E+02  0.00000000000E+00 0.  1.
</event>
<event>
 7    1  0.6253338E-006  0.6017597E+02  0.7818608E-02  0.1539684E+00
          2   -1    0    0  502    0  0.00000000000E+00  0.00000000000E+00  0.31934906992E+03  0.31934906992E+03  0.00000000000E+00 0. -1.
          1   -1    0    0  501    0 -0.00000000000E+00 -0.00000000000E+00 -0.34771282799E+03  0.34771282799E+03  0.00000000000E+00 0. -1.
         25    2    1    2    0    0  0.39577568447E+02 -0.27996910257E+01 -0.85673356427E+01  0.13142772193E+03  0.12500249861E+03 0.  0.
          2    1    1    2  501    0  0.21498337632E+02 -0.17134617160E+01 -0.27364956981E+03  0.27449809021E+03  0.00000000000E+00 0. -1.
          1    1    1    2  502    0 -0.61075906079E+02  0.45131527417E+01  0.25385314739E+03  0.26113608577E+03  0.00000000000E+00 0. -1.
         22    1    3    3    0    0  0.29943953073E+02 -0.28832471144E+01  0.57376226843E+02  0.64784140392E+02  0.00000000000E+00 0. -1.
         22    1    3    3    0    0  0.96336153742E+01  0.83556088715E-01 -0.65943562486E+02  0.66643581538E+02  0.00000000000E+00 0. -1.
</event>
<event>
 7    1  0.6253338E-006  0.5645214E+02  0.7818608E-02  0.1426519E+00
          2   -1    0    0  502    0  0.00000000000E+00  0.00000000000E+00  0.57637735423E+03  0.57637735423E+03  0.00000000000E+00 0. -1.
          1   -1    0    0  501    0 -0.00000000000E+00 -0.00000000000E+00 -0.18336349165E+03  0.18336349165E+03  0.00000000000E+00 0. -1.
         25    2    1    2    0    0 -0.68653775511E+01 -0.40090572522E+02 -0.43505141086E+02  0.13845533867E+03  0.12499118406E+03 0.  0.
          2    1    1    2  501    0 -0.43804660048E+02  0.46018621915E+02 -0.80052726529E+02  0.10220078684E+03  0.00000000000E+00 0. -1.
          1    1    1    2  502    0  0.50670037599E+02 -0.59280493932E+01  0.51657173020E+03  0.51908472037E+03  0.00000000000E+00 0. -1.
         22    1    3    3    0    0  0.13270930919E+02 -0.15176661972E+02  0.42303698526E+02  0.46862048451E+02  0.00000000000E+00 0.  1.
         22    1    3    3    0    0 -0.20136308470E+02 -0.24913910550E+02 -0.85808839612E+02  0.91593290220E+02  0.00000000000E+00 0.  1.
</event>
<event>
 7    1  0.6253338E-006  0.1134732E+03  0.7818608E-02  0.1339623E+00
          2   -1    0    0  502    0  0.00000000000E+00  0.00000000000E+00  0.38429818121E+04  0.38429818121E+04  0.00000000000E+00 0. -1.
          1   -1    0    0  501    0 -0.00000000000E+00 -0.00000000000E+00 -0.15205920800E+03  0.15205920800E+03  0.00000000000E+00 0. -1.
         25    2    1    2    0    0 -0.42069654496E+01 -0.63210431310E+02  0.87022800111E+03  0.88143920631E+03  0.12500017330E+03 0.  0.
          2    1    1    2  501    0  0.60923588879E+01  0.11460014589E+03 -0.12371252012E+03  0.16874566041E+03  0.00000000000E+00 0. -1.
          1    1    1    2  502    0 -0.18853934383E+01 -0.51389714579E+02  0.29444071231E+04  0.29448561534E+04  0.00000000000E+00 0. -1.
         22    1    3    3    0    0  0.15077683375E+02  0.26896518310E+02  0.78052148085E+02  0.83921970030E+02  0.00000000000E+00 0. -1.
         22    1    3    3    0    0 -0.19284648825E+02 -0.90106949620E+02  0.79217585302E+03  0.79751723628E+03  0.00000000000E+00 0. -1.
</event>
<event>
 7    1  0.6253338E-006  0.1270730E+03  0.7818608E-02  0.1341162E+00
          2   -1    0    0  502    0  0.00000000000E+00  0.00000000000E+00  0.33505005136E+03  0.33505005136E+03  0.00000000000E+00 0. -1.
          1   -1    0    0  501    0 -0.00000000000E+00 -0.00000000000E+00 -0.56591639556E+03  0.56591639556E+03  0.00000000000E+00 0. -1.
         25    2    1    2    0    0  0.15551040664E+03 -0.50843219346E+02  0.73470763896E+02  0.21861150404E+03  0.12499806807E+03 0.  0.
          2    1    1    2  501    0 -0.11080901309E+03  0.58261981741E+02 -0.48252220913E+03  0.49849852377E+03  0.00000000000E+00 0. -1.
          1    1    1    2  502    0 -0.44701393557E+02 -0.74187623950E+01  0.17818510103E+03  0.18385641912E+03  0.00000000000E+00 0. -1.
         22    1    3    3    0    0  0.15941830935E+03 -0.36970799964E+02  0.97572479455E+02  0.19052933147E+03  0.00000000000E+00 0. -1.
         22    1    3    3    0    0 -0.39079027032E+01 -0.13872419381E+02 -0.24101715559E+02  0.28082172564E+02  0.00000000000E+00 0. -1.
</event>
<event>
 7    1  0.6253338E-006  0.5889042E+02  0.7818608E-02  0.1496574E+00
          2   -1    0    0  502    0  0.00000000000E+00  0.00000000000E+00  0.61345660948E+03  0.61345660948E+03  0.00000000000E+00 0. -1.
          1   -1    0    0  501    0 -0.00000000000E+00 -0.00000000000E+00 -0.25101873644E+03  0.25101873644E+03  0.00000000000E+00 0. -1.
         25    2    1    2    0    0  0.76198075814E+01 -0.75957705136E+01 -0.19013000001E+03  0.22779375992E+03  0.12499929183E+03 0.  0.
          2    1    1    2  501    0  0.31700932987E+02  0.51435944427E+02 -0.18029788533E+02  0.63052984116E+02  0.00000000000E+00 0. -1.
          1    1    1    2  502    0 -0.39320740569E+02 -0.43840173914E+02  0.57059766158E+03  0.57362860188E+03  0.00000000000E+00 0. -1.
         22    1    3    3    0    0  0.57120447612E+01 -0.47678013335E+02 -0.18015523898E+03  0.18644497994E+03  0.00000000000E+00 0.  1.
         22    1    3    3    0    0  0.19077628202E+01  0.40082242821E+02 -0.99747610249E+01  0.41348779983E+02  0.00000000000E+00 0.  1.
</event>
<event>
 7    1  0.6253338E-006  0.2423474E+03  0.7818608E-02  0.1289819E+00
          2   -1    0    0  502    0  0.00000000000E+00  0.00000000000E+00  0.73082502874E+03  0.73082502874E+03  0.00000000000E+00 0. -1.
          1   -1    0    0  501    0 -0.00000000000E+00 -0.00000000000E+00 -0.53810427030E+03  0.53810427030E+03  0.00000000000E+00 0. -1.
         25    2    1    2    0    0 -0.14895102108E+03 -0.15131640819E+03  0.74230572022E+02  0.25732828464E+03  0.12499842473E+03 0.  0.
          2    1    1    2  501    0  0.18207080300E+03  0.16936019112E+03 -0.41121639646E+03  0.48055340635E+03  0.00000000000E+00 0. -1.
          1    1    1    2  502    0 -0.33119781914E+02 -0.18043782930E+02  0.52970658288E+03  0.53104760804E+03  0.00000000000E+00 0. -1.
         22    1    3    3    0    0 -0.78657514194E+01 -0.21036379937E+02 -0.31053955757E+02  0.38324241603E+02  0.00000000000E+00 0. -1.
         22    1    3    3    0    0 -0.14108526966E+03 -0.13028002825E+03  0.10528452778E+03  0.21900404304E+03  0.00000000000E+00 0. -1.
</event>
<event>
 7    1  0.6253338E-006  0.9713191E+02  0.7818608E-02  0.1300124E+00
          2   -1    0    0  502    0  0.00000000000E+00  0.00000000000E+00  0.25568144517E+04  0.25568144517E+04  0.00000000000E+00 0. -1.
          1   -1    0    0  501    0 -0.00000000000E+00 -0.00000000000E+00 -0.23808593387E+03  0.23808593387E+03  0.00000000000E+00 0. -1.
         25    2    1    2    0    0  0.10940755544E+03  0.11347287097E+02  0.46245044373E+03  0.49151246196E+03  0.12500125299E+03 0.  0.
          2    1    1    2  501    0 -0.36029114485E+02 -0.77549414155E+02 -0.21415592701E+03  0.23059655201E+03  0.00000000000E+00 0. -1.
          1    1    1    2  502    0 -0.73378440960E+02  0.66202127059E+02  0.20704340011E+04  0.20727913716E+04  0.00000000000E+00 0. -1.
         22    1    3    3    0    0  0.41813972285E+02  0.41878326860E+02  0.67982077691E+02  0.90131933442E+02  0.00000000000E+00 0. -1.
         22    1    3    3    0    0  0.67593583160E+02 -0.30531039763E+02  0.39446836604E+03  0.40138052852E+03  0.00000000000E+00 0. -1.
</event>
<event>
 7    1  0.6253338E-006  0.4638401E+02  0.7818608E-02  0.1482043E+00
          2   -1    0    0  502    0  0.00000000000E+00  0.00000000000E+00  0.88684744335E+03  0.88684744335E+03  0.00000000000E+00 0. -1.
          1   -1    0    0  501    0 -0.00000000000E+00 -0.00000000000E+00 -0.14657651705E+04  0.14657651705E+04  0.00000000000E+00 0. -1.
         25    2    1    2    0    0 -0.35927944146E+02 -0.21004565057E+02  0.16953830255E+02  0.13283136096E+03  0.12499891668E+03 0.  0.
          2    1    1    2  501    0  0.42036474610E+02 -0.19881737637E+02 -0.14069158249E+04  0.14076840864E+04  0.00000000000E+00 0. -1.
          1    1    1    2  502    0 -0.61085304645E+01  0.40886302694E+02  0.81104426754E+03  0.81209716647E+03  0.00000000000E+00 0. -1.
         22    1    3    3    0    0 -0.12891671393E+02  0.14808020043E+02 -0.49868821154E+02  0.53594514386E+02  0.00000000000E+00 0. -1.
         22    1    3    3    0    0 -0.23036272753E+02 -0.35812585100E+02  0.66822651409E+02  0.79236846576E+02  0.00000000000E+00 0. -1.
</event>
<event>
 7    1  0.6253338E-006  0.7013131E+02  0.7818608E-02  0.1527195E+00
          2   -1    0    0  502    0  0.00000000000E+00  0.00000000000E+00  0.42115685626E+03  0.42115685626E+03  0.00000000000E+00 0. -1.
          1   -1    0    0  501    0 -0.00000000000E+00 -0.00000000000E+00 -0.21649771902E+03  0.21649771902E+03  0.00000000000E+00 0. -1.
         25    2    1    2    0    0  0.81454845628E+02 -0.18966443334E+02 -0.25154472731E+01  0.15041807789E+03  0.12499861132E+03 0.  0.
          2    1    1    2  501    0 -0.11932975777E+02  0.16157849239E+02 -0.13579895211E+03  0.13727646337E+03  0.00000000000E+00 0. -1.
          1    1    1    2  502    0 -0.69521869851E+02  0.28085940954E+01  0.34297353662E+03  0.34996003402E+03  0.00000000000E+00 0. -1.
         22    1    3    3    0    0  0.64382434279E+02  0.47286609279E+02  0.11129017840E+02  0.80653433274E+02  0.00000000000E+00 0.  1.
         22    1    3    3    0    0  0.17072411349E+02 -0.66253052613E+02 -0.13644465113E+02  0.69764644614E+02  0.00000000000E+00 0.  1.
</event>
<event>
 7    1  0.6253338E-006  0.4401387E+02  0.7818608E-02  0.1524321E+00
          2   -1    0    0  502    0  0.00000000000E+00  0.00000000000E+00  0.13080700073E+04  0.13080700073E+04  0.00000000000E+00 0. -1.
          1   -1    0    0  501    0 -0.00000000000E+00 -0.00000000000E+00 -0.80094655355E+02  0.80094655355E+02  0.00000000000E+00 0. -1.
         25    2    1    2    0    0 -0.19824999983E+02 -0.91580139492E+01  0.25728261919E+03  0.28687347322E+03  0.12500057462E+03 0.  0.
          2    1    1    2  501    0  0.42454786399E+02 -0.14338549561E+02 -0.57322215173E+02  0.72758774344E+02  0.00000000000E+00 0. -1.
          1    1    1    2  502    0 -0.22629786417E+02  0.23496563510E+02  0.10280149480E+04  0.10285324151E+04  0.00000000000E+00 0. -1.
         22    1    3    3    0    0  0.92877553413E+01  0.19649798329E+02  0.24228409397E+03  0.24325698173E+03  0.00000000000E+00 0.  1.
         22    1    3    3    0    0 -0.29112755324E+02 -0.28807812278E+02  0.14998525227E+02  0.43616491489E+02  0.00000000000E+00 0.  1.
</event>
<event>
 7    1  0.6253338E-006  0.4683840E+02  0.7818608E-02  0.1463368E+00
          2   -1    0    0  502    0  0.00000000000E+00  0.00000000000E+00  0.19713113546E+04  0.19713113546E+04  0.00000000000E+00 0. -1.
          1   -1    0    0  501    0 -0.00000000000E+00 -0.00000000000E+00 -0.24567082540E+03  0.24567082540E+03  0.00000000000E+00 0. -1.
         25    2    1    2    0    0  0.57491101784E+02 -0.62975409284E+01 -0.94616371833E+02  0.16709566304E+03  0.12499526784E+03 0.  0.
          2    1    1    2  501    0 -0.24665999804E+02  0.39742898144E+02 -0.10975455775E+03  0.11930621294E+03  0.00000000000E+00 0. -1.
          1    1    1    2  502    0 -0.32825101980E+02 -0.33445357216E+02  0.19300114588E+04  0.19305803040E+04  0.00000000000E+00 0. -1.
         22    1    3    3    0    0  0.16007699760E+02  0.57660164231E+01 -0.11714388765E+03  0.11837307046E+03  0.00000000000E+00 0. -1.
         22    1    3    3    0    0  0.41483402024E+02 -0.12063557352E+02  0.22527515812E+02  0.48722592584E+02  0.00000000000E+00 0. -1.
</event>
<event>
 7    1  0.6253338E-006  0.2310274E+03  0.7818608E-02  0.1271432E+00
          2   -1    0    0  502    0  0.00000000000E+00  0.00000000000E+00  0.11322304431E+04  0.11322304431E+04  0.00000000000E+00 0. -1.
          1   -1    0    0  501    0 -0.00000000000E+00 -0.00000000000E+00 -0.27386248290E+04  0.27386248290E+04  0.00000000000E+00 0. -1.
         25    2    1    2    0    0 -0.20816427273E+03 -0.88908608373E+02  0.16655933926E+03  0.30757809576E+03  0.12500066564E+03 0.  0.
          2    1    1    2  501    0  0.16936263344E+02 -0.43971562287E+02 -0.26527586860E+04  0.26531771485E+04  0.00000000000E+00 0. -1.
          1    1    1    2  502    0  0.19122800939E+03  0.13288017066E+03  0.87980496089E+03  0.91010002776E+03  0.00000000000E+00 0. -1.
         22    1    3    3    0    0 -0.22404982120E+03 -0.75816406656E+02  0.16141837763E+03  0.28636051148E+03  0.00000000000E+00 0. -1.
         22    1    3    3    0    0  0.15885548471E+02 -0.13092201717E+02  0.51409616346E+01  0.21217584277E+02  0.00000000000E+00 0. -1.
</event>
<event>
 7    1  0.6253338E-006  0.4177947E+02  0.7818608E-02  0.1575457E+00
          2   -1    0    0  502    0  0.00000000000E+00  0.00000000000E+00  0.52621448230E+02  0.52621448230E+02  0.00000000000E+00 0. -1.
          1   -1    0    0  501    0 -0.00000000000E+00 -0.00000000000E+00 -0.57714978444E+03  0.57714978444E+03  0.00000000000E+00 0. -1.
         25    2    1    2    0    0  0.19854595780E+02  0.27143689020E+02 -0.98499336348E+02  0.16266119967E+03  0.12500224714E+03 0.  0.
          2    1    1    2  501    0 -0.17944488965E+02  0.17034220927E+02 -0.42198124372E+03  0.42270597277E+03  0.00000000000E+00 0. -1.
          1    1    1    2  502    0 -0.19101068143E+01 -0.44177909947E+02 -0.40477561480E+01  0.44404060233E+02  0.00000000000E+00 0. -1.
         22    1    3    3    0    0  0.58578332467E+02  0.52505219780E+02 -0.81704595654E+02  0.11341895825E+03  0.00000000000E+00 0.  1.
         22    1    3    3    0    0 -0.38723736687E+02 -0.25361530760E+02 -0.16794740694E+02  0.49242241424E+02  0.00000000000E+00 0.  1.
</event>
<event>
 7    1  0.6253338E-006  0.6078367E+02  0.7818608E-02  0.1429546E+00
          2   -1    0    0  502    0  0.00000000000E+00  0.00000000000E+00  0.69190281587E+03  0.69190281587E+03  0.00000000000E+00 0. -1.
          1   -1    0    0  501    0 -0.00000000000E+00 -0.00000000000E+00 -0.15736766092E+04  0.15736766092E+04  0.00000000000E+00 0. -1.
         25    2    1    2    0    0  0.18336966887E+02 -0.16370999270E+02 -0.18402485437E+03  0.22381248130E+03  0.12499050280E+03 0.  0.
          2    1    1    2  501    0 -0.62253492605E+02  0.16995555929E+01 -0.13682512515E+04  0.13696677966E+04  0.00000000000E+00 0. -1.
          1    1    1    2  502    0  0.43916525718E+02  0.14671443677E+02  0.67050231254E+03  0.67209914715E+03  0.00000000000E+00 0. -1.
         22    1    3    3    0    0  0.46192706177E+02 -0.45816611643E+02 -0.16811999030E+03  0.18026996185E+03  0.00000000000E+00 0. -1.
         22    1    3    3    0    0 -0.27855739290E+02  0.29445612373E+02 -0.15904864068E+02  0.43542519454E+02  0.00000000000E+00 0. -1.
</event>
<event>
 7    1  0.6253338E-006  0.1284922E+03  0.7818608E-02  0.1288057E+00
          2   -1    0    0  502    0  0.00000000000E+00  0.00000000000E+00  0.18063615017E+04  0.18063615017E+04  0.00000000000E+00 0. -1.
          1   -1    0    0  501    0 -0.00000000000E+00 -0.00000000000E+00 -0.36676235829E+03  0.36676235829E+03  0.00000000000E+00 0. -1.
         25    2    1    2    0    0  0.25463154963E+02  0.19448239241E+03  0.13185987376E+03  0.26736476701E+03  0.12500047644E+03 0.  0.
          2    1    1    2  501    0 -0.23374593886E+02 -0.68439371574E+02 -0.29212094051E+03  0.30094013209E+03  0.00000000000E+00 0. -1.
          1    1    1    2  502    0 -0.20885610770E+01 -0.12604302084E+03  0.15998602102E+04  0.16048189609E+04  0.00000000000E+00 0. -1.
         22    1    3    3    0    0  0.72480634673E+02  0.14286531503E+03  0.10951532309E+03  0.19405552461E+03  0.00000000000E+00 0.  1.
         22    1    3    3    0    0 -0.47017479710E+02  0.51617077386E+02  0.22344550667E+02  0.73309242396E+02  0.00000000000E+00 0.  1.
</event>
<event>
 7    1  0.6253338E-006  0.4095946E+02  0.7818608E-02  0.1590660E+00
          2   -1    0    0  502    0  0.00000000000E+00  0.00000000000E+00  0.49464049311E+03  0.49464049311E+03  0.00000000000E+00 0. -1.
          1   -1    0    0  501    0 -0.00000000000E+00 -0.00000000000E+00 -0.70700139291E+02  0.70700139291E+02  0.00000000000E+00 0. -1.
         25    2    1    2    0    0  0.10751192558E+02  0.21786355108E+02  0.91606469904E+02  0.15687031126E+03  0.12500526316E+03 0.  0.
          2    1    1    2  501    0 -0.13670186680E+01 -0.42768225993E+02 -0.25557576488E+02  0.49841545026E+02  0.00000000000E+00 0. -1.
          1    1    1    2  502    0 -0.93841738895E+01  0.20981870885E+02  0.35789146041E+03  0.35862877612E+03  0.00000000000E+00 0. -1.
         22    1    3    3    0    0  0.43204776882E+01 -0.49371741487E+02  0.14253685305E+02  0.51569399160E+02  0.00000000000E+00 0.  1.
         22    1    3    3    0    0  0.64307148694E+01  0.71158096595E+02  0.77352784599E+02  0.10530091210E+03  0.00000000000E+00 0.  1.
</event>
<event>
 7    1  0.6253338E-006  0.2984436E+02  0.7818608E-02  0.1638232E+00
          2   -1    0    0  502    0  0.00000000000E+00  0.00000000000E+00  0.13866396048E+04  0.13866396048E+04  0.00000000000E+00 0. -1.
          1   -1    0    0  501    0 -0.00000000000E+00 -0.00000000000E+00 -0.22625519233E+03  0.22625519233E+03  0.00000000000E+00 0. -1.
         25    2    1    2    0    0 -0.45094189217E+01 -0.33455990467E+02  0.18294789506E+03  0.22412916271E+03  0.12499724442E+03 0.  0.
          2    1    1    2  501    0 -0.18752645187E+02  0.14682732331E+02 -0.20478547109E+03  0.20616579130E+03  0.00000000000E+00 0. -1.
          1    1    1    2  502    0  0.23262064109E+02  0.18773258136E+02  0.11822219885E+04  0.11825998432E+04  0.00000000000E+00 0. -1.
         22    1    3    3    0    0 -0.11612791356E+01 -0.42635570213E+02  0.17701230706E+01  0.42688098485E+02  0.00000000000E+00 0.  1.
         22    1    3    3    0    0 -0.33481397861E+01  0.91795797456E+01  0.18117777199E+03  0.18144106422E+03  0.00000000000E+00 0.  1.
</event>
<event>
 7    1  0.6253338E-006  0.8113077E+02  0.7818608E-02  0.1430398E+00
          2   -1    0    0  502    0  0.00000000000E+00  0.00000000000E+00  0.30799112000E+03  0.30799112000E+03  0.00000000000E+00 0. -1.
          1   -1    0    0  501    0 -0.00000000000E+00 -0.00000000000E+00 -0.26261832192E+03  0.26261832192E+03  0.00000000000E+00 0. -1.
         25    2    1    2    0    0  0.90564387709E+02  0.34578703557E+02  0.46146664624E+02  0.16477715012E+03  0.12499759791E+03 0.  0.
          2    1    1    2  501    0 -0.10918381080E+02 -0.32691812630E+02 -0.19388926612E+03  0.19692895464E+03  0.00000000000E+00 0. -1.
          1    1    1    2  502    0 -0.79646006630E+02 -0.18868909264E+01  0.19311539958E+03  0.20890333717E+03  0.00000000000E+00 0. -1.
         22    1    3    3    0    0 -0.10838144838E+02  0.34869521735E+02  0.51616626768E+02  0.63226775091E+02  0.00000000000E+00 0.  1.
         22    1    3    3    0    0  0.10140253255E+03 -0.29081817799E+00 -0.54699621441E+01  0.10155037503E+03  0.00000000000E+00 0.  1.
</event>
<event>
 7    1  0.6253338E-006  0.1468113E+03  0.7818608E-02  0.1385013E+00
          2   -1    0    0  502    0  0.00000000000E+00  0.00000000000E+00  0.10128214748E+04  0.10128214748E+04  0.00000000000E+00 0. -1.
          1   -1    0    0  501    0 -0.00000000000E+00 -0.00000000000E+00 -0.98500391995E+03  0.98500391995E+03  0.00000000000E+00 0. -1.
         25    2    1    2    0    0 -0.13416764522E+03  0.14904534621E+02 -0.24166936897E+03  0.30373241963E+03  0.12500478655E+03 0.  0.
          2    1    1    2  501    0 -0.70490522949E+01  0.26245674947E+02 -0.70653113880E+03  0.70705358686E+03  0.00000000000E+00 0. -1.
          1    1    1    2  502    0  0.14121669752E+03 -0.41150209568E+02  0.97601806267E+03  0.98703938830E+03  0.00000000000E+00 0. -1.
         22    1    3    3    0    0 -0.30474508881E+02  0.51515235747E+02 -0.34237025167E+02  0.68954253661E+02  0.00000000000E+00 0. -1.
         22    1    3    3    0    0 -0.10369313634E+03 -0.36610701126E+02 -0.20743234380E+03  0.23477816597E+03  0.00000000000E+00 0. -1.
</event>
<event>
 7    1  0.6253338E-006  0.6706491E+02  0.7818608E-02  0.1381651E+00
          2   -1    0    0  502    0  0.00000000000E+00  0.00000000000E+00  0.34985611258E+04  0.34985611258E+04  0.00000000000E+00 0. -1.
          1   -1    0    0  501    0 -0.00000000000E+00 -0.00000000000E+00 -0.62500440345E+02  0.62500440345E+02  0.00000000000E+00 0. -1.
         25    2    1    2    0    0 -0.17642696404E+02  0.82590530248E+02  0.53103085142E+03  0.55204237437E+03  0.12499823004E+03 0.  0.
          2    1    1    2  501    0  0.57030348972E+02 -0.35833459809E+02 -0.29729628518E+02  0.73623015135E+02  0.00000000000E+00 0. -1.
          1    1    1    2  502    0 -0.39387652568E+02 -0.46757070439E+02  0.29347594625E+04  0.29353961766E+04  0.00000000000E+00 0. -1.
         22    1    3    3    0    0 -0.17883519940E+02  0.95844343474E+02  0.21891349212E+03  0.23964364272E+03  0.00000000000E+00 0.  1.
         22    1    3    3    0    0  0.24082353670E+00 -0.13253813226E+02  0.31211735930E+03  0.31239873165E+03  0.00000000000E+00 0.  1.
</event>
<event>
 7    1  0.6253338E-006  0.7206064E+02  0.7818608E-02  0.1515096E+00
          2   -1    0    0  502    0  0.00000000000E+00  0.00000000000E+00  0.31584165027E+03  0.31584165027E+03  0.00000000000E+00 0. -1.
          1   -1    0    0  501    0 -0.00000000000E+00 -0.00000000000E+00 -0.15274632730E+03  0.15274632730E+03  0.00000000000E+00 0. -1.
         25    2    1    2    0    0  0.61714898433E+02  0.29877881595E+02  0.13330883735E+02  0.14319147139E+03  0.12499867408E+03 0.  0.
          2    1    1    2  501    0 -0.72318228364E+02 -0.11527582603E+02 -0.71955196701E+02  0.10266626343E+03  0.00000000000E+00 0. -1.
          1    1    1    2  502    0  0.10603329931E+02 -0.18350298992E+02  0.22171963593E+03  0.22273024275E+03  0.00000000000E+00 0. -1.
         22    1    3    3    0    0  0.34458694196E+02 -0.47417861382E+02 -0.61786958090E+01  0.58940915039E+02  0.00000000000E+00 0.  1.
         22    1    3    3    0    0  0.27256204237E+02  0.77295742977E+02  0.19509579544E+02  0.84250556353E+02  0.00000000000E+00 0.  1.
</event>
<event>
 7    1  0.6253338E-006  0.1228415E+03  0.7818608E-02  0.1244991E+00
          2   -1    0    0  502    0  0.00000000000E+00  0.00000000000E+00  0.22129462200E+04  0.22129462200E+04  0.00000000000E+00 0. -1.
          1   -1    0    0  501    0 -0.00000000000E+00 -0.00000000000E+00 -0.34668715327E+03  0.34668715327E+03  0.00000000000E+00 0. -1.
         25    2    1    2    0    0  0.50921639495E+02  0.18561870227E+03  0.36436089112E+02  0.23237799062E+03  0.12499850373E+03 0.  0.
          2    1    1    2  501    0  0.42479336013E+02 -0.10687320936E+03 -0.23351755069E+03  0.26030140866E+03  0.00000000000E+00 0. -1.
          1    1    1    2  502    0 -0.93400975507E+02 -0.78745492906E+02  0.20633405283E+04  0.20669539740E+04  0.00000000000E+00 0. -1.
         22    1    3    3    0    0 -0.23728057365E+02 -0.18513010333E-02 -0.11911817613E+02  0.26550180952E+02  0.00000000000E+00 0.  1.
         22    1    3    3    0    0  0.74649696859E+02  0.18562055357E+03  0.48347906725E+02  0.20582780967E+03  0.00000000000E+00 0.  1.
</event>
<event>
 7    1  0.6253338E-006  0.1262792E+03  0.7818608E-02  0.1411365E+00
          2   -1    0    0  502    0  0.00000000000E+00  0.00000000000E+00  0.19882752822E+04  0.19882752822E+04  0.00000000000E+00 0. -1.
          1   -1    0    0  501    0 -0.00000000000E+00 -0.00000000000E+00 -0.59948462376E+03  0.59948462376E+03  0.00000000000E+00 0. -1.
         25    2    1    2    0    0 -0.12955621432E+03  0.75346305678E+02  0.40941263117E+02  0.19940661163E+03  0.12499972515E+03 0.  0.
          2    1    1    2  501    0  0.17273474070E+02 -0.18934406290E+02 -0.51782157635E+03  0.51845546538E+03  0.00000000000E+00 0. -1.
          1    1    1    2  502    0  0.11228274025E+03 -0.56411899387E+02  0.18656709716E+04  0.18698978289E+04  0.00000000000E+00 0. -1.
         22    1    3    3    0    0 -0.73646193964E+02  0.48628465106E+02  0.85661110715E+02  0.12298908648E+03  0.00000000000E+00 0.  1.
         22    1    3    3    0    0 -0.55910020354E+02  0.26717840572E+02 -0.44719847597E+02  0.76417525149E+02  0.00000000000E+00 0.  1.
</event>
<event>
 7    1  0.6253338E-006  0.1323876E+03  0.7818608E-02  0.1426908E+00
          2   -1    0    0  502    0  0.00000000000E+00  0.00000000000E+00  0.47341045788E+03  0.47341045788E+03  0.00000000000E+00 0. -1.
          1   -1    0    0  501    0 -0.00000000000E+00 -0.00000000000E+00 -0.84566858003E+03  0.84566858003E+03  0.00000000000E+00 0. -1.
         25    2    1    2    0    0 -0.63686087588E+02  0.96114452978E+02  0.11518192837E+02  0.17045161037E+03  0.12500870724E+03 0.  0.
          2    1    1    2  501    0 -0.18874618868E+02  0.10685849971E+02 -0.75412859202E+03  0.75444043630E+03  0.00000000000E+00 0. -1.
          1    1    1    2  502    0  0.82560706456E+02 -0.10680030295E+03  0.37035227703E+03  0.39418699124E+03  0.00000000000E+00 0. -1.
         22    1    3    3    0    0  0.93216076172E+01  0.57825764110E+02 -0.42079984689E+02  0.72120984983E+02  0.00000000000E+00 0. -1.
         22    1    3    3    0    0 -0.73007695206E+02  0.38288688868E+02  0.53598177526E+02  0.98330625384E+02  0.00000000000E+00 0. -1.
</event>
<event>
 7    1  0.6253338E-006  0.4706103E+02  0.7818608E-02  0.1535087E+00
          2   -1    0    0  502    0  0.00000000000E+00  0.00000000000E+00  0.41540893275E+03  0.41540893275E+03  0.00000000000E+00 0. -1.
          1   -1    0    0  501    0 -0.00000000000E+00 -0.00000000000E+00 -0.15095317664E+03  0.15095317664E+03  0.00000000000E+00 0. -1.
         25    2    1    2    0    0 -0.52082139886E+02  0.74910913201E+01 -0.55103129565E+02  0.14639090865E+03  0.12500111001E+03 0.  0.
          2    1    1    2  501    0  0.91666337047E+01 -0.26898245013E+02 -0.44542882807E+02  0.52835699740E+02  0.00000000000E+00 0. -1.
          1    1    1    2  502    0  0.42915506181E+02  0.19407153693E+02  0.36410176848E+03  0.36713550100E+03  0.00000000000E+00 0. -1.
         22    1    3    3    0    0 -0.65668683279E+02  0.27645208096E+02  0.14460578439E+02  0.72703107382E+02  0.00000000000E+00 0.  1.
         22    1    3    3    0    0  0.13586543394E+02 -0.20154116776E+02 -0.69563708004E+02  0.73687801268E+02  0.00000000000E+00 0.  1.
</event>
<event>
 7    1  0.6253338E-006  0.3241666E+03  0.7818608E-02  0.1273230E+00
          2   -1    0    0  502    0  0.00000000000E+00  0.00000000000E+00  0.49762678578E+03  0.49762678578E+03  0.00000000000E+00 0. -1.
          1   -1    0    0  501    0 -0.00000000000E+00 -0.00000000000E+00 -0.28903664477E+04  0.28903664477E+04  0.00000000000E+00 0. -1.
         25    2    1    2    0    0  0.17064245850E+03 -0.27639419779E+03 -0.24322635315E+04  0.24570396806E+04  0.12500201630E+03 0.  0.
          2    1    1    2  501    0  0.26798861165E+02  0.19265704931E+02 -0.39079381521E+03  0.39218509961E+03  0.00000000000E+00 0. -1.
          1    1    1    2  502    0 -0.19744131967E+03  0.25712849286E+03  0.43031768472E+03  0.53876845336E+03  0.00000000000E+00 0. -1.
         22    1    3    3    0    0 -0.44772247648E+00 -0.73653016790E+02 -0.33097078760E+03  0.33906729359E+03  0.00000000000E+00 0. -1.
         22    1    3    3    0    0  0.17109018098E+03 -0.20274118100E+03 -0.21012927439E+04  0.21179723870E+04  0.00000000000E+00 0. -1.
</event>
<event>
 7    1  0.6253338E-006  0.1705957E+03  0.7818608E-02  0.1191485E+00
          2   -1    0    0  502    0  0.00000000000E+00  0.00000000000E+00  0.18798515468E+04  0.18798515468E+04  0.00000000000E+00 0. -1.
          1   -1    0    0  501    0 -0.00000000000E+00 -0.00000000000E+00 -0.72852637374E+03  0.72852637374E+03  0.00000000000E+00 0. -1.
         25    2    1    2    0    0  0.71687175634E+02  0.13897310211E+03 -0.19109720027E+03  0.27676595495E+03  0.12501471757E+03 0.  0.
          2    1    1    2  501    0  0.97399497803E+02 -0.10810520701E+03 -0.47975987918E+03  0.50134114097E+03  0.00000000000E+00 0. -1.
          1    1    1    2  502    0 -0.16908667344E+03 -0.30867895098E+02  0.18221822525E+04  0.18302708246E+04  0.00000000000E+00 0. -1.
         22    1    3    3    0    0  0.53926439036E+01  0.13338347294E+03 -0.12193658057E+03  0.18080033502E+03  0.00000000000E+00 0.  1.
         22    1    3    3    0    0  0.66294531731E+02  0.55896291697E+01 -0.69160619698E+02  0.95965619931E+02  0.00000000000E+00 0.  1.
</event>
<event>
 7    1  0.6253338E-006  0.1019756E+03  0.7818608E-02  0.1292988E+00
          2   -1    0    0  502    0  0.00000000000E+00  0.00000000000E+00  0.17575364412E+03  0.17575364412E+03  0.00000000000E+00 0. -1.
          1   -1    0    0  501    0 -0.00000000000E+00 -0.00000000000E+00 -0.13890227560E+04  0.13890227560E+04  0.00000000000E+00 0. -1.
         25    2    1    2    0    0  0.26630652490E+02 -0.10064549600E+02 -0.38020087307E+03  0.40123290526E+03  0.12499861429E+03 0.  0.
          2    1    1    2  501    0  0.19618161476E+02 -0.84776657585E+02 -0.97933259538E+03  0.98319086972E+03  0.00000000000E+00 0. -1.
          1    1    1    2  502    0 -0.46248813966E+02  0.94841207184E+02  0.14626435659E+03  0.18035262511E+03  0.00000000000E+00 0. -1.
         22    1    3    3    0    0  0.25876645540E+02 -0.57402128489E+02 -0.10857099230E+03  0.12550802965E+03  0.00000000000E+00 0. -1.
         22    1    3    3    0    0  0.75400695003E+00  0.47337578890E+02 -0.27162988077E+03  0.27572487561E+03  0.00000000000E+00 0. -1.
</event>
<event>
 7    1  0.6253338E-006  0.1299010E+03  0.7818608E-02  0.1293458E+00
          2   -1    0    0  502    0  0.00000000000E+00  0.00000000000E+00  0.23126532965E+04  0.23126532965E+04  0.00000000000E+00 0. -1.
          1   -1    0    0  501    0 -0.00000000000E+00 -0.00000000000E+00 -0.18167922571E+03  0.18167922571E+03  0.00000000000E+00 0. -1.
         25    2    1    2    0    0  0.12837740822E+03  0.23788147615E+02  0.15902711198E+03  0.24075204382E+03  0.12500115741E+03 0.  0.
          2    1    1    2  501    0 -0.12459692793E+03  0.44119379702E+02 -0.10912125812E+03  0.17140117587E+03  0.00000000000E+00 0. -1.
          1    1    1    2  502    0 -0.37804802874E+01 -0.67907527317E+02  0.20810682170E+04  0.20821793025E+04  0.00000000000E+00 0. -1.
         22    1    3    3    0    0  0.84899651641E+02  0.63144589468E+02  0.50161822243E+02  0.11709568070E+03  0.00000000000E+00 0. -1.
         22    1    3    3    0    0  0.43477756576E+02 -0.39356441853E+02  0.10886528973E+03  0.12365636312E+03  0.00000000000E+00 0. -1.
</event>
<event>
 7    1  0.1170980E-005  0.1317494E+03  0.7818608E-02  0.1323048E+00
          2   -1    0    0  502    0  0.00000000000E+00  0.00000000000E+00  0.19932035670E+04  0.19932035670E+04  0.00000000000E+00 0. -1.
          1   -1    0    0  501    0 -0.00000000000E+00 -0.00000000000E+00 -0.16084382941E+04  0.16084382941E+04  0.00000000000E+00 0. -1.
         25    2    1    2    0    0  0.80854262406E+02 -0.36896355185E+02 -0.28203650789E+03  0.32104764170E+03  0.12501297406E+03 0.  0.
          2    1    1    2  501    0 -0.12561396603E+03  0.61813542320E+02 -0.13028129224E+04  0.13103134332E+04  0.00000000000E+00 0. -1.
          1    1    1    2  502    0  0.44759703622E+02 -0.24917187135E+02  0.19696147032E+04  0.19702807862E+04  0.00000000000E+00 0. -1.
         22    1    3    3    0    0  0.89451926120E+02 -0.42096619072E+02 -0.29115328906E+03  0.30748009717E+03  0.00000000000E+00 0. -1.
         22    1    3    3    0    0 -0.85976637136E+01  0.52002638874E+01  0.91167811673E+01  0.13567544534E+02  0.00000000000E+00 0. -1.
</event>
<event>
 7    1  0.6253338E-006  0.5242459E+02  0.7818608E-02  0.1511391E+00
          2   -1    0    0  502    0  0.00000000000E+00  0.00000000000E+00  0.18438770045E+02  0.18438770045E+02  0.00000000000E+00 0. -1.
          1   -1    0    0  501    0 -0.00000000000E+00 -0.00000000000E+00 -0.14513900223E+04  0.14513900223E+04  0.00000000000E+00 0. -1.
         25    2    1    2    0    0 -0.45828449994E+02  0.26661721989E+01 -0.46394860235E+03  0.48268097944E+03  0.12500106793E+03 0.  0.
          2    1    1    2  501    0  0.42647103870E+02 -0.32365508235E+02 -0.95051163284E+03  0.95201820663E+03  0.00000000000E+00 0. -1.
          1    1    1    2  502    0  0.31813461234E+01  0.29699336036E+02 -0.18491017031E+02  0.35129606245E+02  0.00000000000E+00 0. -1.
         22    1    3    3    0    0 -0.87752221368E+01  0.48592938727E+02 -0.35815267129E+03  0.36154061207E+03  0.00000000000E+00 0.  1.
         22    1    3    3    0    0 -0.37053227857E+02 -0.45926766528E+02 -0.10579593106E+03  0.12114036737E+03  0.00000000000E+00 0.  1.
</event>
<event>
 7    1  0.6253338E-006  0.1370472E+03  0.7818608E-02  0.1386128E+00
          2   -1    0    0  502    0  0.00000000000E+00  0.00000000000E+00  0.58004580262E+03  0.58004580262E+03  0.00000000000E+00 0. -1.
          1   -1    0    0  501    0 -0.00000000000E+00 -0.00000000000E+00 -0.29197791614E+04  0.29197791614E+04  0.00000000000E+00 0. -1.
         25    2    1    2    0    0  0.14945529252E+03  0.51992321874E+02 -0.87946433194E+02  0.21999804741E+03  0.12499791900E+03 0.  0.
          2    1    1    2  501    0 -0.12208999501E+03 -0.61130545413E+02 -0.27637153861E+04  0.27670861291E+04  0.00000000000E+00 0. -1.
          1    1    1    2  502    0 -0.27365297509E+02  0.91382235388E+01  0.51192846045E+03  0.51274078759E+03  0.00000000000E+00 0. -1.
         22    1    3    3    0    0 -0.17205901617E+02 -0.80284328123E+01  0.54383403315E+01  0.19750299477E+02  0.00000000000E+00 0.  1.
         22    1    3    3    0    0  0.16666119414E+03  0.60020754687E+02 -0.93384773526E+02  0.20024774793E+03  0.00000000000E+00 0.  1.
</event>
<event>
 7    1  0.6253338E-006  0.1602698E+03  0.7818608E-02  0.1241593E+00
          2   -1    0    0  502    0  0.00000000000E+00  0.00000000000E+00  0.90697922747E+03  0.90697922747E+03  0.00000000000E+00 0. -1.
          1   -1    0    0  501    0 -0.00000000000E+00 -0.00000000000E+00 -0.97812393005E+03  0.97812393005E+03  0.00000000000E+00 0. -1.
         25    2    1    2    0    0 -0.14958427546E+03 -0.19130042227E+03  0.12074006879E+03  0.29862073778E+03  0.12499949519E+03 0.  0.
          2    1    1    2  501    0  0.63937808795E+02  0.65069659819E+02 -0.87845044887E+03  0.88317455531E+03  0.00000000000E+00 0. -1.
          1    1    1    2  502    0  0.85646466662E+02  0.12623076245E+03  0.68656567750E+03  0.70330786443E+03  0.00000000000E+00 0. -1.
         22    1    3    3    0    0 -0.12795701749E+03 -0.19618781944E+03  0.13679291745E+03  0.27124704807E+03  0.00000000000E+00 0.  1.
         22    1    3    3    0    0 -0.21627257967E+02  0.48873971758E+01 -0.16052848660E+02  0.27373689711E+02  0.00000000000E+00 0.  1.
</event>
<event>
 7    1  0.6253338E-006  0.8830996E+02  0.7818608E-02  0.1313669E+00
          2   -1    0    0  502    0  0.00000000000E+00  0.00000000000E+00  0.52003373587E+03  0.52003373587E+03  0.00000000000E+00 0. -1.
          1   -1    0    0  501    0 -0.00000000000E+00 -0.00000000000E+00 -0.18387966434E+04  0.18387966434E+04  0.00000000000E+00 0. -1.
         25    2    1    2    0    0 -0.12348810457E+03 -0.10847847673E+03  0.61566341459E+01  0.20659027711E+03  0.12499898628E+03 0.  0.
          2    1    1    2  501    0  0.48284478087E+02  0.73065678721E+02 -0.17332871375E+04  0.17354982815E+04  0.00000000000E+00 0. -1.
          1    1    1    2  502    0  0.75203626479E+02  0.35412798013E+02  0.40836759584E+03  0.41674182059E+03  0.00000000000E+00 0. -1.
         22    1    3    3    0    0 -0.12262246116E+03 -0.11799220551E+03 -0.26807023027E+02  0.17227026738E+03  0.00000000000E+00 0. -1.
         22    1    3    3    0    0 -0.86564340809E+00  0.95137287738E+01  0.32963657173E+02  0.34320009731E+02  0.00000000000E+00 0. -1.
</event>
<event>
 7    1  0.6253338E-006  0.3504151E+02  0.7818608E-02  0.1555187E+00
          2   -1    0    0  502    0  0.00000000000E+00  0.00000000000E+00  0.11053302625E+03  0.11053302625E+03  0.00000000000E+00 0. -1.
          1   -1    0    0  501    0 -0.00000000000E+00 -0.00000000000E+00 -0.78846711131E+03  0.78846711131E+03  0.00000000000E+00 0. -1.
         25    2    1    2    0    0  0.53214711493E+02 -0.14921572561E+02 -0.17936437650E+03  0.22550120986E+03  0.12499902897E+03 0.  0.
          2    1    1    2  501    0 -0.21956079750E+02  0.27008053529E+02 -0.58228504312E+03  0.58332441732E+03  0.00000000000E+00 0. -1.
          1    1    1    2  502    0 -0.31258631743E+02 -0.12086480968E+02  0.83715334566E+02  0.90174510379E+02  0.00000000000E+00 0. -1.
         22    1    3    3    0    0  0.62279101818E+02 -0.61089325855E+02 -0.95553371434E+02  0.12938716725E+03  0.00000000000E+00 0.  1.
         22    1    3    3    0    0 -0.90643903245E+01  0.46167753294E+02 -0.83811005070E+02  0.96114042611E+02  0.00000000000E+00 0.  1.
</event>
<event>
 7    1  0.6253338E-006  0.1529045E+03  0.7818608E-02  0.1292429E+00
          2   -1    0    0  502    0  0.00000000000E+00  0.00000000000E+00  0.27604886498E+04  0.27604886498E+04  0.00000000000E+00 0. -1.
          1   -1    0    0  501    0 -0.00000000000E+00 -0.00000000000E+00 -0.28163701869E+03  0.28163701869E+03  0.00000000000E+00 0. -1.
         25    2    1    2    0    0 -0.36717206255E+01 -0.13151471455E+03  0.46029936262E+02  0.18722471122E+03  0.12499894313E+03 0.  0.
          2    1    1    2  501    0 -0.57531220689E+02 -0.96644875024E+01 -0.20472245684E+03  0.21287209307E+03  0.00000000000E+00 0. -1.
          1    1    1    2  502    0  0.61202941314E+02  0.14117920205E+03  0.26375441517E+04  0.26420288642E+04  0.00000000000E+00 0. -1.
         22    1    3    3    0    0  0.44800418735E+01  0.51894434245E+01  0.49756929468E+02  0.50227015921E+02  0.00000000000E+00 0. -1.
         22    1    3    3    0    0 -0.81517624989E+01 -0.13670415797E+03 -0.37269932059E+01  0.13699769530E+03  0.00000000000E+00 0. -1.
</event>
<event>
 7    1  0.6253338E-006  0.1235304E+03  0.7818608E-02  0.1326983E+00
          2   -1    0    0  502    0  0.00000000000E+00  0.00000000000E+00  0.11385345539E+04  0.11385345539E+04  0.00000000000E+00 0. -1.
          1   -1    0    0  501    0 -0.00000000000E+00 -0.00000000000E+00 -0.35469457127E+03  0.35469457127E+03  0.00000000000E+00 0. -1.
         25    2    1    2    0    0 -0.16893041537E+03 -0.11304578907E+02  0.30566077458E+02  0.21266019263E+03  0.12499917479E+03 0.  0.
          2    1    1    2  501    0  0.47680395089E+02  0.22594828214E+02 -0.25731537013E+03  0.26266927122E+03  0.00000000000E+00 0. -1.
          1    1    1    2  502    0  0.12125002028E+03 -0.11290249307E+02  0.10105892753E+04  0.10178996613E+04  0.00000000000E+00 0. -1.
         22    1    3    3    0    0 -0.14838767610E+03 -0.23244727484E+02  0.70711581370E+02  0.16601008257E+03  0.00000000000E+00 0. -1.
         22    1    3    3    0    0 -0.20542739271E+02  0.11940148577E+02 -0.40145503911E+02  0.46650110065E+02  0.00000000000E+00 0. -1.
</event>
<event>
 7    1  0.6253338E-006  0.1078561E+03  0.7818608E-02  0.1276559E+00
          2   -1    0    0  502    0  0.00000000000E+00  0.00000000000E+00  0.27618854209E+03  0.27618854209E+03  0.00000000000E+00 0. -1.
          1   -1    0    0  501    0 -0.00000000000E+00 -0.00000000000E+00 -0.36672554388E+03  0.36672554388E+03  0.00000000000E+00 0. -1.
         25    2    1    2    0    0  0.11421139940E+03 -0.23522556891E+02 -0.15314394816E+02  0.17162971325E+03  0.12499869338E+03 0.  0.
          2    1    1    2  501    0 -0.59884064913E+02 -0.75136569687E+02 -0.24747869010E+03  0.26547562484E+03  0.00000000000E+00 0. -1.
          1    1    1    2  502    0 -0.54327334491E+02  0.98659126577E+02  0.17225608313E+03  0.20580874788E+03  0.00000000000E+00 0. -1.
         22    1    3    3    0    0  0.12465595122E+03 -0.51700130878E+02 -0.29902344680E+02  0.13822503364E+03  0.00000000000E+00 0. -1.
         22    1    3    3    0    0 -0.10444551820E+02  0.28177573987E+02  0.14587949864E+02  0.33404679609E+02  0.00000000000E+00 0. -1.
</event>
<event>
 7    1  0.6253338E-006  0.1185201E+03  0.7818608E-02  0.1343822E+00
          2   -1    0    0  502    0  0.00000000000E+00  0.00000000000E+00  0.14701684856E+03  0.14701684856E+03  0.00000000000E+00 0. -1.
          1   -1    0    0  501    0 -0.00000000000E+00 -0.00000000000E+00 -0.69156615356E+03  0.69156615356E+03  0.00000000000E+00 0. -1.
         25    2    1    2    0    0 -0.77227770559E+02  0.40888003528E+02 -0.75333174329E+02  0.17010456141E+03  0.12499806910E+03 0.  0.
          2    1    1    2  501    0  0.87334410966E+02 -0.87280429346E+02 -0.55600556933E+03  0.56955014337E+03  0.00000000000E+00 0. -1.
          1    1    1    2  502    0 -0.10106640407E+02  0.46392425818E+02  0.86789438662E+02  0.98928297352E+02  0.00000000000E+00 0. -1.
         22    1    3    3    0    0 -0.76979534354E+02  0.81377847371E+02 -0.54755394697E+02  0.12468502717E+03  0.00000000000E+00 0. -1.
         22    1    3    3    0    0 -0.24823620536E+00 -0.40489843843E+02 -0.20577779633E+02  0.45419534236E+02  0.00000000000E+00 0. -1.
</event>
<event>
 7    1  0.6253338E-006  0.1171219E+03  0.7818608E-02  0.1263580E+00
          2   -1    0    0  502    0  0.00000000000E+00  0.00000000000E+00  0.17467378094E+04  0.17467378094E+04  0.00000000000E+00 0. -1.
          1   -1    0    0  501    0 -0.00000000000E+00 -0.00000000000E+00 -0.51003293797E+03  0.51003293797E+03  0.00000000000E+00 0. -1.
         25    2    1    2    0    0  0.49144856545E+02  0.29484631396E+02  0.34370533096E+03  0.37019080396E+03  0.12499326538E+03 0.  0.
          2    1    1    2  501    0 -0.34671880739E+01 -0.11879041923E+03 -0.48783754093E+03  0.50210422368E+03  0.00000000000E+00 0. -1.
          1    1    1    2  502    0 -0.45677668471E+02  0.89305787829E+02  0.13808370814E+04  0.13844757197E+04  0.00000000000E+00 0. -1.
         22    1    3    3    0    0  0.23689899781E+02  0.14326404010E+02  0.33907660988E+03  0.34020494496E+03  0.00000000000E+00 0. -1.
         22    1    3    3    0    0  0.25454956764E+02  0.15158227386E+02  0.46287210813E+01  0.29985859004E+02  0.00000000000E+00 0. -1.
</event>
<event>
 7    1  0.6253338E-006  0.1786579E+03  0.7818608E-02  0.1290864E+00
          2   -1    0    0  502    0  0.00000000000E+00  0.00000000000E+00  0.21334103078E+04  0.21334103078E+04  0.00000000000E+00 0. -1.
          1   -1    0    0  501    0 -0.00000000000E+00 -0.00000000000E+00 -0.90965009834E+02  0.90965009834E+02  0.00000000000E+00 0. -1.
         25    2    1    2    0    0  0.15371277751E+03  0.10882475591E+03  0.38298010326E+03  0.44470099273E+03  0.12495906520E+03 0.  0.
          2    1    1    2  501    0 -0.11189881619E+03 -0.13743175531E+03  0.71826211110E+02  0.19122718697E+03  0.00000000000E+00 0. -1.
          1    1    1    2  502    0 -0.41813961320E+02  0.28606999405E+02  0.15876389836E+04  0.15884471380E+04  0.00000000000E+00 0. -1.
         22    1    3    3    0    0  0.60618767847E+02  0.40958572386E+02  0.28254476663E+03  0.29186261292E+03  0.00000000000E+00 0.  1.
         22    1    3    3    0    0  0.93094009664E+02  0.67866183521E+02  0.10043533663E+03  0.15283837982E+03  0.00000000000E+00 0.  1.
</event>
<event>
 7    1  0.6253338E-006  0.8904354E+02  0.7818608E-02  0.1457793E+00
          2   -1    0    0  502    0  0.00000000000E+00  0.00000000000E+00  0.24290559896E+03  0.24290559896E+03  0.00000000000E+00 0. -1.
          1   -1    0    0  501    0 -0.00000000000E+00 -0.00000000000E+00 -0.74854718894E+03  0.74854718894E+03  0.00000000000E+00 0. -1.
         25    2    1    2    0    0 -0.75911468263E+02 -0.39136740966E+01 -0.11868178120E+03  0.18837656698E+03  0.12498999136E+03 0.  0.
          2    1    1    2  501    0 -0.97807727759E+01 -0.23679950120E+02 -0.58498614432E+03  0.58554691751E+03  0.00000000000E+00 0. -1.
          1    1    1    2  502    0  0.85692241039E+02  0.27593624216E+02  0.19802633554E+03  0.21752930340E+03  0.00000000000E+00 0. -1.
         22    1    3    3    0    0 -0.48151304730E+02  0.18789775036E+01  0.15974401539E+02  0.50766723433E+02  0.00000000000E+00 0. -1.
         22    1    3    3    0    0 -0.27760163534E+02 -0.57926516002E+01 -0.13465618274E+03  0.13760984355E+03  0.00000000000E+00 0. -1.
</event>
<event>
 7    1  0.6253338E-006  0.7054212E+02  0.7818608E-02  0.1365366E+00
          2   -1    0    0  502    0  0.00000000000E+00  0.00000000000E+00  0.84577086725E+02  0.84577086725E+02  0.00000000000E+00 0. -1.
          1   -1    0    0  501    0 -0.00000000000E+00 -0.00000000000E+00 -0.72997926940E+03  0.72997926940E+03  0.00000000000E+00 0. -1.
         25    2    1    2    0    0 -0.34997079839E+02  0.58034022088E+01 -0.25707251424E+03  0.28804301918E+03  0.12499611292E+03 0.  0.
          2    1    1    2  501    0  0.20490588095E+02 -0.74837829874E+02 -0.43504177099E+03  0.44190712541E+03  0.00000000000E+00 0. -1.
          1    1    1    2  502    0  0.14506491745E+02  0.69034427665E+02  0.46712102555E+02  0.84606211539E+02  0.00000000000E+00 0. -1.
         22    1    3    3    0    0  0.43492234737E+02  0.10976838601E+02 -0.53585512789E+02  0.69881847778E+02  0.00000000000E+00 0.  1.
         22    1    3    3    0    0 -0.78489314576E+02 -0.51734363927E+01 -0.20348700145E+03  0.21816117140E+03  0.00000000000E+00 0.  1.
</event>
<event>
 7    1  0.6253338E-006  0.1904265E+03  0.7818608E-02  0.1201871E+00
          2   -1    0    0  502    0  0.00000000000E+00  0.00000000000E+00  0.41683253954E+03  0.41683253954E+03  0.00000000000E+00 0. -1.
          1   -1    0    0  501    0 -0.00000000000E+00 -0.00000000000E+00 -0.57198403119E+03  0.57198403119E+03  0.00000000000E+00 0. -1.
         25    2    1    2    0    0  0.21425764707E+03 -0.19499962473E+03 -0.79634317857E+02  0.32541924638E+03  0.12499947346E+03 0.  0.
          2    1    1    2  501    0 -0.68801810965E+02  0.93864034624E+02 -0.33192670525E+03  0.35173780554E+03  0.00000000000E+00 0. -1.
          1    1    1    2  502    0 -0.14545583610E+03  0.10113559010E+03  0.25640953146E+03  0.31165951881E+03  0.00000000000E+00 0. -1.
         22    1    3    3    0    0  0.65765446521E+02 -0.79324326018E+02 -0.90128781637E+02  0.13689645698E+03  0.00000000000E+00 0.  1.
         22    1    3    3    0    0  0.14849220055E+03 -0.11567529871E+03  0.10494463780E+02  0.18852278940E+03  0.00000000000E+00 0.  1.
</event>
<event>
 7    1  0.6253338E-006  0.3430297E+02  0.7818608E-02  0.1589078E+00
          2   -1    0    0  502    0  0.00000000000E+00  0.00000000000E+00  0.11933749851E+04  0.11933749851E+04  0.00000000000E+00 0. -1.
          1   -1    0    0  501    0 -0.00000000000E+00 -0.00000000000E+00 -0.16573910808E+04  0.16573910808E+04  0.00000000000E+00 0. -1.
         25    2    1    2    0    0 -0.11633641941E+02  0.21432639378E+02  0.44728297877E+03  0.46505982183E+03  0.12499550040E+03 0.  0.
          2    1    1    2  501    0 -0.14303679800E+02 -0.31186969742E+02 -0.16480636321E+04  0.16484207466E+04  0.00000000000E+00 0. -1.
          1    1    1    2  502    0  0.25937321741E+02  0.97543303638E+01  0.73676455758E+03  0.73728549757E+03  0.00000000000E+00 0. -1.
         22    1    3    3    0    0  0.58084374200E+01 -0.25795396727E+02  0.38054023346E+03  0.38145774303E+03  0.00000000000E+00 0.  1.
         22    1    3    3    0    0 -0.17442079361E+02  0.47228036105E+02  0.66742745317E+02  0.83602078797E+02  0.00000000000E+00 0.  1.
</event>
<event>
 7    1  0.6253338E-006  0.4910575E+02  0.7818608E-02  0.1508368E+00
          2   -1    0    0  502    0  0.00000000000E+00  0.00000000000E+00  0.22165709901E+04  0.22165709901E+04  0.00000000000E+00 0. -1.
          1   -1    0    0  501    0 -0.00000000000E+00 -0.00000000000E+00 -0.18257932783E+02  0.18257932783E+02  0.00000000000E+00 0. -1.
         25    2    1    2    0    0 -0.76803136349E+01  0.80451818217E+02  0.18099429942E+04  0.18160537501E+04  0.12500439447E+03 0.  0.
          2    1    1    2  501    0  0.23526386245E+01 -0.48342654413E+02  0.25990439481E+02  0.54936782657E+02  0.00000000000E+00 0. -1.
          1    1    1    2  502    0  0.53276750104E+01 -0.32109163804E+02  0.36237962365E+03  0.36383839016E+03  0.00000000000E+00 0. -1.
         22    1    3    3    0    0  0.29964604006E+02  0.44645206378E+02  0.27364402092E+03  0.27887653564E+03  0.00000000000E+00 0. -1.
         22    1    3    3    0    0 -0.37644917641E+02  0.35806611839E+02  0.15362989733E+04  0.15371772145E+04  0.00000000000E+00 0. -1.
</event>
<event>
 7    1  0.6253338E-006  0.6111690E+02  0.7818608E-02  0.1403332E+00
          2   -1    0    0  502    0  0.00000000000E+00  0.00000000000E+00  0.18278319311E+04  0.18278319311E+04  0.00000000000E+00 0. -1.
          1   -1    0    0  501    0 -0.00000000000E+00 -0.00000000000E+00 -0.62725480944E+02  0.62725480944E+02  0.00000000000E+00 0. -1.
         25    2    1    2    0    0  0.63341706590E+02 -0.14298319393E+02  0.32278546216E+03  0.35218259672E+03  0.12500205246E+03 0.  0.
          2    1    1    2  501    0 -0.26085293823E+02  0.56634850712E+02 -0.27017051085E+02  0.67954910921E+02  0.00000000000E+00 0. -1.
          1    1    1    2  502    0 -0.37256412767E+02 -0.42336531319E+02  0.14693380390E+04  0.14704199044E+04  0.00000000000E+00 0. -1.
         22    1    3    3    0    0 -0.24570030838E+02 -0.24765528724E+02  0.18601975978E+03  0.18926269801E+03  0.00000000000E+00 0.  1.
         22    1    3    3    0    0  0.87911737428E+02  0.10467209331E+02  0.13676570238E+03  0.16291989871E+03  0.00000000000E+00 0.  1.
</event>
<event>
 7    1  0.6253338E-006  0.1097110E+03  0.7818608E-02  0.1355219E+00
          2   -1    0    0  502    0  0.00000000000E+00  0.00000000000E+00  0.16199109478E+03  0.16199109478E+03  0.00000000000E+00 0. -1.
          1   -1    0    0  501    0 -0.00000000000E+00 -0.00000000000E+00 -0.18141540177E+03  0.18141540177E+03  0.00000000000E+00 0. -1.
         25    2    1    2    0    0  0.15485885122E+02  0.99002381629E+02  0.41105146676E+02  0.16540049206E+03  0.12500562181E+03 0.  0.
          2    1    1    2  501    0 -0.61974607021E+02 -0.96888145139E+02 -0.63491995930E+02  0.13137502857E+03  0.00000000000E+00 0. -1.
          1    1    1    2  502    0  0.46488721900E+02 -0.21142364905E+01  0.29625422670E+01  0.46630975933E+02  0.00000000000E+00 0. -1.
         22    1    3    3    0    0 -0.51249086778E+02  0.40543395026E+02  0.40112443840E+02  0.76676227911E+02  0.00000000000E+00 0.  1.
         22    1    3    3    0    0  0.66734971900E+02  0.58458986604E+02  0.99270283545E+00  0.88724264145E+02  0.00000000000E+00 0.  1.
</event>
<event>
 7    1  0.6253338E-006  0.5548450E+02  0.7818608E-02  0.1420362E+00
          2   -1    0    0  502    0  0.00000000000E+00  0.00000000000E+00  0.81183316334E+03  0.81183316334E+03  0.00000000000E+00 0. -1.
          1   -1    0    0  501    0 -0.00000000000E+00 -0.00000000000E+00 -0.16910729471E+04  0.16910729471E+04  0.00000000000E+00 0. -1.
         25    2    1    2    0    0  0.49635558332E+01  0.31469497225E+02 -0.27677709175E+03  0.30535825680E+03  0.12499256113E+03 0.  0.
          2    1    1    2  501    0 -0.54136529898E+02 -0.54450259345E+01 -0.13985053715E+04  0.13995633913E+04  0.00000000000E+00 0. -1.
          1    1    1    2  502    0  0.49172974065E+02 -0.26024471290E+02  0.79604267951E+03  0.79798446231E+03  0.00000000000E+00 0. -1.
         22    1    3    3    0    0  0.26915016462E+02  0.36628091105E+02 -0.27901951178E+03  0.28269758245E+03  0.00000000000E+00 0. -1.
         22    1    3    3    0    0 -0.21951460629E+02 -0.51585938802E+01  0.22424200285E+01  0.22660674354E+02  0.00000000000E+00 0. -1.
</event>
<event>
 7    1  0.6253338E-006  0.5515565E+02  0.7818608E-02  0.1433343E+00
          2   -1    0    0  502    0  0.00000000000E+00  0.00000000000E+00  0.21543530904E+04  0.21543530904E+04  0.00000000000E+00 0. -1.
          1   -1    0    0  501    0 -0.00000000000E+00 -0.00000000000E+00 -0.46664151083E+02  0.46664151083E+02  0.00000000000E+00 0. -1.
         25    2    1    2    0    0 -0.56438771230E+02  0.55750170295E+02  0.15201475518E+04  0.15273398072E+04  0.12499956408E+03 0.  0.
          2    1    1    2  501    0  0.54717578475E+02 -0.61979263080E+01 -0.24042359017E+02  0.60087126007E+02  0.00000000000E+00 0. -1.
          1    1    1    2  502    0  0.17211927553E+01 -0.49552243987E+02  0.61158374656E+03  0.61359030831E+03  0.00000000000E+00 0. -1.
         22    1    3    3    0    0 -0.57338655896E+02  0.90364320939E+02  0.92190641154E+03  0.92809744294E+03  0.00000000000E+00 0.  1.
         22    1    3    3    0    0  0.89988466567E+00 -0.34614150644E+02  0.59824114027E+03  0.59924236427E+03  0.00000000000E+00 0.  1.
</event>
<event>
 7    1  0.6253338E-006  0.1415328E+03  0.7818608E-02  0.1291611E+00
          2   -1    0    0  502    0  0.00000000000E+00  0.00000000000E+00  0.78413896418E+03  0.78413896418E+03  0.00000000000E+00 0. -1.
          1   -1    0    0  501    0 -0.00000000000E+00 -0.00000000000E+00 -0.20353420779E+04  0.20353420779E+04  0.00000000000E+00 0. -1.
         25    2    1    2    0    0 -0.88153378861E+02 -0.17199988575E+03  0.26877815463E+03  0.35386331102E+03  0.12499026992E+03 0.  0.
          2    1    1    2  501    0  0.36273893371E+02  0.52128800748E+02 -0.19832608416E+04  0.19842773931E+04  0.00000000000E+00 0. -1.
          1    1    1    2  502    0  0.51879485490E+02  0.11987108501E+03  0.46327957318E+03  0.48134033797E+03  0.00000000000E+00 0. -1.
         22    1    3    3    0    0 -0.10747328600E+03 -0.15016095225E+03  0.26702111635E+03  0.32465226837E+03  0.00000000000E+00 0. -1.
         22    1    3    3    0    0  0.19319907144E+02 -0.21838933506E+02  0.17570382799E+01  0.29211042642E+02  0.00000000000E+00 0. -1.
</event>
<event>
 7    1  0.6253338E-006  0.1309994E+03  0.7818608E-02  0.1395700E+00
          2   -1    0    0  502    0  0.00000000000E+00  0.00000000000E+00  0.23945934562E+04  0.23945934562E+04  0.00000000000E+00 0. -1.
          1   -1    0    0  501    0 -0.00000000000E+00 -0.00000000000E+00 -0.21991969652E+03  0.21991969652E+03  0.00000000000E+00 0. -1.
         25    2    1    2    0    0 -0.11600800358E+03 -0.46284196789E+01 -0.48679806952E+02  0.17741979595E+03  0.12501512399E+03 0.  0.
          2    1    1    2  501    0 -0.11803550603E+02 -0.25336422250E+02 -0.10315969454E+03  0.10687928086E+03  0.00000000000E+00 0. -1.
          1    1    1    2  502    0  0.12781155418E+03  0.29964841929E+02  0.23265132612E+04  0.23302140760E+04  0.00000000000E+00 0. -1.
         22    1    3    3    0    0 -0.10135026367E+03 -0.31913043047E+02 -0.80278775773E+02  0.13317282043E+03  0.00000000000E+00 0.  1.
         22    1    3    3    0    0 -0.14657739908E+02  0.27284623368E+02  0.31598968821E+02  0.44246975514E+02  0.00000000000E+00 0.  1.
</event>
<event>
 7    1  0.6253338E-006  0.1490786E+03  0.7818608E-02  0.1259400E+00
          2   -1    0    0  502    0  0.00000000000E+00  0.00000000000E+00  0.14030948690E+04  0.14030948690E+04  0.00000000000E+00 0. -1.
          1   -1    0    0  501    0 -0.00000000000E+00 -0.00000000000E+00 -0.33529198275E+04  0.33529198275E+04  0.00000000000E+00 0. -1.
         25    2    1    2    0    0 -0.73805926412E+02 -0.73023253476E+02  0.16710217927E+03  0.23308361563E+03  0.12500049296E+03 0.  0.
          2    1    1    2  501    0  0.35077679544E+02  0.14541916518E+03 -0.33168404868E+04  0.33202120403E+04  0.00000000000E+00 0. -1.
          1    1    1    2  502    0  0.38728246868E+02 -0.72395911706E+02  0.11999133491E+04  0.12027190405E+04  0.00000000000E+00 0. -1.
         22    1    3    3    0    0 -0.89212435464E+02 -0.82975654719E+02  0.17490098423E+03  0.21315293149E+03  0.00000000000E+00 0. -1.
         22    1    3    3    0    0  0.15406509052E+02  0.99524012438E+01 -0.77988049636E+01  0.19930684147E+02  0.00000000000E+00 0. -1.
</event>
<event>
 7    1  0.6253338E-006  0.7221540E+02  0.7818608E-02  0.1457006E+00
          2   -1    0    0  502    0  0.00000000000E+00  0.00000000000E+00  0.14543552344E+04  0.14543552344E+04  0.00000000000E+00 0. -1.
          1   -1    0    0  501    0 -0.00000000000E+00 -0.00000000000E+00 -0.63158590303E+02  0.63158590303E+02  0.00000000000E+00 0. -1.
         25    2    1    2    0    0 -0.12109336372E+02 -0.69834901795E+02  0.17647174108E+03  0.22757125406E+03  0.12499140267E+03 0.  0.
          2    1    1    2  501    0  0.42346163157E+02  0.60076455706E+02 -0.12904575045E+01  0.73512198613E+02  0.00000000000E+00 0. -1.
          1    1    1    2  502    0 -0.30236826785E+02  0.97584460892E+01  0.12160153605E+04  0.12164303720E+04  0.00000000000E+00 0. -1.
         22    1    3    3    0    0  0.25269725858E+02 -0.28383821854E+02  0.16661246338E+03  0.17089152507E+03  0.00000000000E+00 0. -1.
         22    1    3    3    0    0 -0.37379062230E+02 -0.41451079941E+02  0.98592776957E+01  0.56679728988E+02  0.00000000000E+00 0. -1.
</event>
<event>
 7    1  0.6253338E-006  0.2750497E+03  0.7818608E-02  0.1280807E+00
          2   -1    0    0  502    0  0.00000000000E+00  0.00000000000E+00  0.50511831496E+03  0.50511831496E+03  0.00000000000E+00 0. -1.
          1   -1    0    0  501    0 -0.00000000000E+00 -0.00000000000E+00 -0.18441033309E+04  0.18441033309E+04  0.00000000000E+00 0. -1.
         25    2    1    2    0    0  0.55558594324E+02 -0.25132480964E+03 -0.61047252625E+03  0.67420551413E+03  0.12500181051E+03 0.  0.
          2    1    1    2  501    0 -0.36940827932E+02  0.28234799977E+03 -0.11841692295E+04  0.12179251955E+04  0.00000000000E+00 0. -1.
          1    1    1    2  502    0 -0.18617766392E+02 -0.31023190135E+02  0.45565673975E+03  0.45709093628E+03  0.00000000000E+00 0. -1.
         22    1    3    3    0    0  0.69324385353E+01 -0.16024717767E+03 -0.48979196146E+03  0.51538663367E+03  0.00000000000E+00 0. -1.
         22    1    3    3    0    0  0.48626155789E+02 -0.91077631968E+02 -0.12068056480E+03  0.15881888046E+03  0.00000000000E+00 0. -1.
</event>
<event>
 7    1  0.6253338E-006  0.6250587E+02  0.7818608E-02  0.1487272E+00
          2   -1    0    0  502    0  0.00000000000E+00  0.00000000000E+00  0.79382721683E+03  0.79382721683E+03  0.00000000000E+00 0. -1.
          1   -1    0    0  501    0 -0.00000000000E+00 -0.00000000000E+00 -0.77012256022E+03  0.77012256022E+03  0.00000000000E+00 0. -1.
         25    2    1    2    0    0  0.34612807126E+02 -0.47340224708E+01 -0.14550096973E+03  0.19496656731E+03  0.12498389013E+03 0.  0.
          2    1    1    2  501    0 -0.63413498300E+02  0.11444326408E+02 -0.59787264011E+03  0.60133512966E+03  0.00000000000E+00 0. -1.
          1    1    1    2  502    0  0.28800691174E+02 -0.67103039368E+01  0.76707826645E+03  0.76764808008E+03  0.00000000000E+00 0. -1.
         22    1    3    3    0    0 -0.37853138280E+02  0.46184592678E+00 -0.10537844014E+03  0.11197182246E+03  0.00000000000E+00 0. -1.
         22    1    3    3    0    0  0.72465945405E+02 -0.51958683975E+01 -0.40122529590E+02  0.82994744849E+02  0.00000000000E+00 0. -1.
</event>
<event>
 7    1  0.6253338E-006  0.4230356E+02  0.7818608E-02  0.1587015E+00
          2   -1    0    0  502    0  0.00000000000E+00  0.00000000000E+00  0.52002216916E+03  0.52002216916E+03  0.00000000000E+00 0. -1.
          1   -1    0    0  501    0 -0.00000000000E+00 -0.00000000000E+00 -0.31638329523E+03  0.31638329523E+03  0.00000000000E+00 0. -1.
         25    2    1    2    0    0 -0.46830219667E+02 -0.12885497288E+02 -0.52700103267E+02  0.14408585718E+03  0.12499731134E+03 0.  0.
          2    1    1    2  501    0  0.16052584754E+02 -0.16128025975E+02 -0.21644977725E+03  0.21764260789E+03  0.00000000000E+00 0. -1.
          1    1    1    2  502    0  0.30777634913E+02  0.29013523263E+02  0.47278875444E+03  0.47467699931E+03  0.00000000000E+00 0. -1.
         22    1    3    3    0    0 -0.12064601957E+02 -0.24076938281E+02  0.37846966079E+02  0.46450472750E+02  0.00000000000E+00 0. -1.
         22    1    3    3    0    0 -0.34765617710E+02  0.11191440993E+02 -0.90547069346E+02  0.97635384433E+02  0.00000000000E+00 0. -1.
</event>
<event>
 7    1  0.6253338E-006  0.6886809E+02  0.7818608E-02  0.1458931E+00
          2   -1    0    0  502    0  0.00000000000E+00  0.00000000000E+00  0.11878354453E+04  0.11878354453E+04  0.00000000000E+00 0. -1.
          1   -1    0    0  501    0 -0.00000000000E+00 -0.00000000000E+00 -0.11838724470E+03  0.11838724470E+03  0.00000000000E+00 0. -1.
         25    2    1    2    0    0  0.97230639897E+02  0.13045628782E+02  0.80336198785E+02  0.17805819556E+03  0.12500732140E+03 0.  0.
          2    1    1    2  501    0 -0.65080769467E+02 -0.62862911303E+01 -0.53838217537E+02  0.84696975614E+02  0.00000000000E+00 0. -1.
          1    1    1    2  502    0 -0.32149870430E+02 -0.67593376519E+01  0.10429502193E+04  0.10434675188E+04  0.00000000000E+00 0. -1.
         22    1    3    3    0    0  0.16160024806E+02 -0.45079767128E+02  0.59102449214E+02  0.76068596077E+02  0.00000000000E+00 0. -1.
         22    1    3    3    0    0  0.81070615091E+02  0.58125395910E+02  0.21233749571E+02  0.10198959948E+03  0.00000000000E+00 0. -1.
</event>
<event>
 7    1  0.6253338E-006  0.8896473E+02  0.7818608E-02  0.1348456E+00
          2   -1    0    0  502    0  0.00000000000E+00  0.00000000000E+00  0.59465424982E+03  0.59465424982E+03  0.00000000000E+00 0. -1.
          1   -1    0    0  501    0 -0.00000000000E+00 -0.00000000000E+00 -0.26648083927E+03  0.26648083927E+03  0.00000000000E+00 0. -1.
         25    2    1    2    0    0  0.11297826400E+03  0.86418971293E+02 -0.34292974854E+02  0.19244284650E+03  0.12500365718E+03 0.  0.
          2    1    1    2  501    0 -0.66461177402E+02 -0.47286926912E+02 -0.14028754576E+03  0.16227672986E+03  0.00000000000E+00 0. -1.
          1    1    1    2  502    0 -0.46517086595E+02 -0.39132044382E+02  0.50275393116E+03  0.50641551273E+03  0.00000000000E+00 0. -1.
         22    1    3    3    0    0  0.11412236095E+03  0.10315451410E+03 -0.57136656910E+02  0.16410168984E+03  0.00000000000E+00 0. -1.
         22    1    3    3    0    0 -0.11440969487E+01 -0.16735542802E+02  0.22843682056E+02  0.28341156656E+02  0.00000000000E+00 0. -1.
</event>
<event>
 7    1  0.6253338E-006  0.1736615E+03  0.7818608E-02  0.1329351E+00
          2   -1    0    0  502    0  0.00000000000E+00  0.00000000000E+00  0.17174577989E+03  0.17174577989E+03  0.00000000000E+00 0. -1.
          1   -1    0    0  501    0 -0.00000000000E+00 -0.00000000000E+00 -0.22912544260E+04  0.22912544260E+04  0.00000000000E+00 0. -1.
         25    2    1    2    0    0 -0.29304643621E+02  0.13665492145E+03 -0.14468961994E+03  0.23684104649E+03  0.12500106194E+03 0.  0.
          2    1    1    2  501    0  0.40322835353E+02 -0.17172092076E+03 -0.20940116618E+04  0.21014278111E+04  0.00000000000E+00 0. -1.
          1    1    1    2  502    0 -0.11018191732E+02  0.35065999311E+02  0.11919263562E+03  0.12473134827E+03  0.00000000000E+00 0. -1.
         22    1    3    3    0    0 -0.61048161136E+02  0.13688565458E+03 -0.93646920338E+02  0.17673230066E+03  0.00000000000E+00 0.  1.
         22    1    3    3    0    0  0.31743517515E+02 -0.23073312541E+00 -0.51042699604E+02  0.60108745826E+02  0.00000000000E+00 0.  1.
</event>
<event>
 7    1  0.6253338E-006  0.1136728E+03  0.7818608E-02  0.1341417E+00
          2   -1    0    0  502    0  0.00000000000E+00  0.00000000000E+00  0.63557611783E+03  0.63557611783E+03  0.00000000000E+00 0. -1.
          1   -1    0    0  501    0 -0.00000000000E+00 -0.00000000000E+00 -0.44926043246E+03  0.44926043246E+03  0.00000000000E+00 0. -1.
         25    2    1    2    0    0  0.14755672514E+03 -0.57324430858E+02 -0.18946036930E+02  0.20258948216E+03  0.12499787382E+03 0.  0.
          2    1    1    2  501    0 -0.38993990739E+02  0.32157110625E+02 -0.33084324343E+03  0.33468173359E+03  0.00000000000E+00 0. -1.
          1    1    1    2  502    0 -0.10856273441E+03  0.25167320233E+02  0.53610496573E+03  0.54756533454E+03  0.00000000000E+00 0. -1.
         22    1    3    3    0    0  0.16415847513E+01  0.26630026717E+02  0.15359690363E+02  0.30785925542E+02  0.00000000000E+00 0. -1.
         22    1    3    3    0    0  0.14591514039E+03 -0.83954457575E+02 -0.34305727294E+02  0.17180355662E+03  0.00000000000E+00 0. -1.
</event>
<event>
 7    1  0.6253338E-006  0.1902934E+03  0.7818608E-02  0.1233406E+00
          2   -1    0    0  502    0  0.00000000000E+00  0.00000000000E+00  0.17060839972E+04  0.17060839972E+04  0.00000000000E+00 0. -1.
          1   -1    0    0  501    0 -0.00000000000E+00 -0.00000000000E+00 -0.96429798907E+03  0.96429798907E+03  0.00000000000E+00 0. -1.
         25    2    1    2    0    0 -0.55309235219E+02  0.11485267747E+03 -0.21678801838E+03  0.28084182574E+03  0.12499934861E+03 0.  0.
          2    1    1    2  501    0  0.34861558899E+02  0.75898611310E+02 -0.70752235186E+03  0.71243512397E+03  0.00000000000E+00 0. -1.
          1    1    1    2  502    0  0.20447676320E+02 -0.19075128878E+03  0.16660963783E+04  0.16771050365E+04  0.00000000000E+00 0. -1.
         22    1    3    3    0    0 -0.13760607135E+02  0.89726430737E+02 -0.21370902493E+03  0.23218900495E+03  0.00000000000E+00 0. -1.
         22    1    3    3    0    0 -0.41548628084E+02  0.25126246737E+02 -0.30789934443E+01  0.48652820795E+02  0.00000000000E+00 0. -1.
</event>
<event>
 7    1  0.6253338E-006  0.2451569E+03  0.7818608E-02  0.1263107E+00
          2   -1    0    0  502    0  0.00000000000E+00  0.00000000000E+00  0.26369396863E+04  0.26369396863E+04  0.00000000000E+00 0. -1.
          1   -1    0    0  501    0 -0.00000000000E+00 -0.00000000000E+00 -0.11300049440E+04  0.11300049440E+04  0.00000000000E+00 0. -1.
         25    2    1    2    0    0  0.88520564795E+02  0.27180660269E+03  0.10841352880E+03  0.33028875685E+03  0.12498979964E+03 0.  0.
          2    1    1    2  501    0 -0.93242342546E+02 -0.22389440764E+03 -0.10043922286E+04  0.10332601749E+04  0.00000000000E+00 0. -1.
          1    1    1    2  502    0  0.47217777512E+01 -0.47912195055E+02  0.24029134421E+04  0.24033956986E+04  0.00000000000E+00 0. -1.
         22    1    3    3    0    0  0.13591891429E+02  0.14987136838E+03  0.11124989385E+03  0.18714354238E+03  0.00000000000E+00 0. -1.
         22    1    3    3    0    0  0.74928673366E+02  0.12193523431E+03 -0.28363650423E+01  0.14314521447E+03  0.00000000000E+00 0. -1.
</event>
<event>
 7    1  0.6253338E-006  0.1259927E+03  0.7818608E-02  0.1347758E+00
          2   -1    0    0  502    0  0.00000000000E+00  0.00000000000E+00  0.17064564739E+04  0.17064564739E+04  0.00000000000E+00 0. -1.
          1   -1    0    0  501    0 -0.00000000000E+00 -0.00000000000E+00 -0.49905480630E+03  0.49905480630E+03  0.00000000000E+00 0. -1.
         25    2    1    2    0    0  0.31827667867E+02  0.11333642266E+03  0.20691052908E+03  0.26887633918E+03  0.12499749429E+03 0.  0.
          2    1    1    2  501    0  0.42080393079E+02 -0.96834213678E+01 -0.46430937566E+03  0.46631290402E+03  0.00000000000E+00 0. -1.
          1    1    1    2  502    0 -0.73908060947E+02 -0.10365300130E+03  0.14648005142E+04  0.14703220370E+04  0.00000000000E+00 0. -1.
         22    1    3    3    0    0 -0.34755681685E+02  0.96927175673E+02  0.11849014412E+03  0.15698009124E+03  0.00000000000E+00 0.  1.
         22    1    3    3    0    0  0.66583349552E+02  0.16409246992E+02  0.88420384964E+02  0.11189624793E+03  0.00000000000E+00 0.  1.
</event>
<event>
 7    1  0.6253338E-006  0.1331903E+03  0.7818608E-02  0.1314722E+00
          2   -1    0    0  502    0  0.00000000000E+00  0.00000000000E+00  0.14214118773E+04  0.14214118773E+04  0.00000000000E+00 0. -1.
          1   -1    0    0  501    0 -0.00000000000E+00 -0.00000000000E+00 -0.40786056351E+04  0.40786056351E+04  0.00000000000E+00 0. -1.
         25    2    1    2    0    0 -0.10782911535E+03 -0.14091534537E+03  0.76041155496E+02  0.22998004841E+03  0.12499725062E+03 0.  0.
          2    1    1    2  501    0  0.57471902499E+02  0.11982840912E+03 -0.39999446459E+04  0.40021518009E+04  0.00000000000E+00 0. -1.
          1    1    1    2  502    0  0.50357212849E+02  0.21086936252E+02  0.12667097327E+04  0.12678856631E+04  0.00000000000E+00 0. -1.
         22    1    3    3    0    0 -0.88086643728E+02 -0.11543711080E+03  0.11074400744E+03  0.18261768407E+03  0.00000000000E+00 0.  1.
         22    1    3    3    0    0 -0.19742471620E+02 -0.25478234571E+02 -0.34702851945E+02  0.47362364338E+02  0.00000000000E+00 0.  1.
</event>
<event>
 7    1  0.6253338E-006  0.5960874E+02  0.7818608E-02  0.1516350E+00
          2   -1    0    0  502    0  0.00000000000E+00  0.00000000000E+00  0.13170900350E+04  0.13170900350E+04  0.00000000000E+00 0. -1.
          1   -1    0    0  501    0 -0.00000000000E+00 -0.00000000000E+00 -0.27297218766E+03  0.27297218766E+03  0.00000000000E+00 0. -1.
         25    2    1    2    0    0 -0.29134660199E+02 -0.29558017911E+02  0.16073847762E+03  0.20780808035E+03  0.12499934088E+03 0.  0.
          2    1    1    2  501    0  0.24891867569E+02  0.54606633124E+02 -0.24568280879E+03  0.25290617230E+03  0.00000000000E+00 0. -1.
          1    1    1    2  502    0  0.42427926298E+01 -0.25048615213E+02  0.11290621785E+04  0.11293479700E+04  0.00000000000E+00 0. -1.
         22    1    3    3    0    0 -0.13185400273E+02  0.10374097801E+02 -0.17625727918E+02  0.24333987963E+02  0.00000000000E+00 0. -1.
         22    1    3    3    0    0 -0.15949259926E+02 -0.39932115712E+02  0.17836420554E+03  0.18347409238E+03  0.00000000000E+00 0. -1.
</event>
<event>
 7    1  0.6253338E-006  0.5653439E+02  0.7818608E-02  0.1545530E+00
          2   -1    0    0  502    0  0.00000000000E+00  0.00000000000E+00  0.37945398106E+03  0.37945398106E+03  0.00000000000E+00 0. -1.
          1   -1    0    0  501    0 -0.00000000000E+00 -0.00000000000E+00 -0.84194798896E+03  0.84194798896E+03  0.00000000000E+00 0. -1.
         25    2    1    2    0    0 -0.44327621819E+02 -0.21317006714E+02 -0.12666722642E+03  0.18463296328E+03  0.12500156819E+03 0.  0.
          2    1    1    2  501    0  0.37973671079E+02  0.42485492714E+02 -0.68476486570E+03  0.68713167449E+03  0.00000000000E+00 0. -1.
          1    1    1    2  502    0  0.63539507394E+01 -0.21168485999E+02  0.34893808422E+03  0.34963733226E+03  0.00000000000E+00 0. -1.
         22    1    3    3    0    0  0.39248803825E+00 -0.33482660612E+02  0.14174857498E+02  0.36361644539E+02  0.00000000000E+00 0.  1.
         22    1    3    3    0    0 -0.44720109857E+02  0.12165653898E+02 -0.14084208391E+03  0.14827131874E+03  0.00000000000E+00 0.  1.
</event>
<event>
 7    1  0.6253338E-006  0.5139773E+02  0.7818608E-02  0.1503953E+00
          2   -1    0    0  502    0  0.00000000000E+00  0.00000000000E+00  0.21868678406E+03  0.21868678406E+03  0.00000000000E+00 0. -1.
          1   -1    0    0  501    0 -0.00000000000E+00 -0.00000000000E+00 -0.56055466556E+03  0.56055466556E+03  0.00000000000E+00 0. -1.
         25    2    1    2    0    0 -0.23318185088E+02 -0.24255506999E+01 -0.13191615330E+03  0.18323837952E+03  0.12499924471E+03 0.  0.
          2    1    1    2  501    0 -0.21889104213E+02 -0.23405755882E+02 -0.39881180774E+03  0.40009726353E+03  0.00000000000E+00 0. -1.
          1    1    1    2  502    0  0.45207289301E+02  0.25831306582E+02  0.18886007953E+03  0.19590580656E+03  0.00000000000E+00 0. -1.
         22    1    3    3    0    0  0.30075910842E+02 -0.40831284885E+02 -0.95320435398E+02  0.10797101298E+03  0.00000000000E+00 0. -1.
         22    1    3    3    0    0 -0.53394095931E+02  0.38405734185E+02 -0.36595717898E+02  0.75267366548E+02  0.00000000000E+00 0. -1.
</event>
<event>
 7    1  0.6253338E-006  0.3322535E+02  0.7818608E-02  0.1613949E+00
          2   -1    0    0  502    0  0.00000000000E+00  0.00000000000E+00  0.23641905099E+04  0.23641905099E+04  0.00000000000E+00 0. -1.
          1   -1    0    0  501    0 -0.00000000000E+00 -0.00000000000E+00 -0.39468665878E+02  0.39468665878E+02  0.00000000000E+00 0. -1.
         25    2    1    2    0    0  0.29058771332E+02 -0.10637725931E+02  0.10049447479E+04  0.10131615273E+04  0.12499904331E+03 0.  0.
          2    1    1    2  501    0 -0.14070784701E+02  0.30195667643E+02 -0.27376403032E+02  0.43118821522E+02  0.00000000000E+00 0. -1.
          1    1    1    2  502    0 -0.14987986631E+02 -0.19557941713E+02  0.13471534992E+04  0.13473788269E+04  0.00000000000E+00 0. -1.
         22    1    3    3    0    0 -0.82024087875E+01 -0.47334917064E+02  0.80687166059E+03  0.80830053232E+03  0.00000000000E+00 0. -1.
         22    1    3    3    0    0  0.37261180120E+02  0.36697191134E+02  0.19807308727E+03  0.20486099502E+03  0.00000000000E+00 0. -1.
</event>
<event>
 7    1  0.6253338E-006  0.2061850E+03  0.7818608E-02  0.1232475E+00
          2   -1    0    0  502    0  0.00000000000E+00  0.00000000000E+00  0.10176965566E+04  0.10176965566E+04  0.00000000000E+00 0. -1.
          1   -1    0    0  501    0 -0.00000000000E+00 -0.00000000000E+00 -0.42511479667E+03  0.42511479667E+03  0.00000000000E+00 0. -1.
         25    2    1    2    0    0  0.79237114444E+02  0.24176021151E+03 -0.29391614531E+02  0.28498268645E+03  0.12499897758E+03 0.  0.
          2    1    1    2  501    0 -0.99542795808E+02 -0.16663022653E+03 -0.23076806691E+03  0.30154319972E+03  0.00000000000E+00 0. -1.
          1    1    1    2  502    0  0.20305681364E+02 -0.75129984988E+02  0.85274144140E+03  0.85628546714E+03  0.00000000000E+00 0. -1.
         22    1    3    3    0    0  0.10963536633E+03  0.15733629692E+03 -0.35579086398E+02  0.19503972741E+03  0.00000000000E+00 0.  1.
         22    1    3    3    0    0 -0.30398251889E+02  0.84423914600E+02  0.61874718667E+01  0.89942959048E+02  0.00000000000E+00 0.  1.
</event>
<event>
 7    1  0.9271184E-006  0.6407983E+02  0.7818608E-02  0.1419814E+00
          2   -1    0    0  502    0  0.00000000000E+00  0.00000000000E+00  0.11750906059E+04  0.11750906059E+04  0.00000000000E+00 0. -1.
          1   -1    0    0  501    0 -0.00000000000E+00 -0.00000000000E+00 -0.10635083584E+04  0.10635083584E+04  0.00000000000E+00 0. -1.
         25    2    1    2    0    0  0.57924175010E+02  0.79404258036E+02 -0.13187245247E+03  0.20658179982E+03  0.12500180019E+03 0.  0.
          2    1    1    2  501    0 -0.44165713648E+02 -0.16960249110E+02 -0.89275599697E+03  0.89400868589E+03  0.00000000000E+00 0. -1.
          1    1    1    2  502    0 -0.13758461362E+02 -0.62444008925E+02  0.11362106969E+04  0.11380084786E+04  0.00000000000E+00 0. -1.
         22    1    3    3    0    0  0.55444985742E+02  0.63228868106E+02 -0.11238559956E+02  0.84843039996E+02  0.00000000000E+00 0. -1.
         22    1    3    3    0    0  0.24791892682E+01  0.16175389930E+02 -0.12063389252E+03  0.12173875982E+03  0.00000000000E+00 0. -1.
</event>
<event>
 7    1  0.6253338E-006  0.9999487E+02  0.7818608E-02  0.1280663E+00
          2   -1    0    0  502    0  0.00000000000E+00  0.00000000000E+00  0.17911872538E+04  0.17911872538E+04  0.00000000000E+00 0. -1.
          1   -1    0    0  501    0 -0.00000000000E+00 -0.00000000000E+00 -0.88301443579E+03  0.88301443579E+03  0.00000000000E+00 0. -1.
         25    2    1    2    0    0  0.11967262419E+02  0.19887392423E+03  0.90834739617E+03  0.93830832079E+03  0.12503383395E+03 0.  0.
          2    1    1    2  501    0 -0.92883760110E+01 -0.99252907285E+02 -0.86229200878E+03  0.86803509257E+03  0.00000000000E+00 0. -1.
          1    1    1    2  502    0 -0.26788864082E+01 -0.99621016948E+02  0.86211743062E+03  0.86785827623E+03  0.00000000000E+00 0. -1.
         22    1    3    3    0    0  0.67849899582E+02  0.12848782682E+03  0.56992674668E+03  0.58815748494E+03  0.00000000000E+00 0.  1.
         22    1    3    3    0    0 -0.55882637163E+02  0.70386097411E+02  0.33842064949E+03  0.35015083585E+03  0.00000000000E+00 0.  1.
</event>
<event>
 7    1  0.6253338E-006  0.1227145E+03  0.7818608E-02  0.1372479E+00
          2   -1    0    0  502    0  0.00000000000E+00  0.00000000000E+00  0.22600021164E+03  0.22600021164E+03  0.00000000000E+00 0. -1.
          1   -1    0    0  501    0 -0.00000000000E+00 -0.00000000000E+00 -0.43909584242E+03  0.43909584242E+03  0.00000000000E+00 0. -1.
         25    2    1    2    0    0  0.12296922085E+03  0.88273032780E+02  0.52020024301E+02  0.20308762948E+03  0.12499977890E+03 0.  0.
          2    1    1    2  501    0 -0.10667390147E+03 -0.56151720125E+02 -0.34979618926E+03  0.36998609562E+03  0.00000000000E+00 0. -1.
          1    1    1    2  502    0 -0.16295319387E+02 -0.32121312655E+02  0.84680534176E+02  0.92022328970E+02  0.00000000000E+00 0. -1.
         22    1    3    3    0    0  0.16499434857E+02  0.87939836875E+02  0.17573832527E+02  0.91183802563E+02  0.00000000000E+00 0. -1.
         22    1    3    3    0    0  0.10646978600E+03  0.33319590473E+00  0.34446191775E+02  0.11190382691E+03  0.00000000000E+00 0. -1.
</event>
<event>
 7    1  0.6253338E-006  0.5017959E+02  0.7818608E-02  0.1493218E+00
          2   -1    0    0  502    0  0.00000000000E+00  0.00000000000E+00  0.35079232469E+03  0.35079232469E+03  0.00000000000E+00 0. -1.
          1   -1    0    0  501    0 -0.00000000000E+00 -0.00000000000E+00 -0.33187340135E+03  0.33187340135E+03  0.00000000000E+00 0. -1.
         25    2    1    2    0    0 -0.79744460450E+02  0.24063020186E+02 -0.28209336950E+02  0.15283320022E+03  0.12499604988E+03 0.  0.
          2    1    1    2  501    0  0.35250625256E+02 -0.25428660196E+01 -0.23792020970E+03  0.24053086898E+03  0.00000000000E+00 0. -1.
          1    1    1    2  502    0  0.44493835194E+02 -0.21520154166E+02  0.28504846999E+03  0.28930165684E+03  0.00000000000E+00 0. -1.
         22    1    3    3    0    0 -0.15241811733E+02  0.26609023213E+02  0.45489840956E+02  0.54860537470E+02  0.00000000000E+00 0. -1.
         22    1    3    3    0    0 -0.64502648717E+02 -0.25460030278E+01 -0.73699177906E+02  0.97972662753E+02  0.00000000000E+00 0. -1.
</event>
<event>
 7    1  0.6253338E-006  0.5661737E+02  0.7818608E-02  0.1418133E+00
          2   -1    0    0  502    0  0.00000000000E+00  0.00000000000E+00  0.35196663760E+03  0.35196663760E+03  0.00000000000E+00 0. -1.
          1   -1    0    0  501    0 -0.00000000000E+00 -0.00000000000E+00 -0.43961699365E+03  0.43961699365E+03  0.00000000000E+00 0. -1.
         25    2    1    2    0    0  0.24661133693E+02  0.10996586253E+02  0.11592286355E+03  0.17262260277E+03  0.12502542249E+03 0.  0.
          2    1    1    2  501    0 -0.39942645830E+02  0.41050015864E+02 -0.40567911975E+03  0.40970241269E+03  0.00000000000E+00 0. -1.
          1    1    1    2  502    0  0.15281512137E+02 -0.52046602117E+02  0.20210590016E+03  0.20925861579E+03  0.00000000000E+00 0. -1.
         22    1    3    3    0    0 -0.41744735831E+02  0.13551705658E+02  0.92106444786E+02  0.10202876490E+03  0.00000000000E+00 0. -1.
         22    1    3    3    0    0  0.66405869524E+02 -0.25551194042E+01  0.23816418762E+02  0.70593837869E+02  0.00000000000E+00 0. -1.
</event>
<event>
 7    1  0.6253338E-006  0.5181519E+02  0.7818608E-02  0.1487015E+00
          2   -1    0    0  502    0  0.00000000000E+00  0.00000000000E+00  0.15028558360E+04  0.15028558360E+04  0.00000000000E+00 0. -1.
          1   -1    0    0  501    0 -0.00000000000E+00 -0.00000000000E+00 -0.21169599413E+03  0.21169599413E+03  0.00000000000E+00 0. -1.
         25    2    1    2    0    0  0.19927353131E+02 -0.25895829754E+02  0.70545252262E+03  0.71718600969E+03  0.12499926965E+03 0.  0.
          2    1    1    2  501    0  0.34071925512E+02  0.10783517094E+02 -0.20327539185E+03  0.20639298748E+03  0.00000000000E+00 0. -1.
          1    1    1    2  502    0 -0.53999278642E+02  0.15112312661E+02  0.78898271107E+03  0.79097283294E+03  0.00000000000E+00 0. -1.
         22    1    3    3    0    0  0.42166984076E+02 -0.58287579937E+02  0.25296605358E+03  0.26299680755E+03  0.00000000000E+00 0. -1.
         22    1    3    3    0    0 -0.22239630946E+02  0.32391750183E+02  0.45248646905E+03  0.45418920213E+03  0.00000000000E+00 0. -1.
</event>
<event>
 7    1  0.6253338E-006  0.5485571E+02  0.7818608E-02  0.1514938E+00
          2   -1    0    0  502    0  0.00000000000E+00  0.00000000000E+00  0.33896282382E+02  0.33896282382E+02  0.00000000000E+00 0. -1.
          1   -1    0    0  501    0 -0.00000000000E+00 -0.00000000000E+00 -0.24526263014E+04  0.24526263014E+04  0.00000000000E+00 0. -1.
         25    2    1    2    0    0 -0.22757999772E+02  0.77639239670E+02 -0.69597462651E+03  0.71172382679E+03  0.12499738713E+03 0.  0.
          2    1    1    2  501    0  0.18987893042E+02 -0.50025228783E+02 -0.17407837154E+04  0.17416058702E+04  0.00000000000E+00 0. -1.
          1    1    1    2  502    0  0.37701067302E+01 -0.27614010887E+02  0.18028322889E+02  0.33192886711E+02  0.00000000000E+00 0. -1.
         22    1    3    3    0    0 -0.49127119180E+02  0.12941001157E+02 -0.10511602158E+03  0.11674896720E+03  0.00000000000E+00 0. -1.
         22    1    3    3    0    0  0.26369119408E+02  0.64698238513E+02 -0.59085860493E+03  0.59497485959E+03  0.00000000000E+00 0. -1.
</event>
<event>
 7    1  0.6253338E-006  0.1023671E+03  0.7818608E-02  0.1409538E+00
          2   -1    0    0  502    0  0.00000000000E+00  0.00000000000E+00  0.13128344917E+03  0.13128344917E+03  0.00000000000E+00 0. -1.
          1   -1    0    0  501    0 -0.00000000000E+00 -0.00000000000E+00 -0.40855861205E+03  0.40855861205E+03  0.00000000000E+00 0. -1.
         25    2    1    2    0    0  0.80040572264E+02 -0.40953448622E+02 -0.14586762004E+03  0.21209523962E+03  0.12499339954E+03 0.  0.
          2    1    1    2  501    0  0.23147699732E+02  0.22196687504E+02 -0.19991790798E+03  0.20247389677E+03  0.00000000000E+00 0. -1.
          1    1    1    2  502    0 -0.10318827200E+03  0.18756761118E+02  0.68510365146E+02  0.12527292484E+03  0.00000000000E+00 0. -1.
         22    1    3    3    0    0  0.61885667705E+02 -0.25838962031E+02 -0.28331327783E+01  0.67123129154E+02  0.00000000000E+00 0.  1.
         22    1    3    3    0    0  0.18154904560E+02 -0.15114486591E+02 -0.14303448727E+03  0.14497211046E+03  0.00000000000E+00 0.  1.
</event>
<event>
 7    1  0.6253338E-006  0.1672134E+03  0.7818608E-02  0.1273081E+00
          2   -1    0    0  502    0  0.00000000000E+00  0.00000000000E+00  0.41982282064E+03  0.41982282064E+03  0.00000000000E+00 0. -1.
          1   -1    0    0  501    0 -0.00000000000E+00 -0.00000000000E+00 -0.72619366134E+03  0.72619366134E+03  0.00000000000E+00 0. -1.
         25    2    1    2    0    0 -0.11656458153E+03  0.54073162886E+02 -0.19303388890E+03  0.26343606289E+03  0.12500107341E+03 0.  0.
          2    1    1    2  501    0 -0.53400363358E+02 -0.35416080484E+02 -0.47670535562E+03  0.48099261287E+03  0.00000000000E+00 0. -1.
          1    1    1    2  502    0  0.16996494489E+03 -0.18657082403E+02  0.36336840381E+03  0.40158780622E+03  0.00000000000E+00 0. -1.
         22    1    3    3    0    0 -0.84954602427E+01  0.68915888411E+02 -0.63558866605E+02  0.94134489133E+02  0.00000000000E+00 0.  1.
         22    1    3    3    0    0 -0.10806912129E+03 -0.14842725525E+02 -0.12947502229E+03  0.16930157375E+03  0.00000000000E+00 0.  1.
</event>
<event>
 7    1  0.6253338E-006  0.1135807E+03  0.7818608E-02  0.1294048E+00
          2   -1    0    0  502    0  0.00000000000E+00  0.00000000000E+00  0.44076247125E+03  0.44076247125E+03  0.00000000000E+00 0. -1.
          1   -1    0    0  501    0 -0.00000000000E+00 -0.00000000000E+00 -0.29375947051E+04  0.29375947051E+04  0.00000000000E+00 0. -1.
         25    2    1    2    0    0 -0.17063831207E+03  0.50365085092E+02 -0.12285004302E+03  0.24974239933E+03  0.12500023045E+03 0.  0.
          2    1    1    2  501    0  0.76829003619E+02  0.90371288744E+01 -0.27425725114E+04  0.27436633077E+04  0.00000000000E+00 0. -1.
          1    1    1    2  502    0  0.93809308453E+02 -0.59402213966E+02  0.36859032055E+03  0.38495146938E+03  0.00000000000E+00 0. -1.
         22    1    3    3    0    0 -0.11472322902E+03  0.91425923734E+02 -0.96203401316E+02  0.17542865567E+03  0.00000000000E+00 0. -1.
         22    1    3    3    0    0 -0.55915083053E+02 -0.41060838643E+02 -0.26646641701E+02  0.74313743660E+02  0.00000000000E+00 0. -1.
</event>
<event>
 7    1  0.6253338E-006  0.2641878E+02  0.7818608E-02  0.1667269E+00
          2   -1    0    0  502    0  0.00000000000E+00  0.00000000000E+00  0.70045874667E+03  0.70045874667E+03  0.00000000000E+00 0. -1.
          1   -1    0    0  501    0 -0.00000000000E+00 -0.00000000000E+00 -0.59795402192E+02  0.59795402192E+02  0.00000000000E+00 0. -1.
         25    2    1    2    0    0  0.25886432004E+02  0.30501818511E+02  0.47116642121E+03  0.48910452054E+03  0.12499986899E+03 0.  0.
          2    1    1    2  501    0 -0.13287920641E+01 -0.22810299106E+02 -0.47458976415E+02  0.52672857109E+02  0.00000000000E+00 0. -1.
          1    1    1    2  502    0 -0.24557639940E+02 -0.76915194050E+01  0.21695589969E+03  0.21847677121E+03  0.00000000000E+00 0. -1.
         22    1    3    3    0    0  0.40886329747E+02 -0.26160763566E+02  0.36161485568E+03  0.36485802904E+03  0.00000000000E+00 0. -1.
         22    1    3    3    0    0 -0.14999897743E+02  0.56662582077E+02  0.10955156553E+03  0.12424649150E+03  0.00000000000E+00 0. -1.
</event>
<event>
 7    1  0.6253338E-006  0.8729406E+02  0.7818608E-02  0.1339085E+00
          2   -1    0    0  502    0  0.00000000000E+00  0.00000000000E+00  0.57179138115E+02  0.57179138115E+02  0.00000000000E+00 0. -1.
          1   -1    0    0  501    0 -0.00000000000E+00 -0.00000000000E+00 -0.13396499333E+04  0.13396499333E+04  0.00000000000E+00 0. -1.
         25    2    1    2    0    0  0.51327758939E+02 -0.29068414938E+02 -0.10409900081E+03  0.17304111497E+03  0.12500845537E+03 0.  0.
          2    1    1    2  501    0  0.65708431960E+02 -0.13880853228E+02 -0.10201231030E+04  0.10223313658E+04  0.00000000000E+00 0. -1.
          1    1    1    2  502    0 -0.11703619090E+03  0.42949268167E+02 -0.15824869139E+03  0.20145659072E+03  0.00000000000E+00 0. -1.
         22    1    3    3    0    0  0.15309686626E+02  0.41658058511E+02 -0.77544360245E+02  0.89347121663E+02  0.00000000000E+00 0. -1.
         22    1    3    3    0    0  0.36018072313E+02 -0.70726473450E+02 -0.26554640566E+02  0.83693993305E+02  0.00000000000E+00 0. -1.
</event>
<event>
 7    1  0.6253338E-006  0.6666604E+02  0.7818608E-02  0.1383704E+00
          2   -1    0    0  502    0  0.00000000000E+00  0.00000000000E+00  0.96136289367E+03  0.96136289367E+03  0.00000000000E+00 0. -1.
          1   -1    0    0  501    0 -0.00000000000E+00 -0.00000000000E+00 -0.47208478667E+03  0.47208478667E+03  0.00000000000E+00 0. -1.
         25    2    1    2    0    0 -0.55367346164E+02  0.19301757600E+02 -0.50578486147E+02  0.14704145420E+03  0.12499962049E+03 0.  0.
          2    1    1    2  501    0  0.17592918793E+02 -0.66540114154E+02 -0.36908848805E+03  0.37545094166E+03  0.00000000000E+00 0. -1.
          1    1    1    2  502    0  0.37774427371E+02  0.47238356554E+02  0.90894508120E+03  0.91095528449E+03  0.00000000000E+00 0. -1.
         22    1    3    3    0    0 -0.87550052670E+02 -0.92505640492E+01 -0.54978679460E+02  0.10379421878E+03  0.00000000000E+00 0.  1.
         22    1    3    3    0    0  0.32182706506E+02  0.28552321649E+02  0.44001933129E+01  0.43247235412E+02  0.00000000000E+00 0.  1.
</event>
<event>
 7    1  0.6253338E-006  0.1477686E+03  0.7818608E-02  0.1358588E+00
          2   -1    0    0  502    0  0.00000000000E+00  0.00000000000E+00  0.67160046322E+03  0.67160046322E+03  0.00000000000E+00 0. -1.
          1   -1    0    0  501    0 -0.00000000000E+00 -0.00000000000E+00 -0.11236278421E+04  0.11236278421E+04  0.00000000000E+00 0. -1.
         25    2    1    2    0    0  0.36186074309E+02  0.15512730986E+03  0.82675797854E+02  0.21870650464E+03  0.12499333336E+03 0.  0.
          2    1    1    2  501    0 -0.62103859168E+02 -0.13377197380E+03 -0.10499116828E+04  0.10602199640E+04  0.00000000000E+00 0. -1.
          1    1    1    2  502    0  0.25917784859E+02 -0.21355336058E+02  0.51520850603E+03  0.51630183675E+03  0.00000000000E+00 0. -1.
         22    1    3    3    0    0  0.65153573092E+02  0.10630408492E+03  0.99476501485E+02  0.15950273009E+03  0.00000000000E+00 0. -1.
         22    1    3    3    0    0 -0.28967498783E+02  0.48823224939E+02 -0.16800703631E+02  0.59203774556E+02  0.00000000000E+00 0. -1.
</event>
<event>
 7    1  0.6253338E-006  0.4216463E+02  0.7818608E-02  0.1517835E+00
          2   -1    0    0  502    0  0.00000000000E+00  0.00000000000E+00  0.22396520454E+02  0.22396520454E+02  0.00000000000E+00 0. -1.
          1   -1    0    0  501    0 -0.00000000000E+00 -0.00000000000E+00 -0.12266506406E+04  0.12266506406E+04  0.00000000000E+00 0. -1.
         25    2    1    2    0    0  0.15022105445E+02 -0.59256320005E+02 -0.47255234448E+03  0.49261360199E+03  0.12500186993E+03 0.  0.
          2    1    1    2  501    0  0.16008793827E+02  0.31752474634E+02 -0.70755853635E+03  0.70845153927E+03  0.00000000000E+00 0. -1.
          1    1    1    2  502    0 -0.31030899271E+02  0.27503845371E+02 -0.24143239338E+02  0.47982019815E+02  0.00000000000E+00 0. -1.
         22    1    3    3    0    0 -0.11475527981E+02 -0.22373529061E+02 -0.42885136073E+03  0.42958788640E+03  0.00000000000E+00 0. -1.
         22    1    3    3    0    0  0.26497633426E+02 -0.36882790944E+02 -0.43700983745E+02  0.63025715587E+02  0.00000000000E+00 0. -1.
</event>
<event>
 7    1  0.6253338E-006  0.3435246E+02  0.7818608E-02  0.1580734E+00
          2   -1    0    0  502    0  0.00000000000E+00  0.00000000000E+00  0.42190438270E+02  0.42190438270E+02  0.00000000000E+00 0. -1.
          1   -1    0    0  501    0 -0.00000000000E+00 -0.00000000000E+00 -0.12201995855E+04  0.12201995855E+04  0.00000000000E+00 0. -1.
         25    2    1    2    0    0  0.51200774475E+02  0.31187742917E+01 -0.19475478616E+03  0.23703460818E+03  0.12499893073E+03 0.  0.
          2    1    1    2  501    0 -0.21673311004E+02 -0.19454911627E+02 -0.99042799841E+03  0.99085611773E+03  0.00000000000E+00 0. -1.
          1    1    1    2  502    0 -0.29527463471E+02  0.16336137335E+02  0.71736373182E+01  0.34499297883E+02  0.00000000000E+00 0. -1.
         22    1    3    3    0    0  0.47051447343E+02  0.59139590966E+02 -0.13703106063E+03  0.15648910983E+03  0.00000000000E+00 0.  1.
         22    1    3    3    0    0  0.41493271319E+01 -0.56020816674E+02 -0.57723725523E+02  0.80545498352E+02  0.00000000000E+00 0.  1.
</event>
<event>
 7    1  0.6253338E-006  0.9655391E+02  0.7818608E-02  0.1477567E+00
          2   -1    0    0  502    0  0.00000000000E+00  0.00000000000E+00  0.68303781604E+03  0.68303781604E+03  0.00000000000E+00 0. -1.
          1   -1    0    0  501    0 -0.00000000000E+00 -0.00000000000E+00 -0.35013575207E+03  0.35013575207E+03  0.00000000000E+00 0. -1.
         25    2    1    2    0    0  0.65561592594E+02 -0.78359204947E+02  0.26961194338E+03  0.31425334131E+03  0.12500430029E+03 0.  0.
          2    1    1    2  501    0 -0.75284167788E+02  0.60314042006E+02 -0.32043898888E+03  0.33464404249E+03  0.00000000000E+00 0. -1.
          1    1    1    2  502    0  0.97225751942E+01  0.18045162941E+02  0.38372910947E+03  0.38427618431E+03  0.00000000000E+00 0. -1.
         22    1    3    3    0    0  0.29825307297E+01 -0.28526148539E+02  0.21613168629E+03  0.21802647192E+03  0.00000000000E+00 0. -1.
         22    1    3    3    0    0  0.62579061864E+02 -0.49833056408E+02  0.53480257092E+02  0.96226869394E+02  0.00000000000E+00 0. -1.
</event>
<event>
 7    1  0.6253338E-006  0.1412953E+03  0.7818608E-02  0.1352436E+00
          2   -1    0    0  502    0  0.00000000000E+00  0.00000000000E+00  0.18888546347E+04  0.18888546347E+04  0.00000000000E+00 0. -1.
          1   -1    0    0  501    0 -0.00000000000E+00 -0.00000000000E+00 -0.26205371959E+03  0.26205371959E+03  0.00000000000E+00 0. -1.
         25    2    1    2    0    0  0.11438289314E+03  0.48975694642E+02 -0.38710567438E+02  0.18057015290E+03  0.12500002871E+03 0.  0.
          2    1    1    2  501    0 -0.14748305046E+03 -0.32447321561E+02 -0.11476894709E+03  0.18967337733E+03  0.00000000000E+00 0. -1.
          1    1    1    2  502    0  0.33100157319E+02 -0.16528373081E+02  0.17802804296E+04  0.17806648240E+04  0.00000000000E+00 0. -1.
         22    1    3    3    0    0  0.90025580870E+02 -0.13387482628E+02  0.18060030334E+02  0.92790056568E+02  0.00000000000E+00 0. -1.
         22    1    3    3    0    0  0.24357312274E+02  0.62363177270E+02 -0.56770597772E+02  0.87780096330E+02  0.00000000000E+00 0. -1.
</event>
<event>
 7    1  0.6253338E-006  0.6873362E+02  0.7818608E-02  0.1372530E+00
          2   -1    0    0  502    0  0.00000000000E+00  0.00000000000E+00  0.17321008531E+04  0.17321008531E+04  0.00000000000E+00 0. -1.
          1   -1    0    0  501    0 -0.00000000000E+00 -0.00000000000E+00 -0.71654437974E+02  0.71654437974E+02  0.00000000000E+00 0. -1.
         25    2    1    2    0    0 -0.59340364591E+02 -0.19762816914E+02  0.11999330101E+04  0.12080477842E+04  0.12501348800E+03 0.  0.
          2    1    1    2  501    0  0.53310543639E+02 -0.44232174729E+02 -0.47275904502E+02  0.83866027036E+02  0.00000000000E+00 0. -1.
          1    1    1    2  502    0  0.60298209522E+01  0.63994991643E+02  0.50778930945E+03  0.51184147984E+03  0.00000000000E+00 0. -1.
         22    1    3    3    0    0 -0.93463401076E+02 -0.28679584393E+01  0.10110687852E+04  0.10153835339E+04  0.00000000000E+00 0.  1.
         22    1    3    3    0    0  0.34123036485E+02 -0.16894858475E+02  0.18886422490E+03  0.19266425021E+03  0.00000000000E+00 0.  1.
</event>
<event>
 7    1  0.6253338E-006  0.8087020E+02  0.7818608E-02  0.1359526E+00
          2   -1    0    0  502    0  0.00000000000E+00  0.00000000000E+00  0.32992001865E+02  0.32992001865E+02  0.00000000000E+00 0. -1.
          1   -1    0    0  501    0 -0.00000000000E+00 -0.00000000000E+00 -0.17437861678E+04  0.17437861678E+04  0.00000000000E+00 0. -1.
         25    2    1    2    0    0  0.60250249101E+02  0.25321828327E+02 -0.14538385447E+04  0.14606650868E+04  0.12499877604E+03 0.  0.
          2    1    1    2  501    0 -0.31583991866E+02  0.52047018332E+02 -0.21518897219E+03  0.22363527095E+03  0.00000000000E+00 0. -1.
          1    1    1    2  502    0 -0.28666257235E+02 -0.77368846659E+02 -0.41766649030E+02  0.92477811979E+02  0.00000000000E+00 0. -1.
         22    1    3    3    0    0  0.21224468081E+02  0.74737669493E+02 -0.74845353295E+03  0.75247517452E+03  0.00000000000E+00 0.  1.
         22    1    3    3    0    0  0.39025781020E+02 -0.49415841166E+02 -0.70538501178E+03  0.70818991223E+03  0.00000000000E+00 0.  1.
</event>
<event>
 7    1  0.6253338E-006  0.9391417E+02  0.7818608E-02  0.1325599E+00
          2   -1    0    0  502    0  0.00000000000E+00  0.00000000000E+00  0.55650438230E+03  0.55650438230E+03  0.00000000000E+00 0. -1.
          1   -1    0    0  501    0 -0.00000000000E+00 -0.00000000000E+00 -0.11007957868E+04  0.11007957868E+04  0.00000000000E+00 0. -1.
         25    2    1    2    0    0  0.84798500127E+02  0.12186630321E+03  0.21820617173E+03  0.29202944502E+03  0.12500032758E+03 0.  0.
          2    1    1    2  501    0 -0.18382690864E+02 -0.67810109829E+02 -0.10566110555E+04  0.10589443125E+04  0.00000000000E+00 0. -1.
          1    1    1    2  502    0 -0.66415809264E+02 -0.54056193377E+02  0.29411347927E+03  0.30632641161E+03  0.00000000000E+00 0. -1.
         22    1    3    3    0    0  0.40797576722E+02  0.87746588494E+02  0.38928017571E+02  0.10430386671E+03  0.00000000000E+00 0.  1.
         22    1    3    3    0    0  0.44000923405E+02  0.34119714711E+02  0.17927815416E+03  0.18772557831E+03  0.00000000000E+00 0.  1.
</event>
<event>
 7    1  0.6253338E-006  0.8037526E+02  0.7818608E-02  0.1396955E+00
          2   -1    0    0  502    0  0.00000000000E+00  0.00000000000E+00  0.23525419703E+04  0.23525419703E+04  0.00000000000E+00 0. -1.
          1   -1    0    0  501    0 -0.00000000000E+00 -0.00000000000E+00 -0.19028478847E+03  0.19028478847E+03  0.00000000000E+00 0. -1.
         25    2    1    2    0    0  0.74597729882E+02 -0.43595191219E+02  0.13425933669E+04  0.13511655637E+04  0.12500427861E+03 0.  0.
          2    1    1    2  501    0 -0.35462580174E+02 -0.27869329932E+02 -0.18158497924E+03  0.18710264250E+03  0.00000000000E+00 0. -1.
          1    1    1    2  502    0 -0.39135149707E+02  0.71464521151E+02  0.10012487941E+04  0.10045585525E+04  0.00000000000E+00 0. -1.
         22    1    3    3    0    0  0.10956593325E+03 -0.26097263420E+02  0.96342442977E+03  0.96998576936E+03  0.00000000000E+00 0. -1.
         22    1    3    3    0    0 -0.34968203366E+02 -0.17497927798E+02  0.37916893715E+03  0.38117979436E+03  0.00000000000E+00 0. -1.
</event>
<event>
 7    1  0.6253338E-006  0.7009506E+02  0.7818608E-02  0.1407723E+00
          2   -1    0    0  502    0  0.00000000000E+00  0.00000000000E+00  0.34476369833E+02  0.34476369833E+02  0.00000000000E+00 0. -1.
          1   -1    0    0  501    0 -0.00000000000E+00 -0.00000000000E+00 -0.17479394812E+04  0.17479394812E+04  0.00000000000E+00 0. -1.
         25    2    1    2    0    0 -0.41568198388E+02 -0.77567174407E+02 -0.59399179205E+03  0.61334856459E+03  0.12500252398E+03 0.  0.
          2    1    1    2  501    0 -0.52051140958E+01  0.69261865746E+02 -0.11194095185E+04  0.11215622895E+04  0.00000000000E+00 0. -1.
          1    1    1    2  502    0  0.46773312483E+02  0.83053086611E+01 -0.61800853056E-01  0.47504996916E+02  0.00000000000E+00 0. -1.
         22    1    3    3    0    0  0.26567622728E+02  0.56493175327E+01 -0.36060687934E+02  0.45145615294E+02  0.00000000000E+00 0. -1.
         22    1    3    3    0    0 -0.68135821116E+02 -0.83216491940E+02 -0.55793110412E+03  0.56820294930E+03  0.00000000000E+00 0. -1.
</event>
<event>
 7    1  0.6253338E-006  0.6680262E+02  0.7818608E-02  0.1434842E+00
          2   -1    0    0  502    0  0.00000000000E+00  0.00000000000E+00  0.22574742795E+04  0.22574742795E+04  0.00000000000E+00 0. -1.
          1   -1    0    0  501    0 -0.00000000000E+00 -0.00000000000E+00 -0.67120087863E+02  0.67120087863E+02  0.00000000000E+00 0. -1.
         25    2    1    2    0    0  0.29541969839E+02  0.24928853303E+02  0.40173087460E+03  0.42250005534E+03  0.12499770177E+03 0.  0.
          2    1    1    2  501    0  0.38301503752E+02 -0.13093497913E+02 -0.48787716267E+02  0.63393107952E+02  0.00000000000E+00 0. -1.
          1    1    1    2  502    0 -0.67843473591E+02 -0.11835355390E+02  0.18374110333E+04  0.18387012040E+04  0.00000000000E+00 0. -1.
         22    1    3    3    0    0  0.13768452686E+02 -0.50775065316E+02  0.18745886984E+03  0.19470106684E+03  0.00000000000E+00 0. -1.
         22    1    3    3    0    0  0.15773517153E+02  0.75703918619E+02  0.21427200476E+03  0.22779898850E+03  0.00000000000E+00 0. -1.
</event>
<event>
 7    1  0.6253338E-006  0.1056166E+03  0.7818608E-02  0.1367814E+00
          2   -1    0    0  502    0  0.00000000000E+00  0.00000000000E+00  0.10902176946E+04  0.10902176946E+04  0.00000000000E+00 0. -1.
          1   -1    0    0  501    0 -0.00000000000E+00 -0.00000000000E+00 -0.81441036678E+02  0.81441036678E+02  0.00000000000E+00 0. -1.
         25    2    1    2    0    0  0.63819630538E+01  0.10573262516E+03  0.14842658674E+03  0.22107829666E+03  0.12500017650E+03 0.  0.
          2    1    1    2  501    0  0.36889488530E+02 -0.10131481376E+03  0.20683072435E+02  0.10978759191E+03  0.00000000000E+00 0. -1.
          1    1    1    2  502    0 -0.43271451584E+02 -0.44178113960E+01  0.83966699876E+03  0.84079284273E+03  0.00000000000E+00 0. -1.
         22    1    3    3    0    0  0.17034015605E+02  0.12079170842E+03  0.15854215692E+03  0.20004102087E+03  0.00000000000E+00 0.  1.
         22    1    3    3    0    0 -0.10652052551E+02 -0.15059083266E+02 -0.10115570175E+02  0.21037275782E+02  0.00000000000E+00 0.  1.
</event>
<event>
 7    1  0.6253338E-006  0.1907197E+03  0.7818608E-02  0.1220302E+00
          2   -1    0    0  502    0  0.00000000000E+00  0.00000000000E+00  0.52896867321E+03  0.52896867321E+03  0.00000000000E+00 0. -1.
          1   -1    0    0  501    0 -0.00000000000E+00 -0.00000000000E+00 -0.15148158400E+04  0.15148158400E+04  0.00000000000E+00 0. -1.
         25    2    1    2    0    0 -0.22214305543E+03  0.11898109365E+03 -0.33436435819E+03  0.43695857733E+03  0.12501694506E+03 0.  0.
          2    1    1    2  501    0  0.12750752566E+03 -0.13162371141E+03 -0.11168402122E+04  0.11317751677E+04  0.00000000000E+00 0. -1.
          1    1    1    2  502    0  0.94635529769E+02  0.12642617766E+02  0.46535740362E+03  0.47505076821E+03  0.00000000000E+00 0. -1.
         22    1    3    3    0    0 -0.14690502646E+03  0.10826041129E+03 -0.14554794290E+03  0.23342152243E+03  0.00000000000E+00 0.  1.
         22    1    3    3    0    0 -0.75238028974E+02  0.10720682358E+02 -0.18881641530E+03  0.20353705491E+03  0.00000000000E+00 0.  1.
</event>
<event>
 7    1  0.6253338E-006  0.5297834E+02  0.7818608E-02  0.1477382E+00
          2   -1    0    0  502    0  0.00000000000E+00  0.00000000000E+00  0.22799410091E+03  0.22799410091E+03  0.00000000000E+00 0. -1.
          1   -1    0    0  501    0 -0.00000000000E+00 -0.00000000000E+00 -0.15270599571E+04  0.15270599571E+04  0.00000000000E+00 0. -1.
         25    2    1    2    0    0  0.41299304623E+02  0.68302820953E+02 -0.13836544646E+03  0.20283097042E+03  0.12499799148E+03 0.  0.
          2    1    1    2  501    0 -0.42614302311E+02 -0.30919551701E+02 -0.13541585854E+04  0.13551817117E+04  0.00000000000E+00 0. -1.
          1    1    1    2  502    0  0.13149976884E+01 -0.37383269252E+02  0.19345817570E+03  0.19704137582E+03  0.00000000000E+00 0. -1.
         22    1    3    3    0    0  0.32249493861E+01 -0.28315739638E+02  0.16031125929E+01  0.28543850122E+02  0.00000000000E+00 0. -1.
         22    1    3    3    0    0  0.38074355237E+02  0.96618560591E+02 -0.13996855905E+03  0.17428712030E+03  0.00000000000E+00 0. -1.
</event>
<event>
 7    1  0.6253338E-006  0.1572363E+03  0.7818608E-02  0.1384231E+00
          2   -1    0    0  502    0  0.00000000000E+00  0.00000000000E+00  0.21884073895E+03  0.21884073895E+03  0.00000000000E+00 0. -1.
          1   -1    0    0  501    0 -0.00000000000E+00 -0.00000000000E+00 -0.46334127573E+03  0.46334127573E+03  0.00000000000E+00 0. -1.
         25    2    1    2    0    0  0.27807392183E+01 -0.13926834784E+03 -0.35798810217E+03  0.40396084529E+03  0.12500191202E+03 0.  0.
          2    1    1    2  501    0  0.17881754573E+02 -0.18228790948E+02 -0.46323337648E+02  0.52895156459E+02  0.00000000000E+00 0. -1.
          1    1    1    2  502    0 -0.20662493791E+02  0.15749713879E+03  0.15981090303E+03  0.22532601293E+03  0.00000000000E+00 0. -1.
         22    1    3    3    0    0 -0.47062296004E+02 -0.12512718559E+03 -0.28077186797E+03  0.31097349425E+03  0.00000000000E+00 0.  1.
         22    1    3    3    0    0  0.49843035222E+02 -0.14141162248E+02 -0.77216234195E+02  0.92987351038E+02  0.00000000000E+00 0.  1.
</event>
<event>
 7    1  0.6253338E-006  0.1821759E+03  0.7818608E-02  0.1284461E+00
          2   -1    0    0  502    0  0.00000000000E+00  0.00000000000E+00  0.62946299317E+03  0.62946299317E+03  0.00000000000E+00 0. -1.
          1   -1    0    0  501    0 -0.00000000000E+00 -0.00000000000E+00 -0.48975306159E+03  0.48975306159E+03  0.00000000000E+00 0. -1.
         25    2    1    2    0    0  0.18848615319E+03 -0.28811153279E+02  0.48220602219E+03  0.53339025578E+03  0.12500161851E+03 0.  0.
          2    1    1    2  501    0 -0.35713229184E+02 -0.38845004275E+02 -0.40426195270E+03  0.40769117662E+03  0.00000000000E+00 0. -1.
          1    1    1    2  502    0 -0.15277292400E+03  0.67656157554E+02  0.61765862086E+02  0.17813462236E+03  0.00000000000E+00 0. -1.
         22    1    3    3    0    0  0.62549936987E+02  0.47908310185E+02  0.20042208448E+03  0.21535253133E+03  0.00000000000E+00 0. -1.
         22    1    3    3    0    0  0.12593621620E+03 -0.76719463464E+02  0.28178393771E+03  0.31803772445E+03  0.00000000000E+00 0. -1.
</event>
<event>
 7    1  0.6253338E-006  0.4046326E+02  0.7818608E-02  0.1533098E+00
          2   -1    0    0  502    0  0.00000000000E+00  0.00000000000E+00  0.13642182438E+04  0.13642182438E+04  0.00000000000E+00 0. -1.
          1   -1    0    0  501    0 -0.00000000000E+00 -0.00000000000E+00 -0.83982951924E+03  0.83982951924E+03  0.00000000000E+00 0. -1.
         25    2    1    2    0    0  0.83976243472E+01 -0.47960755066E+02  0.17295616042E+03  0.21888265338E+03  0.12500011361E+03 0.  0.
          2    1    1    2  501    0  0.22020393417E+02  0.33961195122E+02 -0.81612470578E+03  0.81712777207E+03  0.00000000000E+00 0. -1.
          1    1    1    2  502    0 -0.30418017764E+02  0.13999559944E+02  0.11675572699E+04  0.11680373376E+04  0.00000000000E+00 0. -1.
         22    1    3    3    0    0  0.17013106073E+02  0.36365535413E+02  0.97327579805E+02  0.10528321678E+03  0.00000000000E+00 0. -1.
         22    1    3    3    0    0 -0.86154817262E+01 -0.84326290479E+02  0.75628580618E+02  0.11359943661E+03  0.00000000000E+00 0. -1.
</event>
<event>
 7    1  0.6253338E-006  0.1019718E+03  0.7818608E-02  0.1288785E+00
          2   -1    0    0  502    0  0.00000000000E+00  0.00000000000E+00  0.15890335377E+04  0.15890335377E+04  0.00000000000E+00 0. -1.
          1   -1    0    0  501    0 -0.00000000000E+00 -0.00000000000E+00 -0.12912142327E+04  0.12912142327E+04  0.00000000000E+00 0. -1.
         25    2    1    2    0    0  0.29233591188E+02  0.16849065155E+03  0.11314690622E+03  0.24014599059E+03  0.12499668755E+03 0.  0.
          2    1    1    2  501    0  0.27104085394E+02 -0.97653413309E+02 -0.12241686094E+04  0.12283564649E+04  0.00000000000E+00 0. -1.
          1    1    1    2  502    0 -0.56337676581E+02 -0.70837238238E+02  0.14088410081E+04  0.14117453150E+04  0.00000000000E+00 0. -1.
         22    1    3    3    0    0 -0.49343281007E+02  0.58094126441E+02  0.37319014478E+02  0.84866929655E+02  0.00000000000E+00 0. -1.
         22    1    3    3    0    0  0.78576872194E+02  0.11039652511E+03  0.75827891737E+02  0.15527906093E+03  0.00000000000E+00 0. -1.
</event>
<event>
 7    1  0.6253338E-006  0.9266342E+02  0.7818608E-02  0.1352581E+00
          2   -1    0    0  502    0  0.00000000000E+00  0.00000000000E+00  0.10887684147E+04  0.10887684147E+04  0.00000000000E+00 0. -1.
          1   -1    0    0  501    0 -0.00000000000E+00 -0.00000000000E+00 -0.32245080724E+03  0.32245080724E+03  0.00000000000E+00 0. -1.
         25    2    1    2    0    0  0.38174490022E+02  0.46987604244E+02  0.94097939370E+02  0.16776454907E+03  0.12500158036E+03 0.  0.
          2    1    1    2  501    0 -0.84421409670E+01 -0.94849336593E+02 -0.27682174748E+03  0.29274211564E+03  0.00000000000E+00 0. -1.
          1    1    1    2  502    0 -0.29732349055E+02  0.47861732349E+02  0.94904141553E+03  0.95071255719E+03  0.00000000000E+00 0. -1.
         22    1    3    3    0    0 -0.39145385307E+02 -0.93322797793E+01  0.12805617827E+02  0.42230752831E+02  0.00000000000E+00 0.  1.
         22    1    3    3    0    0  0.77319875329E+02  0.56319884023E+02  0.81292321543E+02  0.12553379624E+03  0.00000000000E+00 0.  1.
</event>
<event>
 7    1  0.6253338E-006  0.3881440E+02  0.7818608E-02  0.1528861E+00
          2   -1    0    0  502    0  0.00000000000E+00  0.00000000000E+00  0.85521774728E+02  0.85521774728E+02  0.00000000000E+00 0. -1.
          1   -1    0    0  501    0 -0.00000000000E+00 -0.00000000000E+00 -0.10825311827E+04  0.10825311827E+04  0.00000000000E+00 0. -1.
         25    2    1    2    0    0 -0.12450512233E+01 -0.35891245547E+01 -0.70535215885E+03  0.71635282088E+03  0.12500105606E+03 0.  0.
          2    1    1    2  501    0 -0.29219524763E+02 -0.20849689902E+02 -0.36598234192E+03  0.36773844618E+03  0.00000000000E+00 0. -1.
          1    1    1    2  502    0  0.30464575986E+02  0.24438814457E+02  0.74325092765E+02  0.83961690411E+02  0.00000000000E+00 0. -1.
         22    1    3    3    0    0 -0.32961076447E+02 -0.55243383641E+02 -0.34777136483E+03  0.35367101407E+03  0.00000000000E+00 0. -1.
         22    1    3    3    0    0  0.31716025223E+02  0.51654259086E+02 -0.35758079402E+03  0.36268180681E+03  0.00000000000E+00 0. -1.
</event>
<event>
 7    1  0.6253338E-006  0.3848507E+02  0.7818608E-02  0.1569859E+00
          2   -1    0    0  502    0  0.00000000000E+00  0.00000000000E+00  0.12646149665E+02  0.12646149665E+02  0.00000000000E+00 0. -1.
          1   -1    0    0  501    0 -0.00000000000E+00 -0.00000000000E+00 -0.12975149771E+04  0.12975149771E+04  0.00000000000E+00 0. -1.
         25    2    1    2    0    0  0.35188527096E+01 -0.17261361574E+02 -0.56505270081E+03  0.57898274995E+03  0.12500453241E+03 0.  0.
          2    1    1    2  501    0  0.15704608136E+02  0.37362877971E+02 -0.68685664412E+03  0.68805135633E+03  0.00000000000E+00 0. -1.
          1    1    1    2  502    0 -0.19223460845E+02 -0.20101516397E+02 -0.32959482464E+02  0.43127020446E+02  0.00000000000E+00 0. -1.
         22    1    3    3    0    0  0.42232929411E+02  0.14326159382E+02 -0.46513840170E+03  0.46727143279E+03  0.00000000000E+00 0.  1.
         22    1    3    3    0    0 -0.38714076701E+02 -0.31587520956E+02 -0.99914299113E+02  0.11171131716E+03  0.00000000000E+00 0.  1.
</event>
<event>
 7    1  0.6253338E-006  0.1260521E+03  0.7818608E-02  0.1334110E+00
          2   -1    0    0  502    0  0.00000000000E+00  0.00000000000E+00  0.14840370829E+04  0.14840370829E+04  0.00000000000E+00 0. -1.
          1   -1    0    0  501    0 -0.00000000000E+00 -0.00000000000E+00 -0.30611480752E+03  0.30611480752E+03  0.00000000000E+00 0. -1.
         25    2    1    2    0    0 -0.15315344085E+03  0.53897351228E+02 -0.74354693915E+02  0.21797845455E+03  0.12500034091E+03 0.  0.
          2    1    1    2  501    0  0.11224405913E+03 -0.27719722466E+02 -0.13857598455E+03  0.18047275505E+03  0.00000000000E+00 0. -1.
          1    1    1    2  502    0  0.40909381715E+02 -0.26177628763E+02  0.13908529538E+04  0.13917006808E+04  0.00000000000E+00 0. -1.
         22    1    3    3    0    0 -0.18779612612E+02 -0.38777678551E+01  0.31879524285E+02  0.37202352103E+02  0.00000000000E+00 0. -1.
         22    1    3    3    0    0 -0.13437382824E+03  0.57775119084E+02 -0.10623421820E+03  0.18077610245E+03  0.00000000000E+00 0. -1.
</event>
<event>
 7    1  0.6253338E-006  0.8215436E+02  0.7818608E-02  0.1490502E+00
          2   -1    0    0  502    0  0.00000000000E+00  0.00000000000E+00  0.13861772992E+04  0.13861772992E+04  0.00000000000E+00 0. -1.
          1   -1    0    0  501    0 -0.00000000000E+00 -0.00000000000E+00 -0.65820071342E+02  0.65820071342E+02  0.00000000000E+00 0. -1.
         25    2    1    2    0    0  0.85552845434E+02  0.56033087610E+02  0.35597502879E+03  0.39089871260E+03  0.12499834445E+03 0.  0.
          2    1    1    2  501    0 -0.17688310218E+02 -0.13078229945E+02 -0.44174622601E+02  0.49348897646E+02  0.00000000000E+00 0. -1.
          1    1    1    2  502    0 -0.67864535216E+02 -0.42954857665E+02  0.10085568217E+04  0.10117497603E+04  0.00000000000E+00 0. -1.
         22    1    3    3    0    0  0.89952893593E+02  0.64445303280E+02  0.15911533079E+03  0.19381023882E+03  0.00000000000E+00 0.  1.
         22    1    3    3    0    0 -0.44000481589E+01 -0.84122156694E+01  0.19685969800E+03  0.19708847377E+03  0.00000000000E+00 0.  1.
</event>
<event>
 7    1  0.6253338E-006  0.1218067E+03  0.7818608E-02  0.1297856E+00
          2   -1    0    0  502    0  0.00000000000E+00  0.00000000000E+00  0.17141500631E+04  0.17141500631E+04  0.00000000000E+00 0. -1.
          1   -1    0    0  501    0 -0.00000000000E+00 -0.00000000000E+00 -0.12347261626E+04  0.12347261626E+04  0.00000000000E+00 0. -1.
         25    2    1    2    0    0  0.29573332123E+01 -0.70911540869E+02  0.10924179415E+03  0.18054243182E+03  0.12499843059E+03 0.  0.
          2    1    1    2  501    0 -0.63366249166E+02  0.10554131368E+03 -0.11951402623E+04  0.12014634813E+04  0.00000000000E+00 0. -1.
          1    1    1    2  502    0  0.60408915954E+02 -0.34629772806E+02  0.15653223687E+04  0.15668703125E+04  0.00000000000E+00 0. -1.
         22    1    3    3    0    0  0.20569576775E+02  0.88706433390E+01 -0.18401474445E+02  0.28989826900E+02  0.00000000000E+00 0.  1.
         22    1    3    3    0    0 -0.17612243563E+02 -0.79782184209E+02  0.12764326860E+03  0.15155260492E+03  0.00000000000E+00 0.  1.
</event>
<event>
 7    1  0.6253338E-006  0.7725899E+02  0.7818608E-02  0.1442364E+00
          2   -1    0    0  502    0  0.00000000000E+00  0.00000000000E+00  0.13753081396E+04  0.13753081396E+04  0.00000000000E+00 0. -1.
          1   -1    0    0  501    0 -0.00000000000E+00 -0.00000000000E+00 -0.36690688434E+02  0.36690688434E+02  0.00000000000E+00 0. -1.
         25    2    1    2    0    0 -0.16605074751E+01  0.51293909382E+02  0.66606984059E+03  0.67963797294E+03  0.12499967715E+03 0.  0.
          2    1    1    2  501    0  0.23897102364E+02 -0.75788910861E+02  0.24059533612E+02  0.83029462653E+02  0.00000000000E+00 0. -1.
          1    1    1    2  502    0 -0.22236594889E+02  0.24495001479E+02  0.64848807695E+03  0.64933139243E+03  0.00000000000E+00 0. -1.
         22    1    3    3    0    0 -0.49204301395E+02 -0.14593399917E+02  0.19656679298E+03  0.20315642914E+03  0.00000000000E+00 0.  1.
         22    1    3    3    0    0  0.47543793920E+02  0.65887309299E+02  0.46950304761E+03  0.47648154380E+03  0.00000000000E+00 0.  1.
</event>
<event>
 7    1  0.6253338E-006  0.4947696E+02  0.7818608E-02  0.1509819E+00
          2   -1    0    0  502    0  0.00000000000E+00  0.00000000000E+00  0.68133082126E+03  0.68133082126E+03  0.00000000000E+00 0. -1.
          1   -1    0    0  501    0 -0.00000000000E+00 -0.00000000000E+00 -0.14208395876E+03  0.14208395876E+03  0.00000000000E+00 0. -1.
         25    2    1    2    0    0  0.64684173624E+02  0.19993393690E+02  0.84982120104E+02  0.16562252274E+03  0.12500032477E+03 0.  0.
          2    1    1    2  501    0 -0.35676374984E+02 -0.33474567581E+02 -0.95392110131E+02  0.10720543401E+03  0.00000000000E+00 0. -1.
          1    1    1    2  502    0 -0.29007798640E+02  0.13481173892E+02  0.54965685252E+03  0.55058682327E+03  0.00000000000E+00 0. -1.
         22    1    3    3    0    0  0.46748777671E+02 -0.10443010670E+02  0.11156298566E+03  0.12141171465E+03  0.00000000000E+00 0. -1.
         22    1    3    3    0    0  0.17935395953E+02  0.30436404360E+02 -0.26580865553E+02  0.44210808089E+02  0.00000000000E+00 0. -1.
</event>
<event>
 7    1  0.6253338E-006  0.3210794E+02  0.7818608E-02  0.1650886E+00
          2   -1    0    0  502    0  0.00000000000E+00  0.00000000000E+00  0.60680321475E+03  0.60680321475E+03  0.00000000000E+00 0. -1.
          1   -1    0    0  501    0 -0.00000000000E+00 -0.00000000000E+00 -0.26183210094E+03  0.26183210094E+03  0.00000000000E+00 0. -1.
         25    2    1    2    0    0  0.51451673623E+02 -0.60714870001E+01  0.22148880921E+03  0.25955282454E+03  0.12500495369E+03 0.  0.
          2    1    1    2  501    0 -0.20600636528E+02  0.14887456627E+00 -0.24168750810E+03  0.24256392964E+03  0.00000000000E+00 0. -1.
          1    1    1    2  502    0 -0.30851037096E+02  0.59226124338E+01  0.36516981270E+03  0.36651856151E+03  0.00000000000E+00 0. -1.
         22    1    3    3    0    0  0.16117700044E+02 -0.94771924576E+01 -0.12755528402E+02  0.22634065839E+02  0.00000000000E+00 0.  1.
         22    1    3    3    0    0  0.35333973580E+02  0.34057054575E+01  0.23424433762E+03  0.23691875870E+03  0.00000000000E+00 0.  1.
</event>
<event>
 7    1  0.6253338E-006  0.4714173E+02  0.7818608E-02  0.1467451E+00
          2   -1    0    0  502    0  0.00000000000E+00  0.00000000000E+00  0.50524422293E+03  0.50524422293E+03  0.00000000000E+00 0. -1.
          1   -1    0    0  501    0 -0.00000000000E+00 -0.00000000000E+00 -0.27315883585E+03  0.27315883585E+03  0.00000000000E+00 0. -1.
         25    2    1    2    0    0  0.39168677060E+02  0.35138334580E+02  0.82057151117E+02  0.15851434029E+03  0.12499812882E+03 0.  0.
          2    1    1    2  501    0  0.43006765853E+01 -0.47253444760E+02 -0.23119000826E+03  0.23600890614E+03  0.00000000000E+00 0. -1.
          1    1    1    2  502    0 -0.43469353645E+02  0.12115110181E+02  0.38121824422E+03  0.38387981235E+03  0.00000000000E+00 0. -1.
         22    1    3    3    0    0 -0.44903223373E+02  0.11736235154E+02  0.16100381862E+02  0.49124952733E+02  0.00000000000E+00 0. -1.
         22    1    3    3    0    0  0.84071900433E+02  0.23402099426E+02  0.65956769255E+02  0.10938938756E+03  0.00000000000E+00 0. -1.
</event>
<event>
 7    1  0.6253338E-006  0.6420210E+02  0.7818608E-02  0.1418357E+00
          2   -1    0    0  502    0  0.00000000000E+00  0.00000000000E+00  0.49706053813E+03  0.49706053813E+03  0.00000000000E+00 0. -1.
          1   -1    0    0  501    0 -0.00000000000E+00 -0.00000000000E+00 -0.15901976149E+04  0.15901976149E+04  0.00000000000E+00 0. -1.
         25    2    1    2    0    0  0.94706038712E+02  0.45515126191E+02 -0.43052534845E+03  0.46045577059E+03  0.12500632194E+03 0.  0.
          2    1    1    2  501    0 -0.47241248780E+02 -0.40276227944E+02 -0.11426799113E+04  0.11443650159E+04  0.00000000000E+00 0. -1.
          1    1    1    2  502    0 -0.47464789932E+02 -0.52388982469E+01  0.48006818294E+03  0.48243736651E+03  0.00000000000E+00 0. -1.
         22    1    3    3    0    0  0.11748849672E+03  0.59831275271E+02 -0.39108319615E+03  0.41270981897E+03  0.00000000000E+00 0.  1.
         22    1    3    3    0    0 -0.22782458012E+02 -0.14316149081E+02 -0.39442152304E+02  0.47745951619E+02  0.00000000000E+00 0.  1.
</event>
<event>
 7    1  0.6253338E-006  0.1804717E+03  0.7818608E-02  0.1252674E+00
          2   -1    0    0  502    0  0.00000000000E+00  0.00000000000E+00  0.20715624014E+03  0.20715624014E+03  0.00000000000E+00 0. -1.
          1   -1    0    0  501    0 -0.00000000000E+00 -0.00000000000E+00 -0.12846157188E+04  0.12846157188E+04  0.00000000000E+00 0. -1.
         25    2    1    2    0    0  0.51097395288E+02  0.18998054274E+03 -0.26305985709E+02  0.23456515184E+03  0.12500102059E+03 0.  0.
          2    1    1    2  501    0 -0.10761361680E+03 -0.14458977875E+03 -0.11333620012E+04  0.11476046010E+04  0.00000000000E+00 0. -1.
          1    1    1    2  502    0  0.56516221514E+02 -0.45390763991E+02  0.82208508217E+02  0.10960220606E+03  0.00000000000E+00 0. -1.
         22    1    3    3    0    0 -0.90673467650E+01  0.11656134785E+03  0.34426828948E+02  0.12187686877E+03  0.00000000000E+00 0. -1.
         22    1    3    3    0    0  0.60164742053E+02  0.73419194889E+02 -0.60732814656E+02  0.11268828307E+03  0.00000000000E+00 0. -1.
</event>
<event>
 7    1  0.6253338E-006  0.8191022E+02  0.7818608E-02  0.1400565E+00
          2   -1    0    0  502    0  0.00000000000E+00  0.00000000000E+00  0.19126762215E+04  0.19126762215E+04  0.00000000000E+00 0. -1.
          1   -1    0    0  501    0 -0.00000000000E+00 -0.00000000000E+00 -0.43607759809E+03  0.43607759809E+03  0.00000000000E+00 0. -1.
         25    2    1    2    0    0 -0.68599768412E+02  0.22622091774E+02 -0.12399255238E+02  0.14487025382E+03  0.12496384137E+03 0.  0.
          2    1    1    2  501    0  0.15552026597E+02  0.40098099724E+02 -0.35523153005E+03  0.35782560427E+03  0.00000000000E+00 0. -1.
          1    1    1    2  502    0  0.53047741815E+02 -0.62720191499E+02  0.18442294087E+04  0.18460579615E+04  0.00000000000E+00 0. -1.
         22    1    3    3    0    0 -0.37768158659E+02  0.58838017645E+02 -0.48557197397E+02  0.85124306446E+02  0.00000000000E+00 0.  1.
         22    1    3    3    0    0 -0.30831609753E+02 -0.36215925871E+02  0.36157942158E+02  0.59745947375E+02  0.00000000000E+00 0.  1.
</event>
<event>
 7    1  0.6253338E-006  0.3521746E+02  0.7818608E-02  0.1577695E+00
          2   -1    0    0  502    0  0.00000000000E+00  0.00000000000E+00  0.79480799645E+03  0.79480799645E+03  0.00000000000E+00 0. -1.
          1   -1    0    0  501    0 -0.00000000000E+00 -0.00000000000E+00 -0.18784453816E+04  0.18784453816E+04  0.00000000000E+00 0. -1.
         25    2    1    2    0    0 -0.42413554755E+02 -0.34693134640E+02 -0.99418526878E+02  0.16885302492E+03  0.12499910928E+03 0.  0.
          2    1    1    2  501    0  0.34475189706E+02  0.68552035943E+01 -0.17438568185E+04  0.17442110354E+04  0.00000000000E+00 0. -1.
          1    1    1    2  502    0  0.79383650488E+01  0.27837931045E+02  0.75963796028E+03  0.76018931770E+03  0.00000000000E+00 0. -1.
         22    1    3    3    0    0 -0.74422219284E+02 -0.60063546770E+02 -0.69263778993E+02  0.11808373069E+03  0.00000000000E+00 0. -1.
         22    1    3    3    0    0  0.32008664529E+02  0.25370412131E+02 -0.30154747885E+02  0.50769294230E+02  0.00000000000E+00 0. -1.
</event>
<event>
 7    1  0.6878852E-006  0.7040090E+02  0.7818608E-02  0.1412588E+00
          2   -1    0    0  502    0  0.00000000000E+00  0.00000000000E+00  0.10807441316E+04  0.10807441316E+04  0.00000000000E+00 0. -1.
          1   -1    0    0  501    0 -0.00000000000E+00 -0.00000000000E+00 -0.61860875426E+03  0.61860875426E+03  0.00000000000E+00 0. -1.
         25    2    1    2    0    0  0.61930619610E+02 -0.33503744006E+02 -0.25744370951E+03  0.29472107255E+03  0.12500137813E+03 0.  0.
          2    1    1    2  501    0  0.76050858788E+01  0.44897550224E+02 -0.33983734359E+03  0.34287468184E+03  0.00000000000E+00 0. -1.
          1    1    1    2  502    0 -0.69535705489E+02 -0.11393806218E+02  0.10594164304E+04  0.10617571315E+04  0.00000000000E+00 0. -1.
         22    1    3    3    0    0  0.13657083871E+02 -0.67931831610E+02 -0.71559075862E+02  0.99608990679E+02  0.00000000000E+00 0. -1.
         22    1    3    3    0    0  0.48273535739E+02  0.34428087604E+02 -0.18588463364E+03  0.19511208187E+03  0.00000000000E+00 0. -1.
</event>
<event>
 7    1  0.6253338E-006  0.1731222E+03  0.7818608E-02  0.1290197E+00
          2   -1    0    0  502    0  0.00000000000E+00  0.00000000000E+00  0.50469587496E+03  0.50469587496E+03  0.00000000000E+00 0. -1.
          1   -1    0    0  501    0 -0.00000000000E+00 -0.00000000000E+00 -0.27156583735E+04  0.27156583735E+04  0.00000000000E+00 0. -1.
         25    2    1    2    0    0  0.14579042382E+03 -0.36196400711E+02 -0.55170513237E+03  0.58529019865E+03  0.12498414478E+03 0.  0.
          2    1    1    2  501    0  0.27923180054E+02  0.44588708440E+02 -0.21313273949E+04  0.21319766231E+04  0.00000000000E+00 0. -1.
          1    1    1    2  502    0 -0.17371360388E+03 -0.83923077289E+01  0.47207002870E+03  0.50308742680E+03  0.00000000000E+00 0. -1.
         22    1    3    3    0    0  0.84736561854E+02 -0.49367196679E+02 -0.15306238891E+03  0.18178421252E+03  0.00000000000E+00 0. -1.
         22    1    3    3    0    0  0.61053861971E+02  0.13170795968E+02 -0.39864274346E+03  0.40350598613E+03  0.00000000000E+00 0. -1.
</event>
<event>
 7    1  0.6253338E-006  0.3518088E+03  0.7818608E-02  0.1259914E+00
          2   -1    0    0  502    0  0.00000000000E+00  0.00000000000E+00  0.29331193503E+04  0.29331193503E+04  0.00000000000E+00 0. -1.
          1   -1    0    0  501    0 -0.00000000000E+00 -0.00000000000E+00 -0.16179326951E+04  0.16179326951E+04  0.00000000000E+00 0. -1.
         25    2    1    2    0    0 -0.36571672848E+03  0.14763000609E+02 -0.39648989697E+03  0.55388713590E+03  0.12498019541E+03 0.  0.
          2    1    1    2  501    0  0.17076221276E+02  0.30110877262E+02 -0.11316563736E+04  0.11321856783E+04  0.00000000000E+00 0. -1.
          1    1    1    2  502    0  0.34864050720E+03 -0.44873877870E+02  0.28433329258E+04  0.28649792312E+04  0.00000000000E+00 0. -1.
         22    1    3    3    0    0 -0.34040345632E+03 -0.11297635511E+02 -0.38855819753E+03  0.51670070883E+03  0.00000000000E+00 0. -1.
         22    1    3    3    0    0 -0.25313272153E+02  0.26060636120E+02 -0.79316994422E+01  0.37186427068E+02  0.00000000000E+00 0. -1.
</event>
<event>
 7    1  0.6253338E-006  0.1261103E+03  0.7818608E-02  0.1300984E+00
          2   -1    0    0  502    0  0.00000000000E+00  0.00000000000E+00  0.11171770758E+04  0.11171770758E+04  0.00000000000E+00 0. -1.
          1   -1    0    0  501    0 -0.00000000000E+00 -0.00000000000E+00 -0.10550239978E+03  0.10550239978E+03  0.00000000000E+00 0. -1.
         25    2    1    2    0    0 -0.10045149471E+02  0.65451394402E+02  0.53439764290E+03  0.55280260132E+03  0.12500034091E+03 0.  0.
          2    1    1    2  501    0  0.29962625608E+02 -0.12768351466E+03 -0.48666314142E+02  0.13989013182E+03  0.00000000000E+00 0. -1.
          1    1    1    2  502    0 -0.19917476137E+02  0.62232120256E+02  0.52594334729E+03  0.52998674248E+03  0.00000000000E+00 0. -1.
         22    1    3    3    0    0 -0.27334479568E+01 -0.37811091685E+02  0.14793439961E+03  0.15271456047E+03  0.00000000000E+00 0.  1.
         22    1    3    3    0    0 -0.73117015141E+01  0.10326248609E+03  0.38646324329E+03  0.40008804085E+03  0.00000000000E+00 0.  1.
</event>
<event>
 7    1  0.6253338E-006  0.1164857E+03  0.7818608E-02  0.1260875E+00
          2   -1    0    0  502    0  0.00000000000E+00  0.00000000000E+00  0.88320432380E+02  0.88320432380E+02  0.00000000000E+00 0. -1.
          1   -1    0    0  501    0 -0.00000000000E+00 -0.00000000000E+00 -0.29883761178E+04  0.29883761178E+04  0.00000000000E+00 0. -1.
         25    2    1    2    0    0  0.73735087265E+01  0.12375805155E+03 -0.37378937069E+03  0.41317527021E+03  0.12499954526E+03 0.  0.
          2    1    1    2  501    0  0.89725108342E+02 -0.51721967140E+02 -0.25397579530E+04  0.25418686466E+04  0.00000000000E+00 0. -1.
          1    1    1    2  502    0 -0.97098617069E+02 -0.72036084414E+02  0.13491638267E+02  0.12165263334E+03  0.00000000000E+00 0. -1.
         22    1    3    3    0    0 -0.39036370762E+02  0.19649334408E+02 -0.35834875622E+02  0.56516129519E+02  0.00000000000E+00 0. -1.
         22    1    3    3    0    0  0.46409879489E+02  0.10410871715E+03 -0.33795449507E+03  0.35665914069E+03  0.00000000000E+00 0. -1.
</event>
<event>
 7    1  0.6253338E-006  0.7146206E+02  0.7818608E-02  0.1364181E+00
          2   -1    0    0  502    0  0.00000000000E+00  0.00000000000E+00  0.18635481877E+04  0.18635481877E+04  0.00000000000E+00 0. -1.
          1   -1    0    0  501    0 -0.00000000000E+00 -0.00000000000E+00 -0.15563485736E+02  0.15563485736E+02  0.00000000000E+00 0. -1.
         25    2    1    2    0    0 -0.16193527976E+02  0.43642749893E+01  0.11443487025E+04  0.11512773038E+04  0.12499680090E+03 0.  0.
          2    1    1    2  501    0  0.74373755725E+02  0.27344495339E+02  0.14463052927E+03  0.16491563589E+03  0.00000000000E+00 0. -1.
          1    1    1    2  502    0 -0.58180227749E+02 -0.31708770328E+02  0.55900547024E+03  0.56291873372E+03  0.00000000000E+00 0. -1.
         22    1    3    3    0    0 -0.28456089828E+02 -0.82825237770E+00  0.55756855115E+02  0.62604008998E+02  0.00000000000E+00 0.  1.
         22    1    3    3    0    0  0.12262561852E+02  0.51925273670E+01  0.10885918473E+04  0.10886732948E+04  0.00000000000E+00 0.  1.
</event>
<event>
 7    1  0.6253338E-006  0.9511056E+02  0.7818608E-02  0.1369396E+00
          2   -1    0    0  502    0  0.00000000000E+00  0.00000000000E+00  0.10735766913E+04  0.10735766913E+04  0.00000000000E+00 0. -1.
          1   -1    0    0  501    0 -0.00000000000E+00 -0.00000000000E+00 -0.43646325102E+03  0.43646325102E+03  0.00000000000E+00 0. -1.
         25    2    1    2    0    0  0.18844494662E+02  0.12216504772E+03  0.11183756832E+03  0.20835552938E+03  0.12499988430E+03 0.  0.
          2    1    1    2  501    0 -0.37107943638E+02 -0.29925772471E+02 -0.38430789903E+03  0.38725329256E+03  0.00000000000E+00 0. -1.
          1    1    1    2  502    0  0.18263448976E+02 -0.92239275245E+02  0.90958377095E+03  0.91443112034E+03  0.00000000000E+00 0. -1.
         22    1    3    3    0    0  0.69617768308E+02  0.63031995337E+02  0.39034799774E+02  0.10170241734E+03  0.00000000000E+00 0.  1.
         22    1    3    3    0    0 -0.50773273646E+02  0.59133052379E+02  0.72802768542E+02  0.10665311204E+03  0.00000000000E+00 0.  1.
</event>
<event>
 7    1  0.6253338E-006  0.4360769E+02  0.7818608E-02  0.1550845E+00
          2   -1    0    0  502    0  0.00000000000E+00  0.00000000000E+00  0.10086175741E+03  0.10086175741E+03  0.00000000000E+00 0. -1.
          1   -1    0    0  501    0 -0.00000000000E+00 -0.00000000000E+00 -0.11552573427E+04  0.11552573427E+04  0.00000000000E+00 0. -1.
         25    2    1    2    0    0 -0.16532341717E+01  0.26369844757E+02 -0.48862572518E+03  0.50505270556E+03  0.12500013675E+03 0.  0.
          2    1    1    2  501    0 -0.26791524094E+02  0.69929517879E+01 -0.65292145109E+03  0.65350830785E+03  0.00000000000E+00 0. -1.
          1    1    1    2  502    0  0.28444758266E+02 -0.33362796545E+02  0.87151590990E+02  0.97558086688E+02  0.00000000000E+00 0. -1.
         22    1    3    3    0    0  0.42789519523E+02  0.35610085500E+02 -0.41384950739E+03  0.41757686231E+03  0.00000000000E+00 0.  1.
         22    1    3    3    0    0 -0.44442753695E+02 -0.92402407428E+01 -0.74776217790E+02  0.87475843248E+02  0.00000000000E+00 0.  1.
</event>
<event>
 7    1  0.6253338E-006  0.7066555E+02  0.7818608E-02  0.1406092E+00
          2   -1    0    0  502    0  0.00000000000E+00  0.00000000000E+00  0.15885286895E+04  0.15885286895E+04  0.00000000000E+00 0. -1.
          1   -1    0    0  501    0 -0.00000000000E+00 -0.00000000000E+00 -0.97571239220E+02  0.97571239220E+02  0.00000000000E+00 0. -1.
         25    2    1    2    0    0 -0.41919415396E+02  0.10888020940E+03  0.26006942525E+03  0.31124300447E+03  0.12499585792E+03 0.  0.
          2    1    1    2  501    0  0.15270272622E+02 -0.45219185992E+02 -0.63051219987E+02  0.79078520153E+02  0.00000000000E+00 0. -1.
          1    1    1    2  502    0  0.26649142774E+02 -0.63661023413E+02  0.12939392451E+04  0.12957784041E+04  0.00000000000E+00 0. -1.
         22    1    3    3    0    0  0.10055533306E+02  0.11455021939E+03  0.14668640697E+03  0.18638607379E+03  0.00000000000E+00 0. -1.
         22    1    3    3    0    0 -0.51974948702E+02 -0.56700099897E+01  0.11338301828E+03  0.12485693068E+03  0.00000000000E+00 0. -1.
</event>
<event>
 7    1  0.6253338E-006  0.8116461E+02  0.7818608E-02  0.1375442E+00
          2   -1    0    0  502    0  0.00000000000E+00  0.00000000000E+00  0.63390177575E+03  0.63390177575E+03  0.00000000000E+00 0. -1.
          1   -1    0    0  501    0 -0.00000000000E+00 -0.00000000000E+00 -0.36075445843E+03  0.36075445843E+03  0.00000000000E+00 0. -1.
         25    2    1    2    0    0  0.11473034639E+03  0.52331673333E+02  0.21606637613E+03  0.27966853608E+03  0.12501261841E+03 0.  0.
          2    1    1    2  501    0 -0.79352196092E+02 -0.12673220213E+02 -0.32216525675E+03  0.33203589293E+03  0.00000000000E+00 0. -1.
          1    1    1    2  502    0 -0.35378150300E+02 -0.39658453121E+02  0.37924619795E+03  0.38295180517E+03  0.00000000000E+00 0. -1.
         22    1    3    3    0    0  0.11253544457E+03 -0.12021430007E+02  0.13755509386E+03  0.17812957338E+03  0.00000000000E+00 0.  1.
         22    1    3    3    0    0  0.21949018214E+01  0.64353103341E+02  0.78511282263E+02  0.10153896270E+03  0.00000000000E+00 0.  1.
</event>
<event>
 7    1  0.7382615E-006  0.1137836E+03  0.7818608E-02  0.1356979E+00
          2   -1    0    0  502    0  0.00000000000E+00  0.00000000000E+00  0.98197819341E+03  0.98197819341E+03  0.00000000000E+00 0. -1.
          1   -1    0    0  501    0 -0.00000000000E+00 -0.00000000000E+00 -0.30333184655E+04  0.30333184655E+04  0.00000000000E+00 0. -1.
         25    2    1    2    0    0  0.27518672756E+02 -0.72643027075E+02 -0.38700174326E+03  0.41404037716E+03  0.12499919159E+03 0.  0.
          2    1    1    2  501    0 -0.62885774518E+02  0.99167975087E+02 -0.26309826167E+04  0.26336017994E+04  0.00000000000E+00 0. -1.
          1    1    1    2  502    0  0.35367101762E+02 -0.26524948012E+02  0.96664408788E+03  0.96765448244E+03  0.00000000000E+00 0. -1.
         22    1    3    3    0    0 -0.14033648039E+02 -0.31012994154E+02 -0.33126062573E+03  0.33300503186E+03  0.00000000000E+00 0.  1.
         22    1    3    3    0    0  0.41552320795E+02 -0.41630032922E+02 -0.55741117528E+02  0.81035345300E+02  0.00000000000E+00 0.  1.
</event>
<event>
 7    1  0.6253338E-006  0.8393118E+02  0.7818608E-02  0.1400768E+00
          2   -1    0    0  502    0  0.00000000000E+00  0.00000000000E+00  0.13840682847E+04  0.13840682847E+04  0.00000000000E+00 0. -1.
          1   -1    0    0  501    0 -0.00000000000E+00 -0.00000000000E+00 -0.68211512568E+03  0.68211512568E+03  0.00000000000E+00 0. -1.
         25    2    1    2    0    0  0.68350058204E+02 -0.10047425521E+03  0.21226802245E+03  0.27468084107E+03  0.12500017871E+03 0.  0.
          2    1    1    2  501    0 -0.32437497064E+02  0.26530931828E+02 -0.64875072740E+03  0.65010275177E+03  0.00000000000E+00 0. -1.
          1    1    1    2  502    0 -0.35912561140E+02  0.73943323387E+02  0.11384358639E+04  0.11413998175E+04  0.00000000000E+00 0. -1.
         22    1    3    3    0    0  0.67172696010E+02 -0.11377008519E+03  0.22187647106E+03  0.25823433502E+03  0.00000000000E+00 0. -1.
         22    1    3    3    0    0  0.11773621941E+01  0.13295829980E+02 -0.96084486081E+01  0.16446506049E+02  0.00000000000E+00 0. -1.
</event>
<event>
 7    1  0.6253338E-006  0.3554360E+03  0.7818608E-02  0.1204212E+00
          2   -1    0    0  502    0  0.00000000000E+00  0.00000000000E+00  0.49947497639E+03  0.49947497639E+03  0.00000000000E+00 0. -1.
          1   -1    0    0  501    0 -0.00000000000E+00 -0.00000000000E+00 -0.16898527881E+04  0.16898527881E+04  0.00000000000E+00 0. -1.
         25    2    1    2    0    0 -0.16230761762E+02 -0.32234313201E+03 -0.61200789237E+02  0.35148214565E+03  0.12500251889E+03 0.  0.
          2    1    1    2  501    0 -0.41237840643E+02 -0.44668817467E+02 -0.13852951559E+04  0.13866284764E+04  0.00000000000E+00 0. -1.
          1    1    1    2  502    0  0.57468602405E+02  0.36701194948E+03  0.25611813342E+03  0.45121714239E+03  0.00000000000E+00 0. -1.
         22    1    3    3    0    0 -0.66822910321E+02 -0.19384922055E+03 -0.13912499426E+02  0.20551491258E+03  0.00000000000E+00 0.  1.
         22    1    3    3    0    0  0.50592148559E+02 -0.12849391146E+03 -0.47288289812E+02  0.14596723308E+03  0.00000000000E+00 0.  1.
</event>
<event>
 7    1  0.6253338E-006  0.8112213E+02  0.7818608E-02  0.1475785E+00
          2   -1    0    0  502    0  0.00000000000E+00  0.00000000000E+00  0.89028639023E+02  0.89028639023E+02  0.00000000000E+00 0. -1.
          1   -1    0    0  501    0 -0.00000000000E+00 -0.00000000000E+00 -0.67278892998E+03  0.67278892998E+03  0.00000000000E+00 0. -1.
         25    2    1    2    0    0 -0.81323085625E+02 -0.54329589163E+02 -0.14797317713E+03  0.21699254550E+03  0.12499822053E+03 0.  0.
          2    1    1    2  501    0  0.56674408813E+02  0.56032983248E+02 -0.48407041506E+03  0.49058725071E+03  0.00000000000E+00 0. -1.
          1    1    1    2  502    0  0.24648676812E+02 -0.17033940854E+01  0.48283301233E+02  0.54237772797E+02  0.00000000000E+00 0. -1.
         22    1    3    3    0    0 -0.77041333352E+02 -0.39077325591E+02 -0.16951249135E+03  0.19025480058E+03  0.00000000000E+00 0.  1.
         22    1    3    3    0    0 -0.42817522735E+01 -0.15252263572E+02  0.21539314213E+02  0.26737744919E+02  0.00000000000E+00 0.  1.
</event>
<event>
 7    1  0.6253338E-006  0.1169885E+03  0.7818608E-02  0.1301653E+00
          2   -1    0    0  502    0  0.00000000000E+00  0.00000000000E+00  0.10502095866E+04  0.10502095866E+04  0.00000000000E+00 0. -1.
          1   -1    0    0  501    0 -0.00000000000E+00 -0.00000000000E+00 -0.32473557783E+03  0.32473557783E+03  0.00000000000E+00 0. -1.
         25    2    1    2    0    0 -0.88414131330E+02 -0.18331582048E+02  0.61112066856E+02  0.16587051671E+03  0.12500095231E+03 0.  0.
          2    1    1    2  501    0  0.84278911242E+02  0.88213584069E+02 -0.25729929560E+03  0.28475866766E+03  0.00000000000E+00 0. -1.
          1    1    1    2  502    0  0.41352200880E+01 -0.69882002021E+02  0.92166123754E+03  0.92431598008E+03  0.00000000000E+00 0. -1.
         22    1    3    3    0    0  0.14176591089E+02 -0.22091696896E+02  0.57430495234E+02  0.63144917369E+02  0.00000000000E+00 0.  1.
         22    1    3    3    0    0 -0.10259072242E+03  0.37601148477E+01  0.36815716213E+01  0.10272559934E+03  0.00000000000E+00 0.  1.
</event>
<event>
 7    1  0.6253338E-006  0.9069010E+02  0.7818608E-02  0.1368386E+00
          2   -1    0    0  502    0  0.00000000000E+00  0.00000000000E+00  0.13542155748E+03  0.13542155748E+03  0.00000000000E+00 0. -1.
          1   -1    0    0  501    0 -0.00000000000E+00 -0.00000000000E+00 -0.18887613061E+04  0.18887613061E+04  0.00000000000E+00 0. -1.
         25    2    1    2    0    0  0.44692888276E+02 -0.19997120460E+02 -0.16119686459E+03  0.20977671873E+03  0.12499801390E+03 0.  0.
          2    1    1    2  501    0  0.49937931080E+02  0.69231404910E+01 -0.16822973533E+04  0.16830526171E+04  0.00000000000E+00 0. -1.
          1    1    1    2  502    0 -0.94630819356E+02  0.13073979969E+02  0.90154469300E+02  0.13135352778E+03  0.00000000000E+00 0. -1.
         22    1    3    3    0    0  0.46903606427E+02 -0.31062694008E+02 -0.17959158130E+03  0.18819664006E+03  0.00000000000E+00 0.  1.
         22    1    3    3    0    0 -0.22107181509E+01  0.11065573549E+02  0.18394716710E+02  0.21580078673E+02  0.00000000000E+00 0.  1.
</event>
<event>
 7    1  0.1031505E-005  0.7389061E+02  0.7818608E-02  0.1413471E+00
          2   -1    0    0  502    0  0.00000000000E+00  0.00000000000E+00  0.13776771899E+04  0.13776771899E+04  0.00000000000E+00 0. -1.
          1   -1    0    0  501    0 -0.00000000000E+00 -0.00000000000E+00 -0.95333643715E+03  0.95333643715E+03  0.00000000000E+00 0. -1.
         25    2    1    2    0    0 -0.41452897725E+02 -0.70068937852E+02 -0.10002392678E+03  0.17960113540E+03  0.12499513241E+03 0.  0.
          2    1    1    2  501    0  0.42918486873E+02 -0.38405126900E+01 -0.81193101215E+03  0.81307362185E+03  0.00000000000E+00 0. -1.
          1    1    1    2  502    0 -0.14655891481E+01  0.73909450543E+02  0.13362956917E+04  0.13383388698E+04  0.00000000000E+00 0. -1.
         22    1    3    3    0    0 -0.82200064085E+02 -0.25015241099E+02 -0.42169403981E+02  0.95712441485E+02  0.00000000000E+00 0. -1.
         22    1    3    3    0    0  0.40747166360E+02 -0.45053696754E+02 -0.57854522800E+02  0.83888693911E+02  0.00000000000E+00 0. -1.
</event>
<event>
 7    1  0.6253338E-006  0.1082472E+03  0.7818608E-02  0.1386893E+00
          2   -1    0    0  502    0  0.00000000000E+00  0.00000000000E+00  0.24972666287E+04  0.24972666287E+04  0.00000000000E+00 0. -1.
          1   -1    0    0  501    0 -0.00000000000E+00 -0.00000000000E+00 -0.18211569036E+03  0.18211569036E+03  0.00000000000E+00 0. -1.
         25    2    1    2    0    0 -0.10315057884E+03 -0.47445389014E+02  0.75875257120E+02  0.18512826382E+03  0.12499725024E+03 0.  0.
          2    1    1    2  501    0  0.24419168078E+02 -0.26860989942E+02 -0.12364031076E+03  0.12885936130E+03  0.00000000000E+00 0. -1.
          1    1    1    2  502    0  0.78731410762E+02  0.74306378957E+02  0.23629159919E+04  0.23653946939E+04  0.00000000000E+00 0. -1.
         22    1    3    3    0    0  0.19997374689E+01 -0.46073963927E+02 -0.12481951011E+02  0.47776649138E+02  0.00000000000E+00 0.  1.
         22    1    3    3    0    0 -0.10515031631E+03 -0.13714250877E+01  0.88357208131E+02  0.13735161468E+03  0.00000000000E+00 0.  1.
</event>
<event>
 7    1  0.6253338E-006  0.6323919E+02  0.7818608E-02  0.1414636E+00
          2   -1    0    0  502    0  0.00000000000E+00  0.00000000000E+00  0.20971606770E+04  0.20971606770E+04  0.00000000000E+00 0. -1.
          1   -1    0    0  501    0 -0.00000000000E+00 -0.00000000000E+00 -0.30773688960E+02  0.30773688960E+02  0.00000000000E+00 0. -1.
         25    2    1    2    0    0 -0.14587683083E+02  0.35889145848E+02  0.13177918059E+04  0.13242738072E+04  0.12500016629E+03 0.  0.
          2    1    1    2  501    0 -0.45792082498E+02  0.19813432455E+02 -0.67611891182E+00  0.49899339294E+02  0.00000000000E+00 0. -1.
          1    1    1    2  502    0  0.60379765582E+02 -0.55702578303E+02  0.74927130102E+03  0.75376121939E+03  0.00000000000E+00 0. -1.
         22    1    3    3    0    0  0.34491701341E+02 -0.31943016488E+02  0.44599099698E+03  0.44846181906E+03  0.00000000000E+00 0. -1.
         22    1    3    3    0    0 -0.49079384424E+02  0.67832162337E+02  0.87180080892E+03  0.87581198819E+03  0.00000000000E+00 0. -1.
</event>
<event>
 7    1  0.6253338E-006  0.6002833E+02  0.7818608E-02  0.1402744E+00
          2   -1    0    0  502    0  0.00000000000E+00  0.00000000000E+00  0.29123359727E+03  0.29123359727E+03  0.00000000000E+00 0. -1.
          1   -1    0    0  501    0 -0.00000000000E+00 -0.00000000000E+00 -0.11572295471E+04  0.11572295471E+04  0.00000000000E+00 0. -1.
         25    2    1    2    0    0 -0.71196283897E+02  0.56208579568E+02  0.11162947431E+03  0.19052457381E+03  0.12494061964E+03 0.  0.
          2    1    1    2  501    0  0.13405171171E+02 -0.56105461120E+02 -0.11110444822E+04  0.11125409488E+04  0.00000000000E+00 0. -1.
          1    1    1    2  502    0  0.57791112726E+02 -0.10311844775E+00  0.13341905808E+03  0.14539762172E+03  0.00000000000E+00 0. -1.
         22    1    3    3    0    0 -0.35566128389E+02  0.92829764980E+02  0.93030145912E+02  0.13615036835E+03  0.00000000000E+00 0. -1.
         22    1    3    3    0    0 -0.35630155508E+02 -0.36621185412E+02  0.18599328393E+02  0.54374205458E+02  0.00000000000E+00 0. -1.
</event>
<event>
 7    1  0.6253338E-006  0.3933587E+02  0.7818608E-02  0.1532092E+00
          2   -1    0    0  502    0  0.00000000000E+00  0.00000000000E+00  0.89673172676E+03  0.89673172676E+03  0.00000000000E+00 0. -1.
          1   -1    0    0  501    0 -0.00000000000E+00 -0.00000000000E+00 -0.27967972356E+03  0.27967972356E+03  0.00000000000E+00 0. -1.
         25    2    1    2    0    0 -0.36714521149E+02 -0.30638329323E+02  0.32863924790E+02  0.13781814995E+03  0.12500856618E+03 0.  0.
          2    1    1    2  501    0  0.31464206953E+01  0.39322220036E+02 -0.22511632347E+03  0.22854648552E+03  0.00000000000E+00 0. -1.
          1    1    1    2  502    0  0.33568100454E+02 -0.86838907140E+01  0.80930440188E+03  0.81004681484E+03  0.00000000000E+00 0. -1.
         22    1    3    3    0    0 -0.57315912988E+02 -0.31548440549E+02 -0.29768019295E+02  0.71878737854E+02  0.00000000000E+00 0. -1.
         22    1    3    3    0    0  0.20601391839E+02  0.91011122665E+00  0.62631944086E+02  0.65939412100E+02  0.00000000000E+00 0. -1.
</event>
<event>
 7    1  0.6253338E-006  0.4998168E+02  0.7818608E-02  0.1550083E+00
          2   -1    0    0  502    0  0.00000000000E+00  0.00000000000E+00  0.71583710499E+03  0.71583710499E+03  0.00000000000E+00 0. -1.
          1   -1    0    0  501    0 -0.00000000000E+00 -0.00000000000E+00 -0.79542868757E+03  0.79542868757E+03  0.00000000000E+00 0. -1.
         25    2    1    2    0    0  0.26778323448E+02  0.28968120604E+02  0.58402735244E+02  0.14351309420E+03  0.12501559145E+03 0.  0.
          2    1    1    2  501    0  0.20804289506E+02 -0.12511379088E+02 -0.75164654835E+03  0.75203848753E+03  0.00000000000E+00 0. -1.
          1    1    1    2  502    0 -0.47582612955E+02 -0.16456741516E+02  0.61365223052E+03  0.61571421083E+03  0.00000000000E+00 0. -1.
         22    1    3    3    0    0 -0.47854022665E+02 -0.67138992752E+01  0.23370409834E+02  0.53677369389E+02  0.00000000000E+00 0.  1.
         22    1    3    3    0    0  0.74632346113E+02  0.35682019879E+02  0.35032325409E+02  0.89835724813E+02  0.00000000000E+00 0.  1.
</event>
<event>
 7    1  0.6253338E-006  0.1231193E+03  0.7818608E-02  0.1394515E+00
          2   -1    0    0  502    0  0.00000000000E+00  0.00000000000E+00  0.47295790319E+02  0.47295790319E+02  0.00000000000E+00 0. -1.
          1   -1    0    0  501    0 -0.00000000000E+00 -0.00000000000E+00 -0.92488839674E+03  0.92488839674E+03  0.00000000000E+00 0. -1.
         25    2    1    2    0    0 -0.18424599702E+02  0.14438425187E+03 -0.24417308145E+03  0.31053514474E+03  0.12500121741E+03 0.  0.
          2    1    1    2  501    0  0.28184150365E+02 -0.11599245847E+03 -0.61488953198E+03  0.62636868799E+03  0.00000000000E+00 0. -1.
          1    1    1    2  502    0 -0.97595506624E+01 -0.28391793400E+02 -0.18529993001E+02  0.35280354338E+02  0.00000000000E+00 0. -1.
         22    1    3    3    0    0  0.19601489138E+02  0.11077562318E+03 -0.23275684550E+03  0.25851732281E+03  0.00000000000E+00 0.  1.
         22    1    3    3    0    0 -0.38026088841E+02  0.33608628686E+02 -0.11416235948E+02  0.52017821926E+02  0.00000000000E+00 0.  1.
</event>
<event>
 7    1  0.6253338E-006  0.2975179E+02  0.7818608E-02  0.1640134E+00
          2   -1    0    0  502    0  0.00000000000E+00  0.00000000000E+00  0.69916462088E+03  0.69916462088E+03  0.00000000000E+00 0. -1.
          1   -1    0    0  501    0 -0.00000000000E+00 -0.00000000000E+00 -0.87891559887E+03  0.87891559887E+03  0.00000000000E+00 0. -1.
         25    2    1    2    0    0 -0.49666704202E+02  0.12930191658E+02 -0.24211575736E+03  0.27727010663E+03  0.12499880283E+03 0.  0.
          2    1    1    2  501    0  0.29336289105E+02 -0.88195397056E+00 -0.61866982666E+03  0.61936560295E+03  0.00000000000E+00 0. -1.
          1    1    1    2  502    0  0.20330415097E+02 -0.12048237687E+02  0.68103460603E+03  0.68144451015E+03  0.00000000000E+00 0. -1.
         22    1    3    3    0    0 -0.83365643780E+02  0.22171933388E+01 -0.97059242427E+02  0.12796578859E+03  0.00000000000E+00 0. -1.
         22    1    3    3    0    0  0.33698939578E+02  0.10712998319E+02 -0.14505651493E+03  0.14930431804E+03  0.00000000000E+00 0. -1.
</event>
<event>
 7    1  0.6253338E-006  0.8375821E+02  0.7818608E-02  0.1396807E+00
          2   -1    0    0  502    0  0.00000000000E+00  0.00000000000E+00  0.29602282714E+02  0.29602282714E+02  0.00000000000E+00 0. -1.
          1   -1    0    0  501    0 -0.00000000000E+00 -0.00000000000E+00 -0.12060647773E+04  0.12060647773E+04  0.00000000000E+00 0. -1.
         25    2    1    2    0    0 -0.10232510114E+03 -0.43491876704E+02 -0.40272358014E+03  0.43608752991E+03  0.12499632824E+03 0.  0.
          2    1    1    2  501    0  0.80582961924E+02  0.60086962213E+01 -0.74068367693E+03  0.74507853777E+03  0.00000000000E+00 0. -1.
          1    1    1    2  502    0  0.21742139214E+02  0.37483180483E+02 -0.33055237478E+02  0.54500992297E+02  0.00000000000E+00 0. -1.
         22    1    3    3    0    0 -0.25454828006E+02 -0.77086750262E+02 -0.16275287305E+03  0.18187581759E+03  0.00000000000E+00 0.  1.
         22    1    3    3    0    0 -0.76870273132E+02  0.33594873558E+02 -0.23997070709E+03  0.25421171232E+03  0.00000000000E+00 0.  1.
</event>
<event>
 7    1  0.6253338E-006  0.2590132E+03  0.7818608E-02  0.1335367E+00
          2   -1    0    0  502    0  0.00000000000E+00  0.00000000000E+00  0.71309931129E+03  0.71309931129E+03  0.00000000000E+00 0. -1.
          1   -1    0    0  501    0 -0.00000000000E+00 -0.00000000000E+00 -0.66463520754E+03  0.66463520754E+03  0.00000000000E+00 0. -1.
         25    2    1    2    0    0 -0.26853675921E+03  0.25960850822E+02  0.15521867170E+03  0.33541381416E+03  0.12499453531E+03 0.  0.
          2    1    1    2  501    0  0.16991527939E+02  0.16057006308E+02 -0.53950570414E+03  0.54001198530E+03  0.00000000000E+00 0. -1.
          1    1    1    2  502    0  0.25154523127E+03 -0.42017857130E+02  0.43275113618E+03  0.50230871938E+03  0.00000000000E+00 0. -1.
         22    1    3    3    0    0 -0.67488886244E+02 -0.31623199899E+02 -0.73676928069E+00  0.74534014834E+02  0.00000000000E+00 0.  1.
         22    1    3    3    0    0 -0.20104787297E+03  0.57584050721E+02  0.15595544098E+03  0.26087979932E+03  0.00000000000E+00 0.  1.
</event>
<event>
 7    1  0.6253338E-006  0.7320489E+02  0.7818608E-02  0.1393735E+00
          2   -1    0    0  502    0  0.00000000000E+00  0.00000000000E+00  0.34229551404E+03  0.34229551404E+03  0.00000000000E+00 0. -1.
          1   -1    0    0  501    0 -0.00000000000E+00 -0.00000000000E+00 -0.77272764098E+03  0.77272764098E+03  0.00000000000E+00 0. -1.
         25    2    1    2    0    0 -0.21053994208E+02 -0.27475730984E+02 -0.97768026131E+02  0.16241407362E+03  0.12498623088E+03 0.  0.
          2    1    1    2  501    0  0.18667124962E+02 -0.47255016956E+02 -0.63710167952E+03  0.63912443877E+03  0.00000000000E+00 0. -1.
          1    1    1    2  502    0  0.23868692466E+01  0.74730747940E+02  0.30443757872E+03  0.31348464264E+03  0.00000000000E+00 0. -1.
         22    1    3    3    0    0 -0.41404562308E+02 -0.52213449661E+01  0.16017077212E+02  0.44700637418E+02  0.00000000000E+00 0.  1.
         22    1    3    3    0    0  0.20350568100E+02 -0.22254386018E+02 -0.11378510334E+03  0.11771343620E+03  0.00000000000E+00 0.  1.
</event>
<event>
 7    1  0.6253338E-006  0.9223990E+02  0.7818608E-02  0.1377850E+00
          2   -1    0    0  502    0  0.00000000000E+00  0.00000000000E+00  0.75547867451E+03  0.75547867451E+03  0.00000000000E+00 0. -1.
          1   -1    0    0  501    0 -0.00000000000E+00 -0.00000000000E+00 -0.56680564310E+02  0.56680564310E+02  0.00000000000E+00 0. -1.
         25    2    1    2    0    0  0.84171049681E+02 -0.13544593485E+02  0.35245292027E+03  0.38355874124E+03  0.12500410137E+03 0.  0.
          2    1    1    2  501    0  0.88542620433E+01  0.44986778359E+02 -0.19486776994E+02  0.49819099361E+02  0.00000000000E+00 0. -1.
          1    1    1    2  502    0 -0.93025311724E+02 -0.31442184875E+02  0.36583196692E+03  0.37878139822E+03  0.00000000000E+00 0. -1.
         22    1    3    3    0    0  0.77797016530E+02 -0.57286343218E+02  0.16720934410E+03  0.19311412598E+03  0.00000000000E+00 0.  1.
         22    1    3    3    0    0  0.63740331504E+01  0.43741749733E+02  0.18524357617E+03  0.19044461525E+03  0.00000000000E+00 0.  1.
</event>
<event>
 7    1  0.6253338E-006  0.2240323E+03  0.7818608E-02  0.1262269E+00
          2   -1    0    0  502    0  0.00000000000E+00  0.00000000000E+00  0.15650117681E+04  0.15650117681E+04  0.00000000000E+00 0. -1.
          1   -1    0    0  501    0 -0.00000000000E+00 -0.00000000000E+00 -0.56399107964E+02  0.56399107964E+02  0.00000000000E+00 0. -1.
         25    2    1    2    0    0 -0.19896224092E+03 -0.33566865774E+02  0.10368491800E+04  0.10636708713E+04  0.12500717043E+03 0.  0.
          2    1    1    2  501    0  0.23233783871E+03 -0.77555525709E+01  0.31001067669E+03  0.38748888958E+03  0.00000000000E+00 0. -1.
          1    1    1    2  502    0 -0.33375597788E+02  0.41322418345E+02  0.16175280350E+03  0.17025111520E+03  0.00000000000E+00 0. -1.
         22    1    3    3    0    0 -0.69562418498E+02  0.43432484644E+02  0.47329209524E+03  0.48034437460E+03  0.00000000000E+00 0. -1.
         22    1    3    3    0    0 -0.12939982243E+03 -0.76999350418E+02  0.56355708471E+03  0.58332649669E+03  0.00000000000E+00 0. -1.
</event>
<event>
 7    1  0.6253338E-006  0.7242059E+02  0.7818608E-02  0.1355667E+00
          2   -1    0    0  502    0  0.00000000000E+00  0.00000000000E+00  0.10741098263E+03  0.10741098263E+03  0.00000000000E+00 0. -1.
          1   -1    0    0  501    0 -0.00000000000E+00 -0.00000000000E+00 -0.14476296965E+04  0.14476296965E+04  0.00000000000E+00 0. -1.
         25    2    1    2    0    0  0.25625206263E+02  0.42448569622E+02 -0.47164425388E+02  0.14251449537E+03  0.12500946408E+03 0.  0.
          2    1    1    2  501    0 -0.72918608264E+02  0.94740240502E+01 -0.13307750198E+04  0.13328049496E+04  0.00000000000E+00 0. -1.
          1    1    1    2  502    0  0.47293402001E+02 -0.51922593672E+02  0.37720731257E+02  0.79721234141E+02  0.00000000000E+00 0. -1.
         22    1    3    3    0    0  0.12985690250E+02 -0.36212136454E+02  0.15173974954E+02  0.41354522047E+02  0.00000000000E+00 0. -1.
         22    1    3    3    0    0  0.12639516013E+02  0.78660706075E+02 -0.62338400342E+02  0.10115997332E+03  0.00000000000E+00 0. -1.
</event>
<event>
 7    1  0.6253338E-006  0.4933684E+02  0.7818608E-02  0.1457139E+00
          2   -1    0    0  502    0  0.00000000000E+00  0.00000000000E+00  0.25427168937E+02  0.25427168937E+02  0.00000000000E+00 0. -1.
          1   -1    0    0  501    0 -0.00000000000E+00 -0.00000000000E+00 -0.87616076504E+03  0.87616076504E+03  0.00000000000E+00 0. -1.
         25    2    1    2    0    0 -0.79191830024E+01 -0.41590905518E+02 -0.60393923634E+03  0.61819042814E+03  0.12499714943E+03 0.  0.
          2    1    1    2  501    0 -0.41280551235E+02  0.37915295314E+02 -0.22045738531E+03  0.22747112402E+03  0.00000000000E+00 0. -1.
          1    1    1    2  502    0  0.49199734237E+02  0.36756102037E+01 -0.26336974452E+02  0.55926381813E+02  0.00000000000E+00 0. -1.
         22    1    3    3    0    0  0.29669350335E+02 -0.75601646714E+02 -0.36225106311E+03  0.37124346737E+03  0.00000000000E+00 0. -1.
         22    1    3    3    0    0 -0.37588533337E+02  0.34010741197E+02 -0.24168817323E+03  0.24694696077E+03  0.00000000000E+00 0. -1.
</event>
<event>
 7    1  0.6253338E-006  0.4851681E+02  0.7818608E-02  0.1470331E+00
          2   -1    0    0  502    0  0.00000000000E+00  0.00000000000E+00  0.51159309514E+03  0.51159309514E+03  0.00000000000E+00 0. -1.
          1   -1    0    0  501    0 -0.00000000000E+00 -0.00000000000E+00 -0.59242359714E+03  0.59242359714E+03  0.00000000000E+00 0. -1.
         25    2    1    2    0    0 -0.32616137762E+02  0.16871980112E+02  0.13789825268E+03  0.18970656269E+03  0.12499670267E+03 0.  0.
          2    1    1    2  501    0 -0.11502285668E+02 -0.41381731092E+02 -0.56386745479E+03  0.56550089020E+03  0.00000000000E+00 0. -1.
          1    1    1    2  502    0  0.44118423430E+02  0.24509750980E+02  0.34513870010E+03  0.34880923940E+03  0.00000000000E+00 0. -1.
         22    1    3    3    0    0  0.37726590403E+02  0.40680750561E+02  0.67545295007E+02  0.87410445413E+02  0.00000000000E+00 0. -1.
         22    1    3    3    0    0 -0.70342728166E+02 -0.23808770449E+02  0.70352957676E+02  0.10229611728E+03  0.00000000000E+00 0. -1.
</event>
<event>
 7    1  0.6253338E-006  0.1768565E+03  0.7818608E-02  0.1354537E+00
          2   -1    0    0  502    0  0.00000000000E+00  0.00000000000E+00  0.17059348872E+04  0.17059348872E+04  0.00000000000E+00 0. -1.
          1   -1    0    0  501    0 -0.00000000000E+00 -0.00000000000E+00 -0.21988919757E+03  0.21988919757E+03  0.00000000000E+00 0. -1.
         25    2    1    2    0    0 -0.36640505824E+02  0.19641305618E+03  0.23037685468E+03  0.32957278372E+03  0.12499643710E+03 0.  0.
          2    1    1    2  501    0 -0.82363953128E+01 -0.27843207924E+02 -0.16367372016E+03  0.16622926670E+03  0.00000000000E+00 0. -1.
          1    1    1    2  502    0  0.44876901136E+02 -0.16856984826E+03  0.14193425551E+04  0.14300220344E+04  0.00000000000E+00 0. -1.
         22    1    3    3    0    0  0.18238404297E+02  0.17601212223E+03  0.17853002784E+03  0.25136801190E+03  0.00000000000E+00 0.  1.
         22    1    3    3    0    0 -0.54878910121E+02  0.20400933949E+02  0.51846826836E+02  0.78204771817E+02  0.00000000000E+00 0.  1.
</event>
<event>
 7    1  0.6253338E-006  0.9120500E+02  0.7818608E-02  0.1332488E+00
          2   -1    0    0  502    0  0.00000000000E+00  0.00000000000E+00  0.88833332846E+02  0.88833332846E+02  0.00000000000E+00 0. -1.
          1   -1    0    0  501    0 -0.00000000000E+00 -0.00000000000E+00 -0.15319523331E+04  0.15319523331E+04  0.00000000000E+00 0. -1.
         25    2    1    2    0    0 -0.25428397612E+02  0.62553069549E+02 -0.79006365976E+02  0.16256219285E+03  0.12499988306E+03 0.  0.
          2    1    1    2  501    0 -0.67854697684E+02 -0.55896107069E+01 -0.13456541377E+04  0.13473754347E+04  0.00000000000E+00 0. -1.
          1    1    1    2  502    0  0.93283095296E+02 -0.56963458842E+02 -0.18458496542E+02  0.11084803835E+03  0.00000000000E+00 0. -1.
         22    1    3    3    0    0  0.33185334948E+01  0.57759895110E+02 -0.10732515446E+03  0.12192582551E+03  0.00000000000E+00 0. -1.
         22    1    3    3    0    0 -0.28746931107E+02  0.47931744386E+01  0.28318788484E+02  0.40636367338E+02  0.00000000000E+00 0. -1.
</event>
<event>
 7    1  0.6253338E-006  0.5277514E+02  0.7818608E-02  0.1445695E+00
          2   -1    0    0  502    0  0.00000000000E+00  0.00000000000E+00  0.11798200592E+04  0.11798200592E+04  0.00000000000E+00 0. -1.
          1   -1    0    0  501    0 -0.00000000000E+00 -0.00000000000E+00 -0.50916915893E+02  0.50916915893E+02  0.00000000000E+00 0. -1.
         25    2    1    2    0    0  0.24041418640E+02 -0.91093957519E+02  0.19045418598E+03  0.24652628064E+03  0.12500524461E+03 0.  0.
          2    1    1    2  501    0 -0.54389345853E+01  0.47663365104E+02  0.35340149721E+01  0.48102678141E+02  0.00000000000E+00 0. -1.
          1    1    1    2  502    0 -0.18602484054E+02  0.43430592414E+02  0.93491494237E+03  0.93610801633E+03  0.00000000000E+00 0. -1.
         22    1    3    3    0    0 -0.26203332191E+02 -0.22321304512E+02  0.14687202991E+03  0.15085174319E+03  0.00000000000E+00 0.  1.
         22    1    3    3    0    0  0.50244750831E+02 -0.68772653007E+02  0.43582156064E+02  0.95674537443E+02  0.00000000000E+00 0.  1.
</event>
<event>
 7    1  0.6253338E-006  0.1212639E+03  0.7818608E-02  0.1322658E+00
          2   -1    0    0  502    0  0.00000000000E+00  0.00000000000E+00  0.26315592838E+03  0.26315592838E+03  0.00000000000E+00 0. -1.
          1   -1    0    0  501    0 -0.00000000000E+00 -0.00000000000E+00 -0.94110292237E+03  0.94110292237E+03  0.00000000000E+00 0. -1.
         25    2    1    2    0    0 -0.12631726234E+03 -0.69047110374E+02 -0.28474129485E+03  0.34267451876E+03  0.12499866638E+03 0.  0.
          2    1    1    2  501    0  0.75212340599E+02  0.91576863949E+02 -0.61835670916E+03  0.62960959169E+03  0.00000000000E+00 0. -1.
          1    1    1    2  502    0  0.51104921740E+02 -0.22529753575E+02  0.22515101002E+03  0.23197474029E+03  0.00000000000E+00 0. -1.
         22    1    3    3    0    0 -0.74789036197E+02 -0.98486050248E+02 -0.23368656306E+03  0.26439045328E+03  0.00000000000E+00 0.  1.
         22    1    3    3    0    0 -0.51528226142E+02  0.29438939874E+02 -0.51054731789E+02  0.78284065482E+02  0.00000000000E+00 0.  1.
</event>
<event>
 7    1  0.6253338E-006  0.6005442E+02  0.7818608E-02  0.1447306E+00
          2   -1    0    0  502    0  0.00000000000E+00  0.00000000000E+00  0.42720713315E+04  0.42720713315E+04  0.00000000000E+00 0. -1.
          1   -1    0    0  501    0 -0.00000000000E+00 -0.00000000000E+00 -0.52069610150E+02  0.52069610150E+02  0.00000000000E+00 0. -1.
         25    2    1    2    0    0  0.66367706323E+02  0.29960707487E+02  0.25833875839E+04  0.25874348097E+04  0.12500067789E+03 0.  0.
          2    1    1    2  501    0 -0.59141119920E+02  0.10425514872E+02 -0.31687301086E+02  0.67900283327E+02  0.00000000000E+00 0. -1.
          1    1    1    2  502    0 -0.72265864031E+01 -0.40386222359E+02  0.16683014385E+04  0.16688058485E+04  0.00000000000E+00 0. -1.
         22    1    3    3    0    0  0.62335692207E+02 -0.60760942502E+01  0.23810519549E+04  0.23818755361E+04  0.00000000000E+00 0.  1.
         22    1    3    3    0    0  0.40320141167E+01  0.36036801737E+02  0.20233562905E+03  0.20555927369E+03  0.00000000000E+00 0.  1.
</event>
<event>
 7    1  0.7838735E-006  0.9981462E+02  0.7818608E-02  0.1328933E+00
          2   -1    0    0  502    0  0.00000000000E+00  0.00000000000E+00  0.18951621410E+04  0.18951621410E+04  0.00000000000E+00 0. -1.
          1   -1    0    0  501    0 -0.00000000000E+00 -0.00000000000E+00 -0.13210346514E+04  0.13210346514E+04  0.00000000000E+00 0. -1.
         25    2    1    2    0    0  0.13073771165E+03 -0.76796490317E+02 -0.98264835404E+02  0.21970825656E+03  0.12500275978E+03 0.  0.
          2    1    1    2  501    0 -0.66722194794E+02  0.72122434332E+02 -0.11594081792E+04  0.11635638456E+04  0.00000000000E+00 0. -1.
          1    1    1    2  502    0 -0.64015516857E+02  0.46740559848E+01  0.18318005042E+04  0.18329246903E+04  0.00000000000E+00 0. -1.
         22    1    3    3    0    0  0.12548957372E+03 -0.29002112265E+02 -0.11093386939E+03  0.16998552587E+03  0.00000000000E+00 0. -1.
         22    1    3    3    0    0  0.52481379285E+01 -0.47794378052E+02  0.12669033986E+02  0.49722730690E+02  0.00000000000E+00 0. -1.
</event>
<event>
 7    1  0.6253338E-006  0.2745908E+03  0.7818608E-02  0.1263230E+00
          2   -1    0    0  502    0  0.00000000000E+00  0.00000000000E+00  0.89385921035E+03  0.89385921035E+03  0.00000000000E+00 0. -1.
          1   -1    0    0  501    0 -0.00000000000E+00 -0.00000000000E+00 -0.30216665705E+04  0.30216665705E+04  0.00000000000E+00 0. -1.
         25    2    1    2    0    0  0.26383405612E+03 -0.30938960239E+02 -0.12148769115E+03  0.31772621757E+03  0.12500024720E+03 0.  0.
          2    1    1    2  501    0 -0.27521490001E+03 -0.10457154410E+02 -0.27947065905E+04  0.28082445620E+04  0.00000000000E+00 0. -1.
          1    1    1    2  502    0  0.11380843892E+02  0.41396114649E+02  0.78838692152E+03  0.78955500121E+03  0.00000000000E+00 0. -1.
         22    1    3    3    0    0  0.17302800378E+02  0.23478206250E+02  0.12705267657E+02  0.31812527342E+02  0.00000000000E+00 0.  1.
         22    1    3    3    0    0  0.24653125574E+03 -0.54417166489E+02 -0.13419295881E+03  0.28591369023E+03  0.00000000000E+00 0.  1.
</event>
<event>
 7    1  0.6253338E-006  0.4357710E+02  0.7818608E-02  0.1547312E+00
          2   -1    0    0  502    0  0.00000000000E+00  0.00000000000E+00  0.16584418125E+04  0.16584418125E+04  0.00000000000E+00 0. -1.
          1   -1    0    0  501    0 -0.00000000000E+00 -0.00000000000E+00 -0.31561741656E+03  0.31561741656E+03  0.00000000000E+00 0. -1.
         25    2    1    2    0    0 -0.26922118497E+02 -0.42971589221E+01  0.74910995026E+02  0.14825134438E+03  0.12499415145E+03 0.  0.
          2    1    1    2  501    0  0.38176788806E+02 -0.21718142049E+02 -0.27708748509E+03  0.28054700015E+03  0.00000000000E+00 0. -1.
          1    1    1    2  502    0 -0.11254670309E+02  0.26015300971E+02  0.15450008860E+04  0.15452608846E+04  0.00000000000E+00 0. -1.
         22    1    3    3    0    0 -0.41093731401E+02 -0.52811164387E+02  0.70992087149E+02  0.97558137959E+02  0.00000000000E+00 0. -1.
         22    1    3    3    0    0  0.14171612904E+02  0.48514005465E+02  0.39189078772E+01  0.50693206424E+02  0.00000000000E+00 0. -1.
</event>
<event>
 7    1  0.6253338E-006  0.8764113E+02  0.7818608E-02  0.1390859E+00
          2   -1    0    0  502    0  0.00000000000E+00  0.00000000000E+00  0.16781307637E+04  0.16781307637E+04  0.00000000000E+00 0. -1.
          1   -1    0    0  501    0 -0.00000000000E+00 -0.00000000000E+00 -0.25781584618E+04  0.25781584618E+04  0.00000000000E+00 0. -1.
         25    2    1    2    0    0 -0.48534855255E+02  0.12351849491E+02 -0.99958882531E+02  0.16770522098E+03  0.12500025034E+03 0.  0.
          2    1    1    2  501    0 -0.39235728631E+02 -0.18616657987E+02 -0.24429560136E+04  0.24433419954E+04  0.00000000000E+00 0. -1.
          1    1    1    2  502    0  0.87770583887E+02  0.62648084959E+01  0.16428871980E+04  0.16452420091E+04  0.00000000000E+00 0. -1.
         22    1    3    3    0    0  0.29000071054E+02  0.34386233488E+02 -0.84692949485E+01  0.45772766265E+02  0.00000000000E+00 0.  1.
         22    1    3    3    0    0 -0.77534926309E+02 -0.22034383997E+02 -0.91489587583E+02  0.12193245471E+03  0.00000000000E+00 0.  1.
</event>
<event>
 7    1  0.6253338E-006  0.2010240E+03  0.7818608E-02  0.1224607E+00
          2   -1    0    0  502    0  0.00000000000E+00  0.00000000000E+00  0.13670812239E+04  0.13670812239E+04  0.00000000000E+00 0. -1.
          1   -1    0    0  501    0 -0.00000000000E+00 -0.00000000000E+00 -0.35419650868E+03  0.35419650868E+03  0.00000000000E+00 0. -1.
         25    2    1    2    0    0  0.13250479773E+03 -0.93439581381E+02  0.32871034253E+03  0.38725151092E+03  0.12499906654E+03 0.  0.
          2    1    1    2  501    0  0.79474734933E+02  0.34389394629E+02 -0.30686564217E+03  0.31885010005E+03  0.00000000000E+00 0. -1.
          1    1    1    2  502    0 -0.21197953266E+03  0.59050186751E+02  0.99104001484E+03  0.10151761216E+04  0.00000000000E+00 0. -1.
         22    1    3    3    0    0  0.22072255881E+02  0.31180975844E+02  0.63153092714E+02  0.73808880588E+02  0.00000000000E+00 0.  1.
         22    1    3    3    0    0  0.11043254185E+03 -0.12462055722E+03  0.26555724982E+03  0.31344263034E+03  0.00000000000E+00 0.  1.
</event>
<event>
 7    1  0.6253338E-006  0.2005654E+03  0.7818608E-02  0.1237911E+00
          2   -1    0    0  502    0  0.00000000000E+00  0.00000000000E+00  0.13173871720E+04  0.13173871720E+04  0.00000000000E+00 0. -1.
          1   -1    0    0  501    0 -0.00000000000E+00 -0.00000000000E+00 -0.54831054080E+03  0.54831054080E+03  0.00000000000E+00 0. -1.
         25    2    1    2    0    0 -0.35667980905E+02 -0.25662618110E+03  0.17289618405E+03  0.33562933649E+03  0.12499903745E+03 0.  0.
          2    1    1    2  501    0 -0.24446979481E+02  0.71618441922E+02 -0.45489314631E+03  0.46114491278E+03  0.00000000000E+00 0. -1.
          1    1    1    2  502    0  0.60114960386E+02  0.18500773918E+03  0.10510735934E+04  0.10689234635E+04  0.00000000000E+00 0. -1.
         22    1    3    3    0    0 -0.56002680436E+02 -0.24892312657E+03  0.18056221896E+03  0.31257277245E+03  0.00000000000E+00 0.  1.
         22    1    3    3    0    0  0.20334699531E+02 -0.77030545287E+01 -0.76660349099E+01  0.23056564040E+02  0.00000000000E+00 0.  1.
</event>
<event>
 7    1  0.6253338E-006  0.8966762E+02  0.7818608E-02  0.1323436E+00
          2   -1    0    0  502    0  0.00000000000E+00  0.00000000000E+00  0.10340522287E+04  0.10340522287E+04  0.00000000000E+00 0. -1.
          1   -1    0    0  501    0 -0.00000000000E+00 -0.00000000000E+00 -0.40384411910E+03  0.40384411910E+03  0.00000000000E+00 0. -1.
         25    2    1    2    0    0 -0.14660813327E+03 -0.56058018744E+02 -0.23327421166E+02  0.20200204234E+03  0.12499684127E+03 0.  0.
          2    1    1    2  501    0  0.83780877939E+02  0.15078558915E+02 -0.28342654466E+03  0.29593446008E+03  0.00000000000E+00 0. -1.
          1    1    1    2  502    0  0.62827255327E+02  0.40979459829E+02  0.93696207542E+03  0.93995984537E+03  0.00000000000E+00 0. -1.
         22    1    3    3    0    0 -0.21227349551E+02  0.30202408217E+02 -0.32988234143E+02  0.49507670344E+02  0.00000000000E+00 0.  1.
         22    1    3    3    0    0 -0.12538078372E+03 -0.86260426960E+02  0.96608129767E+01  0.15249437200E+03  0.00000000000E+00 0.  1.
</event>
<event>
 7    1  0.6253338E-006  0.2931306E+02  0.7818608E-02  0.1615751E+00
          2   -1    0    0  502    0  0.00000000000E+00  0.00000000000E+00  0.14843994438E+02  0.14843994438E+02  0.00000000000E+00 0. -1.
          1   -1    0    0  501    0 -0.00000000000E+00 -0.00000000000E+00 -0.61587831237E+03  0.61587831237E+03  0.00000000000E+00 0. -1.
         25    2    1    2    0    0 -0.16599443678E+02 -0.21782643307E+02 -0.35794698212E+03  0.38013279809E+03  0.12499950840E+03 0.  0.
          2    1    1    2  501    0 -0.16350669836E+02  0.22277327058E+02 -0.12271082171E+03  0.12578382038E+03  0.00000000000E+00 0. -1.
          1    1    1    2  502    0  0.32950113514E+02 -0.49468375108E+00 -0.12037651410E+03  0.12480568833E+03  0.00000000000E+00 0. -1.
         22    1    3    3    0    0 -0.31249588727E+02  0.47637777994E+02 -0.16428773446E+03  0.17388603849E+03  0.00000000000E+00 0.  1.
         22    1    3    3    0    0  0.14650145049E+02 -0.69420421301E+02 -0.19365924765E+03  0.20624675960E+03  0.00000000000E+00 0.  1.
</event>
<event>
 7    1  0.6253338E-006  0.1398669E+03  0.7818608E-02  0.1315655E+00
          2   -1    0    0  502    0  0.00000000000E+00  0.00000000000E+00  0.45976505901E+03  0.45976505901E+03  0.00000000000E+00 0. -1.
          1   -1    0    0  501    0 -0.00000000000E+00 -0.00000000000E+00 -0.26293028942E+03  0.26293028942E+03  0.00000000000E+00 0. -1.
         25    2    1    2    0    0 -0.13303344701E+03  0.54848124049E+02  0.48418515625E+02  0.19666233311E+03  0.12500202347E+03 0.  0.
          2    1    1    2  501    0  0.14061707976E+03 -0.38561427039E+01 -0.16016872153E+03  0.21317141533E+03  0.00000000000E+00 0. -1.
          1    1    1    2  502    0 -0.75836327526E+01 -0.50991981345E+02  0.30858497549E+03  0.31286159999E+03  0.00000000000E+00 0. -1.
         22    1    3    3    0    0 -0.24701803321E+01 -0.14794241312E+02 -0.26765788360E+02  0.30681896835E+02  0.00000000000E+00 0. -1.
         22    1    3    3    0    0 -0.13056326668E+03  0.69642365361E+02  0.75184303985E+02  0.16598043627E+03  0.00000000000E+00 0. -1.
</event>
<event>
 7    1  0.6253338E-006  0.6887215E+02  0.7818608E-02  0.1423979E+00
          2   -1    0    0  502    0  0.00000000000E+00  0.00000000000E+00  0.16350191657E+04  0.16350191657E+04  0.00000000000E+00 0. -1.
          1   -1    0    0  501    0 -0.00000000000E+00 -0.00000000000E+00 -0.14329023519E+04  0.14329023519E+04  0.00000000000E+00 0. -1.
         25    2    1    2    0    0  0.67181080090E+02  0.14067902917E+02 -0.16858711802E+02  0.14359930908E+03  0.12500136796E+03 0.  0.
          2    1    1    2  501    0 -0.42773861936E+01 -0.42419321627E+02 -0.13515797720E+04  0.13522520383E+04  0.00000000000E+00 0. -1.
          1    1    1    2  502    0 -0.62903693897E+02  0.28351418709E+02  0.15705552976E+04  0.15720701703E+04  0.00000000000E+00 0. -1.
         22    1    3    3    0    0  0.76221066008E+02 -0.37073771123E+02  0.96215984032E+01  0.85303520235E+02  0.00000000000E+00 0.  1.
         22    1    3    3    0    0 -0.90399859179E+01  0.51141674040E+02 -0.26480310205E+02  0.58295788849E+02  0.00000000000E+00 0.  1.
</event>
<event>
 7    1  0.6253338E-006  0.6937737E+02  0.7818608E-02  0.1381644E+00
          2   -1    0    0  502    0  0.00000000000E+00  0.00000000000E+00  0.21174861632E+04  0.21174861632E+04  0.00000000000E+00 0. -1.
          1   -1    0    0  501    0 -0.00000000000E+00 -0.00000000000E+00 -0.26568505309E+03  0.26568505309E+03  0.00000000000E+00 0. -1.
         25    2    1    2    0    0 -0.27921387323E+02 -0.76908309340E+02 -0.38486639655E+02  0.15427648071E+03  0.12500207659E+03 0.  0.
          2    1    1    2  501    0 -0.35036729937E+02  0.47596532812E+02 -0.16354075503E+03  0.17389244071E+03  0.00000000000E+00 0. -1.
          1    1    1    2  502    0  0.62958117260E+02  0.29311776528E+02  0.20538285048E+04  0.20550022948E+04  0.00000000000E+00 0. -1.
         22    1    3    3    0    0 -0.61744365118E+02 -0.91877236261E+02 -0.38764756815E+02  0.11728810484E+03  0.00000000000E+00 0.  1.
         22    1    3    3    0    0  0.33822977796E+02  0.14968926921E+02  0.27811716070E+00  0.36988375867E+02  0.00000000000E+00 0.  1.
</event>
<event>
 7    1  0.6253338E-006  0.6444562E+02  0.7818608E-02  0.1481031E+00
          2   -1    0    0  502    0  0.00000000000E+00  0.00000000000E+00  0.62217232192E+02  0.62217232192E+02  0.00000000000E+00 0. -1.
          1   -1    0    0  501    0 -0.00000000000E+00 -0.00000000000E+00 -0.13840883730E+04  0.13840883730E+04  0.00000000000E+00 0. -1.
         25    2    1    2    0    0 -0.18291957348E+02 -0.38462530549E+02 -0.19668975433E+03  0.23689544291E+03  0.12497451522E+03 0.  0.
          2    1    1    2  501    0  0.51164437180E+01  0.65377794485E+02 -0.11609197945E+04  0.11627704861E+04  0.00000000000E+00 0. -1.
          1    1    1    2  502    0  0.13175513630E+02 -0.26915263936E+02  0.35738408003E+02  0.46639676229E+02  0.00000000000E+00 0. -1.
         22    1    3    3    0    0 -0.57170928686E+02 -0.63226584550E+02 -0.11575659485E+03  0.14375571408E+03  0.00000000000E+00 0.  1.
         22    1    3    3    0    0  0.38878971338E+02  0.24764054001E+02 -0.80933159482E+02  0.93139728830E+02  0.00000000000E+00 0.  1.
</event>
<event>
 7    1  0.6253338E-006  0.3646550E+03  0.7818608E-02  0.1184765E+00
          2   -1    0    0  502    0  0.00000000000E+00  0.00000000000E+00  0.10864613974E+04  0.10864613974E+04  0.00000000000E+00 0. -1.
          1   -1    0    0  501    0 -0.00000000000E+00 -0.00000000000E+00 -0.13078433107E+04  0.13078433107E+04  0.00000000000E+00 0. -1.
         25    2    1    2    0    0  0.23866568979E+03  0.32040283079E+03 -0.21152259347E+02  0.41915469910E+03  0.12499583290E+03 0.  0.
          2    1    1    2  501    0 -0.25919097357E+03 -0.24999615625E+03 -0.10562731262E+04  0.11159708580E+04  0.00000000000E+00 0. -1.
          1    1    1    2  502    0  0.20525283782E+02 -0.70406674542E+02  0.85604347218E+03  0.85917915091E+03  0.00000000000E+00 0. -1.
         22    1    3    3    0    0  0.18852664391E+03  0.19649243249E+03  0.34259277841E+02  0.27445449460E+03  0.00000000000E+00 0. -1.
         22    1    3    3    0    0  0.50139045878E+02  0.12391039830E+03 -0.55411537187E+02  0.14470020450E+03  0.00000000000E+00 0. -1.
</event>
<event>
 7    1  0.6253338E-006  0.5152976E+02  0.7818608E-02  0.1509530E+00
          2   -1    0    0  502    0  0.00000000000E+00  0.00000000000E+00  0.30907223267E+03  0.30907223267E+03  0.00000000000E+00 0. -1.
          1   -1    0    0  501    0 -0.00000000000E+00 -0.00000000000E+00 -0.39682146458E+03  0.39682146458E+03  0.00000000000E+00 0. -1.
         25    2    1    2    0    0  0.15980501397E+02  0.48371324823E+02  0.40628451057E+02  0.14096306620E+03  0.12499901403E+03 0.  0.
          2    1    1    2  501    0  0.25635138419E+02 -0.17024520994E+02 -0.34284615928E+03  0.34422446684E+03  0.00000000000E+00 0. -1.
          1    1    1    2  502    0 -0.41615639816E+02 -0.31346803829E+02  0.21446847632E+03  0.22070616421E+03  0.00000000000E+00 0. -1.
         22    1    3    3    0    0  0.33560085840E+02 -0.32741266691E+02  0.33576103647E+02  0.57668229054E+02  0.00000000000E+00 0. -1.
         22    1    3    3    0    0 -0.17579584443E+02  0.81112591514E+02  0.70523474097E+01  0.83294837146E+02  0.00000000000E+00 0. -1.
</event>
<event>
 7    1  0.6253338E-006  0.7154584E+02  0.7818608E-02  0.1362990E+00
          2   -1    0    0  502    0  0.00000000000E+00  0.00000000000E+00  0.60180216184E+03  0.60180216184E+03  0.00000000000E+00 0. -1.
          1   -1    0    0  501    0 -0.00000000000E+00 -0.00000000000E+00 -0.78163100611E+03  0.78163100611E+03  0.00000000000E+00 0. -1.
         25    2    1    2    0    0  0.47260913655E+00  0.13400392786E+03 -0.62165976218E+02  0.19351226345E+03  0.12500044586E+03 0.  0.
          2    1    1    2  501    0  0.13206857090E+02 -0.68574185125E+02 -0.64983024141E+03  0.65357186490E+03  0.00000000000E+00 0. -1.
          1    1    1    2  502    0 -0.13679466226E+02 -0.65429742732E+02  0.53216737335E+03  0.53634903961E+03  0.00000000000E+00 0. -1.
         22    1    3    3    0    0 -0.11181475936E+02  0.42378742440E+02  0.37461459923E+02  0.57657126138E+02  0.00000000000E+00 0. -1.
         22    1    3    3    0    0  0.11654085073E+02  0.91625185417E+02 -0.99627436141E+02  0.13585513731E+03  0.00000000000E+00 0. -1.
</event>
<event>
 7    1  0.6253338E-006  0.2762442E+02  0.7818608E-02  0.1625996E+00
          2   -1    0    0  502    0  0.00000000000E+00  0.00000000000E+00  0.12146509302E+04  0.12146509302E+04  0.00000000000E+00 0. -1.
          1   -1    0    0  501    0 -0.00000000000E+00 -0.00000000000E+00 -0.78959595920E+03  0.78959595920E+03  0.00000000000E+00 0. -1.
         25    2    1    2    0    0  0.14158807001E+02 -0.49908483181E+02 -0.36529697732E+03  0.38956762450E+03  0.12501889420E+03 0.  0.
          2    1    1    2  501    0 -0.16194190228E+02  0.22368043898E+02 -0.41154232513E+03  0.41246777638E+03  0.00000000000E+00 0. -1.
          1    1    1    2  502    0  0.20353832269E+01  0.27540439282E+02  0.12018942734E+04  0.12022114885E+04  0.00000000000E+00 0. -1.
         22    1    3    3    0    0 -0.21235832905E+02  0.14242404784E-01 -0.29741730171E+03  0.29817446597E+03  0.00000000000E+00 0. -1.
         22    1    3    3    0    0  0.35394639907E+02 -0.49922725585E+02 -0.67879675618E+02  0.91393158529E+02  0.00000000000E+00 0. -1.
</event>
<event>
 7    1  0.6253338E-006  0.6666938E+02  0.7818608E-02  0.1409163E+00
          2   -1    0    0  502    0  0.00000000000E+00  0.00000000000E+00  0.17007715326E+04  0.17007715326E+04  0.00000000000E+00 0. -1.
          1   -1    0    0  501    0 -0.00000000000E+00 -0.00000000000E+00 -0.13480735349E+04  0.13480735349E+04  0.00000000000E+00 0. -1.
         25    2    1    2    0    0  0.11640512207E+01  0.74511322142E+02  0.75499306304E+01  0.14572472900E+03  0.12500161218E+03 0.  0.
          2    1    1    2  501    0 -0.44115385969E+02 -0.50134469631E+02 -0.12777385274E+04  0.12794824644E+04  0.00000000000E+00 0. -1.
          1    1    1    2  502    0  0.42951334748E+02 -0.24376852511E+02  0.16228865944E+04  0.16236378741E+04  0.00000000000E+00 0. -1.
         22    1    3    3    0    0  0.41837117378E+02  0.22562820632E+00 -0.31591806123E+02  0.52425542559E+02  0.00000000000E+00 0.  1.
         22    1    3    3    0    0 -0.40673066157E+02  0.74285693935E+02  0.39141736753E+02  0.93299186438E+02  0.00000000000E+00 0.  1.
</event>
<event>
 7    1  0.6253338E-006  0.2836363E+03  0.7818608E-02  0.1187431E+00
          2   -1    0    0  502    0  0.00000000000E+00  0.00000000000E+00  0.37012950147E+04  0.37012950147E+04  0.00000000000E+00 0. -1.
          1   -1    0    0  501    0 -0.00000000000E+00 -0.00000000000E+00 -0.12381931341E+04  0.12381931341E+04  0.00000000000E+00 0. -1.
         25    2    1    2    0    0  0.25428304326E+03  0.26641341429E+03  0.29070290812E+03  0.48556022327E+03  0.12499830492E+03 0.  0.
          2    1    1    2  501    0 -0.50819193989E+02 -0.76128155456E+02 -0.11330597803E+04  0.11367508752E+04  0.00000000000E+00 0. -1.
          1    1    1    2  502    0 -0.20346384927E+03 -0.19028525883E+03  0.33054587527E+04  0.33171770504E+04  0.00000000000E+00 0. -1.
         22    1    3    3    0    0  0.66487753473E+02  0.48318673487E+02  0.87444673086E+01  0.82654590181E+02  0.00000000000E+00 0.  1.
         22    1    3    3    0    0  0.18779528978E+03  0.21809474080E+03  0.28195844081E+03  0.40290563309E+03  0.00000000000E+00 0.  1.
</event>
<event>
 7    1  0.6253338E-006  0.1178646E+03  0.7818608E-02  0.1247998E+00
          2   -1    0    0  502    0  0.00000000000E+00  0.00000000000E+00  0.79578893341E+03  0.79578893341E+03  0.00000000000E+00 0. -1.
          1   -1    0    0  501    0 -0.00000000000E+00 -0.00000000000E+00 -0.19619574030E+04  0.19619574030E+04  0.00000000000E+00 0. -1.
         25    2    1    2    0    0 -0.28342475787E+02 -0.25867483619E+02  0.38131003727E+02  0.13620750669E+03  0.12500435508E+03 0.  0.
          2    1    1    2  501    0 -0.94680016628E+02  0.67530634411E+02 -0.19051793092E+04  0.19087254628E+04  0.00000000000E+00 0. -1.
          1    1    1    2  502    0  0.12302249241E+03 -0.41663150792E+02  0.70087983586E+03  0.71281336694E+03  0.00000000000E+00 0. -1.
         22    1    3    3    0    0  0.12064378951E+02  0.45706167297E+02  0.48007441847E+01  0.47514735748E+02  0.00000000000E+00 0. -1.
         22    1    3    3    0    0 -0.40406854738E+02 -0.71573650916E+02  0.33330259542E+02  0.88692770937E+02  0.00000000000E+00 0. -1.
</event>
<event>
 7    1  0.6253338E-006  0.3063047E+03  0.7818608E-02  0.1151554E+00
          2   -1    0    0  502    0  0.00000000000E+00  0.00000000000E+00  0.13284651646E+04  0.13284651646E+04  0.00000000000E+00 0. -1.
          1   -1    0    0  501    0 -0.00000000000E+00 -0.00000000000E+00 -0.11100808102E+04  0.11100808102E+04  0.00000000000E+00 0. -1.
         25    2    1    2    0    0 -0.11374185347E+03  0.15436480963E+03  0.24473236580E+03  0.33508870945E+03  0.12499923459E+03 0.  0.
          2    1    1    2  501    0  0.15366479656E+03 -0.27578357384E+03 -0.10373917063E+04  0.10843666362E+04  0.00000000000E+00 0. -1.
          1    1    1    2  502    0 -0.39922943083E+02  0.12141876421E+03  0.10110436949E+04  0.10190906293E+04  0.00000000000E+00 0. -1.
         22    1    3    3    0    0 -0.50889849320E+02 -0.64070569410E+01  0.29446965502E+02  0.59143477407E+02  0.00000000000E+00 0.  1.
         22    1    3    3    0    0 -0.62852004154E+02  0.16077186657E+03  0.21528540029E+03  0.27594523204E+03  0.00000000000E+00 0.  1.
</event>
<event>
 7    1  0.6253338E-006  0.5577182E+02  0.7818608E-02  0.1426227E+00
          2   -1    0    0  502    0  0.00000000000E+00  0.00000000000E+00  0.94518544519E+03  0.94518544519E+03  0.00000000000E+00 0. -1.
          1   -1    0    0  501    0 -0.00000000000E+00 -0.00000000000E+00 -0.11194962547E+03  0.11194962547E+03  0.00000000000E+00 0. -1.
         25    2    1    2    0    0  0.15272843990E+02  0.17996320631E+02  0.30206216414E+03  0.32775567452E+03  0.12500041541E+03 0.  0.
          2    1    1    2  501    0 -0.48587383635E+02  0.27381775200E+02 -0.89881074199E+02  0.10577855624E+03  0.00000000000E+00 0. -1.
          1    1    1    2  502    0  0.33314539645E+02 -0.45378095831E+02  0.62105472978E+03  0.62360083990E+03  0.00000000000E+00 0. -1.
         22    1    3    3    0    0  0.67699922278E+02 -0.55922834242E+01  0.13595384655E+03  0.15198026682E+03  0.00000000000E+00 0.  1.
         22    1    3    3    0    0 -0.52427078288E+02  0.23588604055E+02  0.16610831759E+03  0.17577540770E+03  0.00000000000E+00 0.  1.
</event>
<event>
 7    1  0.6253338E-006  0.1234252E+03  0.7818608E-02  0.1243266E+00
          2   -1    0    0  502    0  0.00000000000E+00  0.00000000000E+00  0.81031843237E+03  0.81031843237E+03  0.00000000000E+00 0. -1.
          1   -1    0    0  501    0 -0.00000000000E+00 -0.00000000000E+00 -0.12639449155E+04  0.12639449155E+04  0.00000000000E+00 0. -1.
         25    2    1    2    0    0  0.34028379080E+02 -0.21898320762E+03  0.12358080857E+03  0.28286444638E+03  0.12501401112E+03 0.  0.
          2    1    1    2  501    0  0.19553321660E+02  0.11481774084E+03 -0.11757483582E+04  0.11815031306E+04  0.00000000000E+00 0. -1.
          1    1    1    2  502    0 -0.53581700740E+02  0.10416546677E+03  0.59854106643E+03  0.60989577088E+03  0.00000000000E+00 0. -1.
         22    1    3    3    0    0 -0.29289114553E+02 -0.18323797909E+02  0.48313329958E+02  0.59395215739E+02  0.00000000000E+00 0.  1.
         22    1    3    3    0    0  0.63317493632E+02 -0.20065940971E+03  0.75267478610E+02  0.22346923064E+03  0.00000000000E+00 0.  1.
</event>
<event>
 7    1  0.6253338E-006  0.7750874E+02  0.7818608E-02  0.1385993E+00
          2   -1    0    0  502    0  0.00000000000E+00  0.00000000000E+00  0.24972987871E+03  0.24972987871E+03  0.00000000000E+00 0. -1.
          1   -1    0    0  501    0 -0.00000000000E+00 -0.00000000000E+00 -0.86663586829E+03  0.86663586829E+03  0.00000000000E+00 0. -1.
         25    2    1    2    0    0 -0.12404819577E+03  0.24414129364E+02 -0.12140456785E+03  0.21528310606E+03  0.12499496819E+03 0.  0.
          2    1    1    2  501    0  0.74162186904E+02 -0.13491039703E+02 -0.69300048103E+03  0.69708801799E+03  0.00000000000E+00 0. -1.
          1    1    1    2  502    0  0.49886008868E+02 -0.10923089661E+02  0.19749905930E+03  0.20399462295E+03  0.00000000000E+00 0. -1.
         22    1    3    3    0    0 -0.84244854392E+02  0.65587489767E+01  0.18665431032E+01  0.84520391994E+02  0.00000000000E+00 0. -1.
         22    1    3    3    0    0 -0.39803341380E+02  0.17855380387E+02 -0.12327111095E+03  0.13076271406E+03  0.00000000000E+00 0. -1.
</event>
<event>
 7    1  0.6253338E-006  0.4981442E+02  0.7818608E-02  0.1455253E+00
          2   -1    0    0  502    0  0.00000000000E+00  0.00000000000E+00  0.10986036399E+04  0.10986036399E+04  0.00000000000E+00 0. -1.
          1   -1    0    0  501    0 -0.00000000000E+00 -0.00000000000E+00 -0.22713574451E+03  0.22713574451E+03  0.00000000000E+00 0. -1.
         25    2    1    2    0    0 -0.83249157887E+02  0.47225828896E+02  0.32119434647E+03  0.35770162988E+03  0.12499578638E+03 0.  0.
          2    1    1    2  501    0  0.40774812005E+02 -0.27925269712E+02 -0.20522925355E+03  0.21109583722E+03  0.00000000000E+00 0. -1.
          1    1    1    2  502    0  0.42474345883E+02 -0.19300559184E+02  0.75550280242E+03  0.75694191727E+03  0.00000000000E+00 0. -1.
         22    1    3    3    0    0 -0.66682859104E+02  0.85863028166E+02  0.27241356965E+03  0.29330567030E+03  0.00000000000E+00 0.  1.
         22    1    3    3    0    0 -0.16566298783E+02 -0.38637199271E+02  0.48780776818E+02  0.64395959577E+02  0.00000000000E+00 0.  1.
</event>
<event>
 7    1  0.6253338E-006  0.8475360E+02  0.7818608E-02  0.1433813E+00
          2   -1    0    0  502    0  0.00000000000E+00  0.00000000000E+00  0.17559445517E+03  0.17559445517E+03  0.00000000000E+00 0. -1.
          1   -1    0    0  501    0 -0.00000000000E+00 -0.00000000000E+00 -0.27450304255E+03  0.27450304255E+03  0.00000000000E+00 0. -1.
         25    2    1    2    0    0 -0.33420397422E+02 -0.64421771586E+02 -0.11948587674E+03  0.18753692726E+03  0.12500454683E+03 0.  0.
          2    1    1    2  501    0 -0.31279314250E+02  0.74437553283E+01 -0.10523880031E+03  0.11004094731E+03  0.00000000000E+00 0. -1.
          1    1    1    2  502    0  0.64699711672E+02  0.56978016257E+02  0.12581608967E+03  0.15251962315E+03  0.00000000000E+00 0. -1.
         22    1    3    3    0    0 -0.57481282588E+02 -0.89233179490E+02 -0.10719204217E+03  0.15085354511E+03  0.00000000000E+00 0. -1.
         22    1    3    3    0    0  0.24060885167E+02  0.24811407904E+02 -0.12293834575E+02  0.36683382147E+02  0.00000000000E+00 0. -1.
</event>
<event>
 7    1  0.6253338E-006  0.9474459E+02  0.7818608E-02  0.1294127E+00
          2   -1    0    0  502    0  0.00000000000E+00  0.00000000000E+00  0.25004647829E+04  0.25004647829E+04  0.00000000000E+00 0. -1.
          1   -1    0    0  501    0 -0.00000000000E+00 -0.00000000000E+00 -0.16925128941E+03  0.16925128941E+03  0.00000000000E+00 0. -1.
         25    2    1    2    0    0  0.16981195101E+02  0.60316711729E+02  0.53926184327E+03  0.55709489764E+03  0.12499969067E+03 0.  0.
          2    1    1    2  501    0  0.75688979639E+02 -0.60053176528E+02 -0.14456963324E+03  0.17388382474E+03  0.00000000000E+00 0. -1.
          1    1    1    2  502    0 -0.92670174739E+02 -0.26353520059E+00  0.19365212835E+04  0.19387373500E+04  0.00000000000E+00 0. -1.
         22    1    3    3    0    0 -0.52995114139E+02  0.13683031772E+02  0.24596393939E+03  0.25198009239E+03  0.00000000000E+00 0. -1.
         22    1    3    3    0    0  0.69976309240E+02  0.46633679957E+02  0.29329790388E+03  0.30511480525E+03  0.00000000000E+00 0. -1.
</event>
<event>
 7    1  0.6253338E-006  0.1306784E+03  0.7818608E-02  0.1259582E+00
          2   -1    0    0  502    0  0.00000000000E+00  0.00000000000E+00  0.16681792566E+03  0.16681792566E+03  0.00000000000E+00 0. -1.
          1   -1    0    0  501    0 -0.00000000000E+00 -0.00000000000E+00 -0.81643773704E+03  0.81643773704E+03  0.00000000000E+00 0. -1.
         25    2    1    2    0    0 -0.34256906581E+02 -0.50558271302E+02 -0.10772823469E+03  0.17594713857E+03  0.12498939385E+03 0.  0.
          2    1    1    2  501    0 -0.29639984034E+02 -0.88674370329E+02 -0.62572781641E+03  0.63267446040E+03  0.00000000000E+00 0. -1.
          1    1    1    2  502    0  0.63896890615E+02  0.13923264163E+03  0.83836239718E+02  0.17463406373E+03  0.00000000000E+00 0. -1.
         22    1    3    3    0    0  0.30092389428E+02 -0.50013195629E+02 -0.93211569286E+02  0.10997849011E+03  0.00000000000E+00 0.  1.
         22    1    3    3    0    0 -0.64349296009E+02 -0.54507567386E+00 -0.14516665403E+02  0.65968648454E+02  0.00000000000E+00 0.  1.
</event>
<event>
 7    1  0.6253338E-006  0.5271348E+02  0.7818608E-02  0.1493096E+00
          2   -1    0    0  502    0  0.00000000000E+00  0.00000000000E+00  0.20944208150E+04  0.20944208150E+04  0.00000000000E+00 0. -1.
          1   -1    0    0  501    0 -0.00000000000E+00 -0.00000000000E+00 -0.34263931679E+03  0.34263931679E+03  0.00000000000E+00 0. -1.
         25    2    1    2    0    0  0.12245958611E+02 -0.15545888913E+02  0.21720413169E+03  0.25138453534E+03  0.12499964648E+03 0.  0.
          2    1    1    2  501    0  0.19886917505E+02 -0.27171554321E+02 -0.32429321678E+03  0.32603661344E+03  0.00000000000E+00 0. -1.
          1    1    1    2  502    0 -0.32132876115E+02  0.42717443235E+02  0.18588705833E+04  0.18596389830E+04  0.00000000000E+00 0. -1.
         22    1    3    3    0    0  0.13690430747E+02 -0.33088769451E+02  0.22796053361E+03  0.23075593045E+03  0.00000000000E+00 0.  1.
         22    1    3    3    0    0 -0.14444721363E+01  0.17542880538E+02 -0.10756401916E+02  0.20628604885E+02  0.00000000000E+00 0.  1.
</event>
<event>
 7    1  0.6253338E-006  0.6215849E+02  0.7818608E-02  0.1494156E+00
          2   -1    0    0  502    0  0.00000000000E+00  0.00000000000E+00  0.30300164668E+03  0.30300164668E+03  0.00000000000E+00 0. -1.
          1   -1    0    0  501    0 -0.00000000000E+00 -0.00000000000E+00 -0.91856923782E+02  0.91856923782E+02  0.00000000000E+00 0. -1.
         25    2    1    2    0    0 -0.79660814375E+02 -0.24100856648E+02  0.32044148426E+02  0.15355445259E+03  0.12500178329E+03 0.  0.
          2    1    1    2  501    0  0.55545777566E+02  0.92018501731E+01 -0.35998394293E+01  0.56417783508E+02  0.00000000000E+00 0. -1.
          1    1    1    2  502    0  0.24115036809E+02  0.14899006474E+02  0.18270041390E+03  0.18488633436E+03  0.00000000000E+00 0. -1.
         22    1    3    3    0    0 -0.10457365172E+03  0.11462454895E+02  0.32581727692E+02  0.11012994818E+03  0.00000000000E+00 0.  1.
         22    1    3    3    0    0  0.24912837343E+02 -0.35563311542E+02 -0.53757926652E+00  0.43424504416E+02  0.00000000000E+00 0.  1.
</event>
<event>
 7    1  0.6253338E-006  0.3670423E+02  0.7818608E-02  0.1558472E+00
          2   -1    0    0  502    0  0.00000000000E+00  0.00000000000E+00  0.14002667757E+04  0.14002667757E+04  0.00000000000E+00 0. -1.
          1   -1    0    0  501    0 -0.00000000000E+00 -0.00000000000E+00 -0.49293192498E+02  0.49293192498E+02  0.00000000000E+00 0. -1.
         25    2    1    2    0    0 -0.93694007024E+01 -0.64776450047E+02  0.43704427846E+03  0.45925710047E+03  0.12500243536E+03 0.  0.
          2    1    1    2  501    0 -0.31368998501E+01  0.36046656910E+02 -0.29296795473E+02  0.46556458628E+02  0.00000000000E+00 0. -1.
          1    1    1    2  502    0  0.12506300552E+02  0.28729793137E+02  0.94322610020E+03  0.94374640908E+03  0.00000000000E+00 0. -1.
         22    1    3    3    0    0 -0.62169731950E+02 -0.45990418690E+02  0.32377186228E+03  0.33287897648E+03  0.00000000000E+00 0. -1.
         22    1    3    3    0    0  0.52800331247E+02 -0.18786031357E+02  0.11327241618E+03  0.12637812398E+03  0.00000000000E+00 0. -1.
</event>
<event>
 7    1  0.6253338E-006  0.3542523E+02  0.7818608E-02  0.1589368E+00
          2   -1    0    0  502    0  0.00000000000E+00  0.00000000000E+00  0.43901358150E+02  0.43901358150E+02  0.00000000000E+00 0. -1.
          1   -1    0    0  501    0 -0.00000000000E+00 -0.00000000000E+00 -0.67771064831E+03  0.67771064831E+03  0.00000000000E+00 0. -1.
         25    2    1    2    0    0  0.49526605051E+01  0.12019836545E+02 -0.19935177804E+03  0.23565824184E+03  0.12499868087E+03 0.  0.
          2    1    1    2  501    0 -0.30595422652E+02 -0.19760274223E+02 -0.45230356447E+03  0.45376763079E+03  0.00000000000E+00 0. -1.
          1    1    1    2  502    0  0.25642762147E+02  0.77404376787E+01  0.17846052356E+02  0.32186133826E+02  0.00000000000E+00 0. -1.
         22    1    3    3    0    0  0.93517318758E+01  0.66743643437E+02 -0.82323155415E+02  0.10639206148E+03  0.00000000000E+00 0.  1.
         22    1    3    3    0    0 -0.43990713707E+01 -0.54723806893E+02 -0.11702862263E+03  0.12926618036E+03  0.00000000000E+00 0.  1.
</event>
<event>
 7    1  0.6253338E-006  0.6728847E+02  0.7818608E-02  0.1439247E+00
          2   -1    0    0  502    0  0.00000000000E+00  0.00000000000E+00  0.33732021926E+02  0.33732021926E+02  0.00000000000E+00 0. -1.
          1   -1    0    0  501    0 -0.00000000000E+00 -0.00000000000E+00 -0.18427646454E+04  0.18427646454E+04  0.00000000000E+00 0. -1.
         25    2    1    2    0    0  0.79441656103E+01 -0.94052360810E+02 -0.13339444169E+04  0.13431100314E+04  0.12501157012E+03 0.  0.
          2    1    1    2  501    0 -0.25140056413E+02  0.29657067312E+02 -0.46423126870E+03  0.46585645312E+03  0.00000000000E+00 0. -1.
          1    1    1    2  502    0  0.17195890803E+02  0.64395293499E+02 -0.10856937810E+02  0.67530182762E+02  0.00000000000E+00 0. -1.
         22    1    3    3    0    0 -0.23172874031E+02 -0.75763837161E+02 -0.12390937787E+04  0.12416241514E+04  0.00000000000E+00 0. -1.
         22    1    3    3    0    0  0.31117039642E+02 -0.18288523649E+02 -0.94850638265E+02  0.10148587997E+03  0.00000000000E+00 0. -1.
</event>
<event>
 7    1  0.6253338E-006  0.2596123E+02  0.7818608E-02  0.1652614E+00
          2   -1    0    0  502    0  0.00000000000E+00  0.00000000000E+00  0.83227269829E+03  0.83227269829E+03  0.00000000000E+00 0. -1.
          1   -1    0    0  501    0 -0.00000000000E+00 -0.00000000000E+00 -0.74282910486E+02  0.74282910486E+02  0.00000000000E+00 0. -1.
         25    2    1    2    0    0  0.33157097469E+02  0.68693241788E+01  0.27119693433E+03  0.30053043396E+03  0.12499673521E+03 0.  0.
          2    1    1    2  501    0 -0.21038747421E+02  0.15261982791E+02 -0.56476419992E+02  0.62170274463E+02  0.00000000000E+00 0. -1.
          1    1    1    2  502    0 -0.12118350048E+02 -0.22131306970E+02  0.54326927346E+03  0.54385490036E+03  0.00000000000E+00 0. -1.
         22    1    3    3    0    0  0.63146207459E+02 -0.28116993997E+02  0.22460264813E+03  0.23499863493E+03  0.00000000000E+00 0.  1.
         22    1    3    3    0    0 -0.29989109990E+02  0.34986318176E+02  0.46594286201E+02  0.65531799030E+02  0.00000000000E+00 0.  1.
</event>
<event>
 7    1  0.6253338E-006  0.6113262E+02  0.7818608E-02  0.1450867E+00
          2   -1    0    0  502    0  0.00000000000E+00  0.00000000000E+00  0.49673971197E+03  0.49673971197E+03  0.00000000000E+00 0. -1.
          1   -1    0    0  501    0 -0.00000000000E+00 -0.00000000000E+00 -0.41812101017E+03  0.41812101017E+03  0.00000000000E+00 0. -1.
         25    2    1    2    0    0  0.33646409042E+02  0.34639548754E+02 -0.13869678934E+03  0.19288515176E+03  0.12504360526E+03 0.  0.
          2    1    1    2  501    0 -0.63764297617E+02 -0.94562741207E+01 -0.24737182312E+03  0.25563279455E+03  0.00000000000E+00 0. -1.
          1    1    1    2  502    0  0.30117888575E+02 -0.25183274633E+02  0.46468731426E+03  0.46634277583E+03  0.00000000000E+00 0. -1.
         22    1    3    3    0    0  0.53820266763E+02  0.43916262749E+02 -0.15191560006E+03  0.16704373317E+03  0.00000000000E+00 0.  1.
         22    1    3    3    0    0 -0.20173857721E+02 -0.92767139949E+01  0.13218810724E+02  0.25841418592E+02  0.00000000000E+00 0.  1.
</event>
<event>
 7    1  0.6253338E-006  0.1709356E+03  0.7818608E-02  0.1394344E+00
          2   -1    0    0  502    0  0.00000000000E+00  0.00000000000E+00  0.23518533064E+04  0.23518533064E+04  0.00000000000E+00 0. -1.
          1   -1    0    0  501    0 -0.00000000000E+00 -0.00000000000E+00 -0.15106016301E+03  0.15106016301E+03  0.00000000000E+00 0. -1.
         25    2    1    2    0    0 -0.10531949223E+03 -0.13623192534E+03  0.80009784648E+03  0.82790893140E+03  0.12500120726E+03 0.  0.
          2    1    1    2  501    0  0.86714002855E+02  0.14730977140E+03 -0.83784859523E+02  0.19036646167E+03  0.00000000000E+00 0. -1.
          1    1    1    2  502    0  0.18605489374E+02 -0.11077846059E+02  0.14844801564E+04  0.14846380764E+04  0.00000000000E+00 0. -1.
         22    1    3    3    0    0 -0.70141222951E+02 -0.15675025159E+03  0.62778990515E+03  0.65085374512E+03  0.00000000000E+00 0.  1.
         22    1    3    3    0    0 -0.35178269278E+02  0.20518326244E+02  0.17230794134E+03  0.17705518628E+03  0.00000000000E+00 0.  1.
</event>
<event>
 7    1  0.6253338E-006  0.6663367E+02  0.7818608E-02  0.1416913E+00
          2   -1    0    0  502    0  0.00000000000E+00  0.00000000000E+00  0.47284780108E+03  0.47284780108E+03  0.00000000000E+00 0. -1.
          1   -1    0    0  501    0 -0.00000000000E+00 -0.00000000000E+00 -0.81712123709E+03  0.81712123709E+03  0.00000000000E+00 0. -1.
         25    2    1    2    0    0  0.50793956426E+02  0.93827050219E+02  0.19411205359E+03  0.25433819188E+03  0.12499954056E+03 0.  0.
          2    1    1    2  501    0 -0.13978758888E+02 -0.44376203800E+02 -0.78248473041E+03  0.78386670199E+03  0.00000000000E+00 0. -1.
          1    1    1    2  502    0 -0.36815197538E+02 -0.49450846420E+02  0.24409924082E+03  0.25176414429E+03  0.00000000000E+00 0. -1.
         22    1    3    3    0    0  0.89127535487E+02  0.88118079562E+02  0.14211878800E+03  0.18948948105E+03  0.00000000000E+00 0.  1.
         22    1    3    3    0    0 -0.38333579061E+02  0.57089706573E+01  0.51993265590E+02  0.64848710830E+02  0.00000000000E+00 0.  1.
</event>
<event>
 7    1  0.6253338E-006  0.8775428E+02  0.7818608E-02  0.1381851E+00
          2   -1    0    0  502    0  0.00000000000E+00  0.00000000000E+00  0.67692358874E+03  0.67692358874E+03  0.00000000000E+00 0. -1.
          1   -1    0    0  501    0 -0.00000000000E+00 -0.00000000000E+00 -0.23478166125E+03  0.23478166125E+03  0.00000000000E+00 0. -1.
         25    2    1    2    0    0  0.43936292735E+02  0.11625833539E+03  0.22059295151E+03  0.28236776104E+03  0.12499561532E+03 0.  0.
          2    1    1    2  501    0 -0.32070450620E+02 -0.33872886032E+02 -0.19707427001E+03  0.20251951538E+03  0.00000000000E+00 0. -1.
          1    1    1    2  502    0 -0.11865842115E+02 -0.82385449360E+02  0.41862324599E+03  0.42681797356E+03  0.00000000000E+00 0. -1.
         22    1    3    3    0    0  0.78342088239E+02  0.72959900003E+02  0.19267107386E+03  0.22041500062E+03  0.00000000000E+00 0.  1.
         22    1    3    3    0    0 -0.34405795504E+02  0.43298435389E+02  0.27921877653E+02  0.61952760416E+02  0.00000000000E+00 0.  1.
</event>
<event>
 7    1  0.6253338E-006  0.4757291E+02  0.7818608E-02  0.1475736E+00
          2   -1    0    0  502    0  0.00000000000E+00  0.00000000000E+00  0.16470549327E+04  0.16470549327E+04  0.00000000000E+00 0. -1.
          1   -1    0    0  501    0 -0.00000000000E+00 -0.00000000000E+00 -0.70206172566E+02  0.70206172566E+02  0.00000000000E+00 0. -1.
         25    2    1    2    0    0 -0.87307210931E+01  0.55671191986E+02  0.96764415447E+03  0.97731054803E+03  0.12500076197E+03 0.  0.
          2    1    1    2  501    0  0.39416380271E+02 -0.26780260931E+02 -0.55932343468E+02  0.73479660145E+02  0.00000000000E+00 0. -1.
          1    1    1    2  502    0 -0.30685659178E+02 -0.28890931055E+02  0.66513694909E+03  0.66647089706E+03  0.00000000000E+00 0. -1.
         22    1    3    3    0    0  0.54141116688E+02  0.25773189889E+02  0.29226667017E+03  0.29835436032E+03  0.00000000000E+00 0. -1.
         22    1    3    3    0    0 -0.62871837781E+02  0.29898002097E+02  0.67537748431E+03  0.67895618771E+03  0.00000000000E+00 0. -1.
</event>
<event>
 7    1  0.6253338E-006  0.5119726E+02  0.7818608E-02  0.1530738E+00
          2   -1    0    0  502    0  0.00000000000E+00  0.00000000000E+00  0.12738644089E+03  0.12738644089E+03  0.00000000000E+00 0. -1.
          1   -1    0    0  501    0 -0.00000000000E+00 -0.00000000000E+00 -0.64558631394E+03  0.64558631394E+03  0.00000000000E+00 0. -1.
         25    2    1    2    0    0  0.36466662843E+02 -0.49209795989E+02 -0.40236332599E+02  0.14489801227E+03  0.12500019992E+03 0.  0.
          2    1    1    2  501    0 -0.96060207764E+01  0.50192428243E+02 -0.54938826351E+03  0.55175992929E+03  0.00000000000E+00 0. -1.
          1    1    1    2  502    0 -0.26860642067E+02 -0.98263225393E+00  0.71424723063E+02  0.76314813261E+02  0.00000000000E+00 0. -1.
         22    1    3    3    0    0  0.58406084154E+02  0.13549221678E+02  0.11005774582E+02  0.60958831587E+02  0.00000000000E+00 0.  1.
         22    1    3    3    0    0 -0.21939421311E+02 -0.62759017667E+02 -0.51242107180E+02  0.83939180686E+02  0.00000000000E+00 0.  1.
</event>
<event>
 7    1  0.6253338E-006  0.5067432E+02  0.7818608E-02  0.1537449E+00
          2   -1    0    0  502    0  0.00000000000E+00  0.00000000000E+00  0.11486857737E+03  0.11486857737E+03  0.00000000000E+00 0. -1.
          1   -1    0    0  501    0 -0.00000000000E+00 -0.00000000000E+00 -0.25941428617E+03  0.25941428617E+03  0.00000000000E+00 0. -1.
         25    2    1    2    0    0 -0.31740822435E+01 -0.46429879130E+02 -0.19654267541E+03  0.23752657765E+03  0.12499617338E+03 0.  0.
          2    1    1    2  501    0  0.28948697105E+02  0.49740403023E+02 -0.19435134867E+02  0.60744211446E+02  0.00000000000E+00 0. -1.
          1    1    1    2  502    0 -0.25774614861E+02 -0.33105238936E+01  0.71432101477E+02  0.76012074443E+02  0.00000000000E+00 0. -1.
         22    1    3    3    0    0  0.38620246384E+02 -0.13738139844E+02 -0.81360628277E+01  0.41790614203E+02  0.00000000000E+00 0.  1.
         22    1    3    3    0    0 -0.41794328627E+02 -0.32691739286E+02 -0.18840661258E+03  0.19573596345E+03  0.00000000000E+00 0.  1.
</event>
<event>
 7    1  0.6253338E-006  0.1639910E+03  0.7818608E-02  0.1305435E+00
          2   -1    0    0  502    0  0.00000000000E+00  0.00000000000E+00  0.22730456185E+04  0.22730456185E+04  0.00000000000E+00 0. -1.
          1   -1    0    0  501    0 -0.00000000000E+00 -0.00000000000E+00 -0.39560874212E+03  0.39560874212E+03  0.00000000000E+00 0. -1.
         25    2    1    2    0    0 -0.10862627944E+03 -0.70505317391E+02  0.61200940818E+03  0.63792712435E+03  0.12499932763E+03 0.  0.
          2    1    1    2  501    0 -0.32889161154E+02 -0.35287659425E+02 -0.37637048860E+03  0.37944915406E+03  0.00000000000E+00 0. -1.
          1    1    1    2  502    0  0.14151544060E+03  0.10579297682E+03  0.16417979568E+04  0.16512780822E+04  0.00000000000E+00 0. -1.
         22    1    3    3    0    0 -0.76202030866E+02  0.17327769674E+02  0.37578937262E+03  0.38382893805E+03  0.00000000000E+00 0. -1.
         22    1    3    3    0    0 -0.32424248579E+02 -0.87833087065E+02  0.23622003556E+03  0.25409818630E+03  0.00000000000E+00 0. -1.
</event>
<event>
 7    1  0.6253338E-006  0.1193911E+03  0.7818608E-02  0.1380595E+00
          2   -1    0    0  502    0  0.00000000000E+00  0.00000000000E+00  0.92758409115E+03  0.92758409115E+03  0.00000000000E+00 0. -1.
          1   -1    0    0  501    0 -0.00000000000E+00 -0.00000000000E+00 -0.85604458717E+03  0.85604458717E+03  0.00000000000E+00 0. -1.
         25    2    1    2    0    0 -0.50099564928E+02 -0.14423445337E+03  0.55591607861E+02  0.20500900115E+03  0.12499887897E+03 0.  0.
          2    1    1    2  501    0  0.41870677238E+02  0.11058799191E+03 -0.77648136189E+03  0.78543374191E+03  0.00000000000E+00 0. -1.
          1    1    1    2  502    0  0.82288876892E+01  0.33646461462E+02  0.79242925800E+03  0.79318593526E+03  0.00000000000E+00 0. -1.
         22    1    3    3    0    0 -0.11418562763E+02 -0.48086776578E+02  0.84077843532E+02  0.97528485225E+02  0.00000000000E+00 0.  1.
         22    1    3    3    0    0 -0.38681002164E+02 -0.96147676794E+02 -0.28486235671E+02  0.10748051593E+03  0.00000000000E+00 0.  1.
</event>
<event>
 7    1  0.6253338E-006  0.8254148E+02  0.7818608E-02  0.1382464E+00
          2   -1    0    0  502    0  0.00000000000E+00  0.00000000000E+00  0.10174370764E+04  0.10174370764E+04  0.00000000000E+00 0. -1.
          1   -1    0    0  501    0 -0.00000000000E+00 -0.00000000000E+00 -0.35141687509E+04  0.35141687509E+04  0.00000000000E+00 0. -1.
         25    2    1    2    0    0  0.10957614798E+03 -0.52640168060E+01  0.48602529013E+02  0.17325116314E+03  0.12497646828E+03 0.  0.
          2    1    1    2  501    0 -0.36899221815E+02 -0.32763446484E+02 -0.34498121493E+04  0.34501650485E+04  0.00000000000E+00 0. -1.
          1    1    1    2  502    0 -0.72676926163E+02  0.38027463290E+02  0.90447794578E+03  0.90818961565E+03  0.00000000000E+00 0. -1.
         22    1    3    3    0    0  0.39275611724E+02 -0.50019404094E+02 -0.18525775604E+02  0.66239858272E+02  0.00000000000E+00 0.  1.
         22    1    3    3    0    0  0.70300536254E+02  0.44755387288E+02  0.67128304617E+02  0.10701130487E+03  0.00000000000E+00 0.  1.
</event>
<event>
 7    1  0.6253338E-006  0.1046909E+03  0.7818608E-02  0.1284171E+00
          2   -1    0    0  502    0  0.00000000000E+00  0.00000000000E+00  0.14076318782E+04  0.14076318782E+04  0.00000000000E+00 0. -1.
          1   -1    0    0  501    0 -0.00000000000E+00 -0.00000000000E+00 -0.88014581518E+02  0.88014581518E+02  0.00000000000E+00 0. -1.
         25    2    1    2    0    0  0.52994212108E+02 -0.12036076891E+03  0.24995980325E+03  0.30887006759E+03  0.12500285679E+03 0.  0.
          2    1    1    2  501    0 -0.97613273440E+02  0.39820742537E+02 -0.75012212307E+01  0.10568969206E+03  0.00000000000E+00 0. -1.
          1    1    1    2  502    0  0.44619061332E+02  0.80540026370E+02  0.10771587147E+04  0.10810867001E+04  0.00000000000E+00 0. -1.
         22    1    3    3    0    0  0.66869512463E+02 -0.73465206972E+02  0.23889802029E+03  0.25872945799E+03  0.00000000000E+00 0.  1.
         22    1    3    3    0    0 -0.13875300355E+02 -0.46895561935E+02  0.11061782959E+02  0.50140609603E+02  0.00000000000E+00 0.  1.
</event>
<event>
 7    1  0.6253338E-006  0.1099836E+03  0.7818608E-02  0.1462441E+00
          2   -1    0    0  502    0  0.00000000000E+00  0.00000000000E+00  0.72632025098E+03  0.72632025098E+03  0.00000000000E+00 0. -1.
          1   -1    0    0  501    0 -0.00000000000E+00 -0.00000000000E+00 -0.78234435047E+03  0.78234435047E+03  0.00000000000E+00 0. -1.
         25    2    1    2    0    0  0.12190160563E+03  0.40724416937E+02 -0.45187513970E+03  0.48614220950E+03  0.12499850557E+03 0.  0.
          2    1    1    2  501    0 -0.15819810590E+02 -0.12324621385E+02 -0.30875712553E+03  0.30940770072E+03  0.00000000000E+00 0. -1.
          1    1    1    2  502    0 -0.10608179504E+03 -0.28399795552E+02  0.70460816573E+03  0.71311469123E+03  0.00000000000E+00 0. -1.
         22    1    3    3    0    0 -0.23014980916E+02 -0.38271352681E+01 -0.31041774166E+02  0.38832049319E+02  0.00000000000E+00 0. -1.
         22    1    3    3    0    0  0.14491658654E+03  0.44551552205E+02 -0.42083336553E+03  0.44731016019E+03  0.00000000000E+00 0. -1.
</event>
<event>
 7    1  0.6253338E-006  0.1766964E+03  0.7818608E-02  0.1333474E+00
          2   -1    0    0  502    0  0.00000000000E+00  0.00000000000E+00  0.32353390920E+04  0.32353390920E+04  0.00000000000E+00 0. -1.
          1   -1    0    0  501    0 -0.00000000000E+00 -0.00000000000E+00 -0.45907614927E+02  0.45907614927E+02  0.00000000000E+00 0. -1.
         25    2    1    2    0    0 -0.13286913852E+03 -0.96752755774E+02  0.49441359410E+03  0.53580314385E+03  0.12499961286E+03 0.  0.
          2    1    1    2  501    0  0.10174377276E+02 -0.33322203218E+02 -0.86262152167E+01  0.35892879088E+02  0.00000000000E+00 0. -1.
          1    1    1    2  502    0  0.12269476124E+03  0.13007495899E+03  0.27036440982E+04  0.27095506840E+04  0.00000000000E+00 0. -1.
         22    1    3    3    0    0 -0.95700246425E+02 -0.22538774143E+01  0.16141435288E+03  0.18766515511E+03  0.00000000000E+00 0.  1.
         22    1    3    3    0    0 -0.37168892096E+02 -0.94498878359E+02  0.33299924122E+03  0.34813798874E+03  0.00000000000E+00 0.  1.
</event>
<event>
 7    1  0.6253338E-006  0.1791528E+03  0.7818608E-02  0.1261156E+00
          2   -1    0    0  502    0  0.00000000000E+00  0.00000000000E+00  0.10541493050E+03  0.10541493050E+03  0.00000000000E+00 0. -1.
          1   -1    0    0  501    0 -0.00000000000E+00 -0.00000000000E+00 -0.10009379246E+04  0.10009379246E+04  0.00000000000E+00 0. -1.
         25    2    1    2    0    0  0.14527405304E+03 -0.41387862200E+02 -0.15516630315E+03  0.25003805308E+03  0.12499976291E+03 0.  0.
          2    1    1    2  501    0  0.38542214903E+02 -0.54990974771E+02 -0.60457869852E+03  0.60829673050E+03  0.00000000000E+00 0. -1.
          1    1    1    2  502    0 -0.18381626795E+03  0.96378836970E+02 -0.13577799243E+03  0.24801807153E+03  0.00000000000E+00 0. -1.
         22    1    3    3    0    0 -0.99550118771E+01 -0.82867066847E+01 -0.67471951068E+02  0.68703973321E+02  0.00000000000E+00 0.  1.
         22    1    3    3    0    0  0.15522906492E+03 -0.33101155515E+02 -0.87694352084E+02  0.18133407975E+03  0.00000000000E+00 0.  1.
</event>
<event>
 7    1  0.6253338E-006  0.1277915E+03  0.7818608E-02  0.1270198E+00
          2   -1    0    0  502    0  0.00000000000E+00  0.00000000000E+00  0.18560223621E+04  0.18560223621E+04  0.00000000000E+00 0. -1.
          1   -1    0    0  501    0 -0.00000000000E+00 -0.00000000000E+00 -0.34899315082E+03  0.34899315082E+03  0.00000000000E+00 0. -1.
         25    2    1    2    0    0  0.14951511579E+03 -0.10320910144E+03  0.21612571120E+03  0.30877891401E+03  0.12500882460E+03 0.  0.
          2    1    1    2  501    0 -0.25506398356E+02  0.82348485656E+02 -0.29398649901E+03  0.30636564927E+03  0.00000000000E+00 0. -1.
          1    1    1    2  502    0 -0.12400871743E+03  0.20860615784E+02  0.15848899991E+04  0.15898709496E+04  0.00000000000E+00 0. -1.
         22    1    3    3    0    0  0.94945010068E+02 -0.18774924053E+01  0.51844370637E+02  0.10819389392E+03  0.00000000000E+00 0. -1.
         22    1    3    3    0    0  0.54570105720E+02 -0.10133160903E+03  0.16428134057E+03  0.20058502010E+03  0.00000000000E+00 0. -1.
</event>
<event>
 7    1  0.6253338E-006  0.8436099E+02  0.7818608E-02  0.1471396E+00
          2   -1    0    0  502    0  0.00000000000E+00  0.00000000000E+00  0.14717590992E+04  0.14717590992E+04  0.00000000000E+00 0. -1.
          1   -1    0    0  501    0 -0.00000000000E+00 -0.00000000000E+00 -0.69097749573E+02  0.69097749573E+02  0.00000000000E+00 0. -1.
         25    2    1    2    0    0 -0.60369920389E+02 -0.35841587557E+02  0.65482041218E+03  0.67033459379E+03  0.12501819360E+03 0.  0.
          2    1    1    2  501    0 -0.23737047875E+02  0.61217615011E+01 -0.56322741071E+02  0.61426171682E+02  0.00000000000E+00 0. -1.
          1    1    1    2  502    0  0.84106968264E+02  0.29719826056E+02  0.80416367850E+03  0.80909608328E+03  0.00000000000E+00 0. -1.
         22    1    3    3    0    0 -0.74980444927E+02  0.21243003437E+02  0.46792573300E+03  0.47437097711E+03  0.00000000000E+00 0. -1.
         22    1    3    3    0    0  0.14610524538E+02 -0.57084590995E+02  0.18689467918E+03  0.19596361668E+03  0.00000000000E+00 0. -1.
</event>
<event>
 7    1  0.6253338E-006  0.8102688E+02  0.7818608E-02  0.1379097E+00
          2   -1    0    0  502    0  0.00000000000E+00  0.00000000000E+00  0.77175515469E+02  0.77175515469E+02  0.00000000000E+00 0. -1.
          1   -1    0    0  501    0 -0.00000000000E+00 -0.00000000000E+00 -0.88524640057E+03  0.88524640057E+03  0.00000000000E+00 0. -1.
         25    2    1    2    0    0 -0.11666848803E+03  0.17820424123E+01 -0.23660584605E+03  0.29192777095E+03  0.12499914115E+03 0.  0.
          2    1    1    2  501    0  0.43577008475E+02 -0.27755806816E+02 -0.58875800324E+03  0.59102058074E+03  0.00000000000E+00 0. -1.
          1    1    1    2  502    0  0.73091479559E+02  0.25973764404E+02  0.17292964187E+02  0.79473564358E+02  0.00000000000E+00 0. -1.
         22    1    3    3    0    0 -0.96400210919E+02 -0.38083030408E+02 -0.85564222369E+02  0.13440444196E+03  0.00000000000E+00 0.  1.
         22    1    3    3    0    0 -0.20268277115E+02  0.39865072820E+02 -0.15104162368E+03  0.15752332898E+03  0.00000000000E+00 0.  1.
</event>
<event>
 7    1  0.6253338E-006  0.6533966E+02  0.7818608E-02  0.1477861E+00
          2   -1    0    0  502    0  0.00000000000E+00  0.00000000000E+00  0.48745198493E+03  0.48745198493E+03  0.00000000000E+00 0. -1.
          1   -1    0    0  501    0 -0.00000000000E+00 -0.00000000000E+00 -0.84814186209E+03  0.84814186209E+03  0.00000000000E+00 0. -1.
         25    2    1    2    0    0  0.10664793780E+02 -0.64941114242E+02 -0.41096820962E+03  0.43456926186E+03  0.12499795153E+03 0.  0.
          2    1    1    2  501    0  0.19530276231E+02  0.63554944488E+02 -0.42228920748E+03  0.42749133022E+03  0.00000000000E+00 0. -1.
          1    1    1    2  502    0 -0.30195070011E+02  0.13861697546E+01  0.47256753995E+03  0.47353325494E+03  0.00000000000E+00 0. -1.
         22    1    3    3    0    0  0.35449546188E+02 -0.95513005651E+02 -0.30032308061E+03  0.31713302780E+03  0.00000000000E+00 0.  1.
         22    1    3    3    0    0 -0.24784752408E+02  0.30571891409E+02 -0.11064512901E+03  0.11743623406E+03  0.00000000000E+00 0.  1.
</event>
<event>
 7    1  0.6253338E-006  0.9750030E+02  0.7818608E-02  0.1322540E+00
          2   -1    0    0  502    0  0.00000000000E+00  0.00000000000E+00  0.12835683627E+04  0.12835683627E+04  0.00000000000E+00 0. -1.
          1   -1    0    0  501    0 -0.00000000000E+00 -0.00000000000E+00 -0.14301323132E+03  0.14301323132E+03  0.00000000000E+00 0. -1.
         25    2    1    2    0    0 -0.11937626690E+03 -0.57768563882E+02  0.61030973154E+03  0.63693936363E+03  0.12500353778E+03 0.  0.
          2    1    1    2  501    0  0.67147980599E+02 -0.18067700009E+02 -0.11687869965E+03  0.13599971880E+03  0.00000000000E+00 0. -1.
          1    1    1    2  502    0  0.52228286297E+02  0.75836263891E+02  0.64712409949E+03  0.65364251158E+03  0.00000000000E+00 0. -1.
         22    1    3    3    0    0 -0.91754332618E+02 -0.96982776659E+02  0.42192314307E+03  0.44254226373E+03  0.00000000000E+00 0.  1.
         22    1    3    3    0    0 -0.27621934278E+02  0.39214212777E+02  0.18838658847E+03  0.19439709990E+03  0.00000000000E+00 0.  1.
</event>
<event>
 7    1  0.6253338E-006  0.4817306E+02  0.7818608E-02  0.1541307E+00
          2   -1    0    0  502    0  0.00000000000E+00  0.00000000000E+00  0.80062248399E+03  0.80062248399E+03  0.00000000000E+00 0. -1.
          1   -1    0    0  501    0 -0.00000000000E+00 -0.00000000000E+00 -0.94465545953E+03  0.94465545953E+03  0.00000000000E+00 0. -1.
         25    2    1    2    0    0 -0.17080519712E+02  0.67597616559E+02  0.10223446334E+02  0.14349456047E+03  0.12499995245E+03 0.  0.
          2    1    1    2  501    0 -0.65005684900E+01 -0.25852376285E+02 -0.87702314526E+03  0.87742817374E+03  0.00000000000E+00 0. -1.
          1    1    1    2  502    0  0.23581088202E+02 -0.41745240275E+02  0.72276672339E+03  0.72435520931E+03  0.00000000000E+00 0. -1.
         22    1    3    3    0    0 -0.63490849187E+02  0.70761786711E+02  0.16706798047E+02  0.96526864084E+02  0.00000000000E+00 0. -1.
         22    1    3    3    0    0  0.46410329475E+02 -0.31641701510E+01 -0.64833517125E+01  0.46967696390E+02  0.00000000000E+00 0. -1.
</event>
<event>
 7    1  0.6253338E-006  0.4625039E+02  0.7818608E-02  0.1480361E+00
          2   -1    0    0  502    0  0.00000000000E+00  0.00000000000E+00  0.18220084063E+04  0.18220084063E+04  0.00000000000E+00 0. -1.
          1   -1    0    0  501    0 -0.00000000000E+00 -0.00000000000E+00 -0.64898293814E+03  0.64898293814E+03  0.00000000000E+00 0. -1.
         25    2    1    2    0    0 -0.29600834618E+02  0.45109926307E+01  0.52363230007E+03  0.53917725493E+03  0.12499907236E+03 0.  0.
          2    1    1    2  501    0  0.14946574881E+02 -0.43822589220E+02 -0.64003299148E+03  0.64170557860E+03  0.00000000000E+00 0. -1.
          1    1    1    2  502    0  0.14654259737E+02  0.39311596590E+02  0.12894261596E+04  0.12901085109E+04  0.00000000000E+00 0. -1.
         22    1    3    3    0    0  0.10969300879E+02 -0.50529446340E+02  0.13475929347E+03  0.14433855232E+03  0.00000000000E+00 0. -1.
         22    1    3    3    0    0 -0.40570135497E+02  0.55040438970E+02  0.38887300660E+03  0.39483870261E+03  0.00000000000E+00 0. -1.
</event>
<event>
 7    1  0.6253338E-006  0.1366305E+03  0.7818608E-02  0.1364169E+00
          2   -1    0    0  502    0  0.00000000000E+00  0.00000000000E+00  0.11904105815E+04  0.11904105815E+04  0.00000000000E+00 0. -1.
          1   -1    0    0  501    0 -0.00000000000E+00 -0.00000000000E+00 -0.56891694788E+02  0.56891694788E+02  0.00000000000E+00 0. -1.
         25    2    1    2    0    0  0.64598322387E+02  0.12249184213E+03  0.63743884404E+03  0.66417645001E+03  0.12499952883E+03 0.  0.
          2    1    1    2  501    0 -0.31648360755E+02 -0.13324260534E+03  0.66663720642E+02  0.15231304037E+03  0.00000000000E+00 0. -1.
          1    1    1    2  502    0 -0.32949961633E+02  0.10750763207E+02  0.42941632204E+03  0.43081278593E+03  0.00000000000E+00 0. -1.
         22    1    3    3    0    0 -0.27171764756E+02 -0.39394034086E+01  0.60111319037E+02  0.66084751461E+02  0.00000000000E+00 0. -1.
         22    1    3    3    0    0  0.91770087143E+02  0.12643124554E+03  0.57732752500E+03  0.59809169855E+03  0.00000000000E+00 0. -1.
</event>
<event>
 7    1  0.6253338E-006  0.1855982E+03  0.7818608E-02  0.1247786E+00
          2   -1    0    0  502    0  0.00000000000E+00  0.00000000000E+00  0.16493984217E+04  0.16493984217E+04  0.00000000000E+00 0. -1.
          1   -1    0    0  501    0 -0.00000000000E+00 -0.00000000000E+00 -0.58392101126E+03  0.58392101126E+03  0.00000000000E+00 0. -1.
         25    2    1    2    0    0 -0.22968545780E+03  0.76359310249E+02  0.62330346943E+03  0.68023503551E+03  0.12500533889E+03 0.  0.
          2    1    1    2  501    0  0.15805724973E+03 -0.94985895389E+02 -0.53871788691E+03  0.56940440479E+03  0.00000000000E+00 0. -1.
          1    1    1    2  502    0  0.71628208072E+02  0.18626585141E+02  0.98089182790E+03  0.98367999263E+03  0.00000000000E+00 0. -1.
         22    1    3    3    0    0 -0.22136395192E+03  0.59901033456E+02  0.62057534850E+03  0.66159194084E+03  0.00000000000E+00 0. -1.
         22    1    3    3    0    0 -0.83215058776E+01  0.16458276793E+02  0.27281209259E+01  0.18643094669E+02  0.00000000000E+00 0. -1.
</event>
<event>
 7    1  0.6253338E-006  0.7316294E+02  0.7818608E-02  0.1463436E+00
          2   -1    0    0  502    0  0.00000000000E+00  0.00000000000E+00  0.14296733320E+04  0.14296733320E+04  0.00000000000E+00 0. -1.
          1   -1    0    0  501    0 -0.00000000000E+00 -0.00000000000E+00 -0.19829617165E+03  0.19829617165E+03  0.00000000000E+00 0. -1.
         25    2    1    2    0    0  0.62562009376E+02  0.79112029736E+02  0.31544564902E+03  0.35398374037E+03  0.12500325075E+03 0.  0.
          2    1    1    2  501    0 -0.22143623667E+02 -0.20136508603E+02 -0.17659949757E+03  0.17911784275E+03  0.00000000000E+00 0. -1.
          1    1    1    2  502    0 -0.40418385709E+02 -0.58975521133E+02  0.10925310089E+04  0.10948679206E+04  0.00000000000E+00 0. -1.
         22    1    3    3    0    0 -0.37472295135E+02  0.33581947524E+02  0.11083575738E+03  0.12172298557E+03  0.00000000000E+00 0.  1.
         22    1    3    3    0    0  0.10003430451E+03  0.45530082211E+02  0.20460989163E+03  0.23226075480E+03  0.00000000000E+00 0.  1.
</event>
<event>
 7    1  0.6572201E-006  0.1397672E+03  0.7818608E-02  0.1373582E+00
          2   -1    0    0  502    0  0.00000000000E+00  0.00000000000E+00  0.13812566992E+04  0.13812566992E+04  0.00000000000E+00 0. -1.
          1   -1    0    0  501    0 -0.00000000000E+00 -0.00000000000E+00 -0.12128845510E+04  0.12128845510E+04  0.00000000000E+00 0. -1.
         25    2    1    2    0    0  0.16267635881E+03 -0.44697085669E+02 -0.45141267210E+03  0.49785456042E+03  0.12499734247E+03 0.  0.
          2    1    1    2  501    0 -0.25720711000E+02  0.17902495973E+02 -0.73433076359E+03  0.73499913244E+03  0.00000000000E+00 0. -1.
          1    1    1    2  502    0 -0.13695564781E+03  0.26794589696E+02  0.13541155838E+04  0.13612875574E+04  0.00000000000E+00 0. -1.
         22    1    3    3    0    0  0.57748221681E+02 -0.14587154513E+02 -0.32682681561E+03  0.33220988785E+03  0.00000000000E+00 0. -1.
         22    1    3    3    0    0  0.10492813713E+03 -0.30109931156E+02 -0.12458585649E+03  0.16564467258E+03  0.00000000000E+00 0. -1.
</event>
<event>
 7    1  0.6253338E-006  0.5908219E+02  0.7818608E-02  0.1446052E+00
          2   -1    0    0  502    0  0.00000000000E+00  0.00000000000E+00  0.12736431607E+04  0.12736431607E+04  0.00000000000E+00 0. -1.
          1   -1    0    0  501    0 -0.00000000000E+00 -0.00000000000E+00 -0.42285995161E+03  0.42285995161E+03  0.00000000000E+00 0. -1.
         25    2    1    2    0    0  0.89530372599E+02 -0.45292625090E+02  0.18458089804E+03  0.24446209719E+03  0.12499799813E+03 0.  0.
          2    1    1    2  501    0 -0.54236589639E+02  0.22356648810E+02 -0.39030829162E+03  0.39469227242E+03  0.00000000000E+00 0. -1.
          1    1    1    2  502    0 -0.35293782960E+02  0.22935976280E+02  0.10565106027E+04  0.10573487427E+04  0.00000000000E+00 0. -1.
         22    1    3    3    0    0  0.55085394956E+02 -0.82103791073E+02  0.16069770290E+03  0.18867746279E+03  0.00000000000E+00 0.  1.
         22    1    3    3    0    0  0.34444977643E+02  0.36811165982E+02  0.23883195140E+02  0.55784634407E+02  0.00000000000E+00 0.  1.
</event>
<event>
 7    1  0.6253338E-006  0.2717854E+03  0.7818608E-02  0.1252893E+00
          2   -1    0    0  502    0  0.00000000000E+00  0.00000000000E+00  0.99018003320E+03  0.99018003320E+03  0.00000000000E+00 0. -1.
          1   -1    0    0  501    0 -0.00000000000E+00 -0.00000000000E+00 -0.84253283383E+03  0.84253283383E+03  0.00000000000E+00 0. -1.
         25    2    1    2    0    0  0.25513376280E+03  0.54397603881E+00  0.21992293931E+03  0.35928346554E+03  0.12499990616E+03 0.  0.
          2    1    1    2  501    0  0.20752585916E+02  0.43313686446E+02 -0.74420033635E+03  0.74574854065E+03  0.00000000000E+00 0. -1.
          1    1    1    2  502    0 -0.27588634872E+03 -0.43857662485E+02  0.67192459642E+03  0.72768086084E+03  0.00000000000E+00 0. -1.
         22    1    3    3    0    0  0.28399759956E+02 -0.41817838911E+02  0.21155478343E+02  0.54798104718E+02  0.00000000000E+00 0. -1.
         22    1    3    3    0    0  0.22673400285E+03  0.42361814950E+02  0.19876746097E+03  0.30448536082E+03  0.00000000000E+00 0. -1.
</event>
<event>
 7    1  0.6253338E-006  0.1340384E+03  0.7818608E-02  0.1316097E+00
          2   -1    0    0  502    0  0.00000000000E+00  0.00000000000E+00  0.95697338311E+03  0.95697338311E+03  0.00000000000E+00 0. -1.
          1   -1    0    0  501    0 -0.00000000000E+00 -0.00000000000E+00 -0.12625204372E+03  0.12625204372E+03  0.00000000000E+00 0. -1.
         25    2    1    2    0    0  0.83793845821E+02  0.10132838229E+03  0.31180163635E+03  0.36074455595E+03  0.12501009783E+03 0.  0.
          2    1    1    2  501    0 -0.38565906135E+02 -0.13005793443E+03 -0.54769771163E+02  0.14629464535E+03  0.00000000000E+00 0. -1.
          1    1    1    2  502    0 -0.45227939686E+02  0.28729552140E+02  0.57368947420E+03  0.57618622554E+03  0.00000000000E+00 0. -1.
         22    1    3    3    0    0  0.98427920007E+02  0.11822928339E+03  0.29526215025E+03  0.33293536348E+03  0.00000000000E+00 0.  1.
         22    1    3    3    0    0 -0.14634074187E+02 -0.16900901095E+02  0.16539486104E+02  0.27809192468E+02  0.00000000000E+00 0.  1.
</event>
<event>
 7    1  0.6253338E-006  0.8486133E+02  0.7818608E-02  0.1330590E+00
          2   -1    0    0  502    0  0.00000000000E+00  0.00000000000E+00  0.81585229828E+03  0.81585229828E+03  0.00000000000E+00 0. -1.
          1   -1    0    0  501    0 -0.00000000000E+00 -0.00000000000E+00 -0.11614572383E+03  0.11614572383E+03  0.00000000000E+00 0. -1.
         25    2    1    2    0    0 -0.47058330221E+01 -0.15032078378E+03  0.14251438243E+03  0.24197819000E+03  0.12499844933E+03 0.  0.
          2    1    1    2  501    0  0.11398414118E+02  0.76219225047E+02 -0.40947987438E+02  0.87269879033E+02  0.00000000000E+00 0. -1.
          1    1    1    2  502    0 -0.66925810962E+01  0.74101558734E+02  0.59814017946E+03  0.60274995307E+03  0.00000000000E+00 0. -1.
         22    1    3    3    0    0  0.10869372306E+02 -0.35807888996E+02 -0.20102340564E+02  0.42478844909E+02  0.00000000000E+00 0. -1.
         22    1    3    3    0    0 -0.15575205328E+02 -0.11451289478E+03  0.16261672300E+03  0.19949934509E+03  0.00000000000E+00 0. -1.
</event>
<event>
 7    1  0.6253338E-006  0.1105843E+03  0.7818608E-02  0.1265635E+00
          2   -1    0    0  502    0  0.00000000000E+00  0.00000000000E+00  0.62919945297E+03  0.62919945297E+03  0.00000000000E+00 0. -1.
          1   -1    0    0  501    0 -0.00000000000E+00 -0.00000000000E+00 -0.11586265345E+04  0.11586265345E+04  0.00000000000E+00 0. -1.
         25    2    1    2    0    0 -0.13732136158E+03  0.15473757627E+03 -0.11790637641E+03  0.26894192109E+03  0.12500787762E+03 0.  0.
          2    1    1    2  501    0  0.85242763927E+02 -0.64564912697E+02 -0.95730293948E+03  0.96325691002E+03  0.00000000000E+00 0. -1.
          1    1    1    2  502    0  0.52078597648E+02 -0.90172663573E+02  0.54578223434E+03  0.55562715638E+03  0.00000000000E+00 0. -1.
         22    1    3    3    0    0 -0.48181224792E+02  0.10849005087E+03 -0.11959224490E+03  0.16850467828E+03  0.00000000000E+00 0.  1.
         22    1    3    3    0    0 -0.89140136784E+02  0.46247525399E+02  0.16858684900E+01  0.10043724281E+03  0.00000000000E+00 0.  1.
</event>
<event>
 7    1  0.6253338E-006  0.9056669E+02  0.7818608E-02  0.1436483E+00
          2   -1    0    0  502    0  0.00000000000E+00  0.00000000000E+00  0.95119283183E+02  0.95119283183E+02  0.00000000000E+00 0. -1.
          1   -1    0    0  501    0 -0.00000000000E+00 -0.00000000000E+00 -0.85238993851E+03  0.85238993851E+03  0.00000000000E+00 0. -1.
         25    2    1    2    0    0 -0.97493858080E+02  0.61064852669E+02 -0.31373752391E+02  0.17275015405E+03  0.12499733913E+03 0.  0.
          2    1    1    2  501    0  0.68132919807E+02 -0.58301935092E+02 -0.73760015636E+03  0.74303109024E+03  0.00000000000E+00 0. -1.
          1    1    1    2  502    0  0.29360938274E+02 -0.27629175775E+01  0.11703253421E+02  0.31727977409E+02  0.00000000000E+00 0. -1.
         22    1    3    3    0    0 -0.11521607979E+03  0.78284893795E+02 -0.42521980028E+02  0.14564130055E+03  0.00000000000E+00 0. -1.
         22    1    3    3    0    0  0.17722221712E+02 -0.17220041125E+02  0.11148227637E+02  0.27108853503E+02  0.00000000000E+00 0. -1.
</event>
<event>
 7    1  0.6253338E-006  0.9621553E+02  0.7818608E-02  0.1336749E+00
          2   -1    0    0  502    0  0.00000000000E+00  0.00000000000E+00  0.52567794373E+03  0.52567794373E+03  0.00000000000E+00 0. -1.
          1   -1    0    0  501    0 -0.00000000000E+00 -0.00000000000E+00 -0.33233998711E+04  0.33233998711E+04  0.00000000000E+00 0. -1.
         25    2    1    2    0    0  0.17068425365E+01 -0.92406676500E+02 -0.85165964966E+03  0.86573176651E+03  0.12500170207E+03 0.  0.
          2    1    1    2  501    0  0.59512766815E+02  0.18020034228E+02 -0.24598340653E+04  0.24606198649E+04  0.00000000000E+00 0. -1.
          1    1    1    2  502    0 -0.61219609352E+02  0.74386642272E+02  0.51377178755E+03  0.52272618339E+03  0.00000000000E+00 0. -1.
         22    1    3    3    0    0 -0.20934040279E+02  0.50649404861E+01 -0.49030289434E+03  0.49077572868E+03  0.00000000000E+00 0.  1.
         22    1    3    3    0    0  0.22640882816E+02 -0.97471616986E+02 -0.36135675532E+03  0.37495603783E+03  0.00000000000E+00 0.  1.
</event>
<event>
 7    1  0.6253338E-006  0.4924383E+02  0.7818608E-02  0.1483752E+00
          2   -1    0    0  502    0  0.00000000000E+00  0.00000000000E+00  0.64476540414E+03  0.64476540414E+03  0.00000000000E+00 0. -1.
          1   -1    0    0  501    0 -0.00000000000E+00 -0.00000000000E+00 -0.80851347326E+03  0.80851347326E+03  0.00000000000E+00 0. -1.
         25    2    1    2    0    0 -0.15852246866E+02 -0.11590905639E+01 -0.32339424349E+03  0.34707558019E+03  0.12499993766E+03 0.  0.
          2    1    1    2  501    0  0.52609794403E+02 -0.10204061171E+02 -0.47117356089E+03  0.47421138515E+03  0.00000000000E+00 0. -1.
          1    1    1    2  502    0 -0.36757547537E+02  0.11363151735E+02  0.63081973525E+03  0.63199191206E+03  0.00000000000E+00 0. -1.
         22    1    3    3    0    0  0.41224996891E+02 -0.17019020542E+02 -0.24385377719E+03  0.24789879403E+03  0.00000000000E+00 0. -1.
         22    1    3    3    0    0 -0.57077243757E+02  0.15859929978E+02 -0.79540466300E+02  0.99176786160E+02  0.00000000000E+00 0. -1.
</event>
<event>
 7    1  0.6253338E-006  0.2057220E+03  0.7818608E-02  0.1295351E+00
          2   -1    0    0  502    0  0.00000000000E+00  0.00000000000E+00  0.16680657068E+04  0.16680657068E+04  0.00000000000E+00 0. -1.
          1   -1    0    0  501    0 -0.00000000000E+00 -0.00000000000E+00 -0.37193557818E+03  0.37193557818E+03  0.00000000000E+00 0. -1.
         25    2    1    2    0    0 -0.10427663330E+03  0.14162100197E+03  0.15152187443E+02  0.21629927238E+03  0.12500264795E+03 0.  0.
          2    1    1    2  501    0  0.13699541472E+03 -0.16826729034E+03 -0.22764453983E+03  0.31448952474E+03  0.00000000000E+00 0. -1.
          1    1    1    2  502    0 -0.32718781427E+02  0.26646288370E+02  0.15086224810E+04  0.15092124878E+04  0.00000000000E+00 0. -1.
         22    1    3    3    0    0 -0.67906114026E+01 -0.22421149279E+02 -0.63407653045E+01  0.24269850491E+02  0.00000000000E+00 0. -1.
         22    1    3    3    0    0 -0.97486021896E+02  0.16404215125E+03  0.21492952747E+02  0.19202942189E+03  0.00000000000E+00 0. -1.
</event>
<event>
 7    1  0.6253338E-006  0.4646716E+02  0.7818608E-02  0.1487955E+00
          2   -1    0    0  502    0  0.00000000000E+00  0.00000000000E+00  0.38584661680E+03  0.38584661680E+03  0.00000000000E+00 0. -1.
          1   -1    0    0  501    0 -0.00000000000E+00 -0.00000000000E+00 -0.13005158320E+04  0.13005158320E+04  0.00000000000E+00 0. -1.
         25    2    1    2    0    0 -0.72232258792E+02  0.48074572381E+01 -0.43084451522E+03  0.45441521147E+03  0.12500230903E+03 0.  0.
          2    1    1    2  501    0  0.38146437436E+02 -0.24944637922E+02 -0.85623062614E+03  0.85744286737E+03  0.00000000000E+00 0. -1.
          1    1    1    2  502    0  0.34085821356E+02  0.20137180684E+02  0.37240592618E+03  0.37450436996E+03  0.00000000000E+00 0. -1.
         22    1    3    3    0    0  0.95839374025E+01 -0.26937073503E+01 -0.29834132506E+03  0.29850737705E+03  0.00000000000E+00 0. -1.
         22    1    3    3    0    0 -0.81816196194E+02  0.75011645885E+01 -0.13250319016E+03  0.15590783442E+03  0.00000000000E+00 0. -1.
</event>
<event>
 7    1  0.6253338E-006  0.3831869E+02  0.7818608E-02  0.1525042E+00
          2   -1    0    0  502    0  0.00000000000E+00  0.00000000000E+00  0.46459746259E+03  0.46459746259E+03  0.00000000000E+00 0. -1.
          1   -1    0    0  501    0 -0.00000000000E+00 -0.00000000000E+00 -0.28636533203E+04  0.28636533203E+04  0.00000000000E+00 0. -1.
         25    2    1    2    0    0 -0.54197981797E+02  0.40416226259E+02 -0.81041695240E+03  0.82278273555E+03  0.12499960243E+03 0.  0.
          2    1    1    2  501    0  0.36948155298E+02 -0.73541275991E+01 -0.20461213900E+04  0.20464681752E+04  0.00000000000E+00 0. -1.
          1    1    1    2  502    0  0.17249826498E+02 -0.33062098660E+02  0.45748248467E+03  0.45899987218E+03  0.00000000000E+00 0. -1.
         22    1    3    3    0    0 -0.24531218034E+02  0.26831700766E+01 -0.22469022604E+02  0.33374197169E+02  0.00000000000E+00 0. -1.
         22    1    3    3    0    0 -0.29666763762E+02  0.37733056183E+02 -0.78794792979E+03  0.78940853838E+03  0.00000000000E+00 0. -1.
</event>
<event>
 7    1  0.6253338E-006  0.6957412E+02  0.7818608E-02  0.1368491E+00
          2   -1    0    0  502    0  0.00000000000E+00  0.00000000000E+00  0.18542274796E+04  0.18542274796E+04  0.00000000000E+00 0. -1.
          1   -1    0    0  501    0 -0.00000000000E+00 -0.00000000000E+00 -0.12285337380E+03  0.12285337380E+03  0.00000000000E+00 0. -1.
         25    2    1    2    0    0  0.36551628725E+02 -0.11665441567E+03  0.34620488475E+03  0.38784944298E+03  0.12500037578E+03 0.  0.
          2    1    1    2  501    0  0.78202059775E+01  0.65192142658E+02 -0.90604402054E+02  0.11189427491E+03  0.00000000000E+00 0. -1.
          1    1    1    2  502    0 -0.44371834703E+02  0.51462273008E+02  0.14757736231E+04  0.14773371355E+04  0.00000000000E+00 0. -1.
         22    1    3    3    0    0  0.21759948197E+02 -0.70257105347E+02  0.53070444895E+02  0.90697454863E+02  0.00000000000E+00 0. -1.
         22    1    3    3    0    0  0.14791680528E+02 -0.46397310319E+02  0.29313443985E+03  0.29715198812E+03  0.00000000000E+00 0. -1.
</event>
<event>
 7    1  0.6253338E-006  0.4303150E+02  0.7818608E-02  0.1534081E+00
          2   -1    0    0  502    0  0.00000000000E+00  0.00000000000E+00  0.10752810812E+04  0.10752810812E+04  0.00000000000E+00 0. -1.
          1   -1    0    0  501    0 -0.00000000000E+00 -0.00000000000E+00 -0.59823650515E+03  0.59823650515E+03  0.00000000000E+00 0. -1.
         25    2    1    2    0    0  0.58733652313E+02  0.22549335516E+02  0.18381796985E+03  0.23102431001E+03  0.12500028532E+03 0.  0.
          2    1    1    2  501    0 -0.29950664380E+02  0.90359271214E+01 -0.57368086504E+03  0.57453322375E+03  0.00000000000E+00 0. -1.
          1    1    1    2  502    0 -0.28782987933E+02 -0.31585262637E+02  0.86690747125E+03  0.86796005261E+03  0.00000000000E+00 0. -1.
         22    1    3    3    0    0  0.71843336537E+02  0.43811434721E+02  0.56682962186E+02  0.10145868627E+03  0.00000000000E+00 0. -1.
         22    1    3    3    0    0 -0.13109684223E+02 -0.21262099205E+02  0.12713500766E+03  0.12956562374E+03  0.00000000000E+00 0. -1.
</event>
<event>
 7    1  0.6253338E-006  0.5077376E+02  0.7818608E-02  0.1459338E+00
          2   -1    0    0  502    0  0.00000000000E+00  0.00000000000E+00  0.11100419154E+04  0.11100419154E+04  0.00000000000E+00 0. -1.
          1   -1    0    0  501    0 -0.00000000000E+00 -0.00000000000E+00 -0.18139616765E+04  0.18139616765E+04  0.00000000000E+00 0. -1.
         25    2    1    2    0    0 -0.82001669111E+02 -0.42194138376E+02  0.81521483997E+03  0.82988313400E+03  0.12500464687E+03 0.  0.
          2    1    1    2  501    0  0.49284899124E+02  0.12134996661E+02 -0.18045520447E+04  0.18052657260E+04  0.00000000000E+00 0. -1.
          1    1    1    2  502    0  0.32716769988E+02  0.30059141715E+02  0.28541744358E+03  0.28885473189E+03  0.00000000000E+00 0. -1.
         22    1    3    3    0    0 -0.16691592592E+02  0.43977749915E+02  0.22929105513E+03  0.23406631477E+03  0.00000000000E+00 0. -1.
         22    1    3    3    0    0 -0.65310076519E+02 -0.86171888291E+02  0.58592378485E+03  0.59581681923E+03  0.00000000000E+00 0. -1.
</event>
<event>
 7    1  0.6253338E-006  0.4510593E+02  0.7818608E-02  0.1493902E+00
          2   -1    0    0  502    0  0.00000000000E+00  0.00000000000E+00  0.20009437735E+03  0.20009437735E+03  0.00000000000E+00 0. -1.
          1   -1    0    0  501    0 -0.00000000000E+00 -0.00000000000E+00 -0.35800728145E+03  0.35800728145E+03  0.00000000000E+00 0. -1.
         25    2    1    2    0    0 -0.33231788867E+02 -0.61179714549E+02 -0.31824688112E+02  0.14657417299E+03  0.12499547252E+03 0.  0.
          2    1    1    2  501    0 -0.21989612385E+01  0.44568462946E+02 -0.26421913608E+03  0.26796069710E+03  0.00000000000E+00 0. -1.
          1    1    1    2  502    0  0.35430750106E+02  0.16611251603E+02  0.13813092010E+03  0.14356678871E+03  0.00000000000E+00 0. -1.
         22    1    3    3    0    0 -0.47962970732E+01 -0.93991113295E+02 -0.24366172184E+01  0.94144946479E+02  0.00000000000E+00 0. -1.
         22    1    3    3    0    0 -0.28435491794E+02  0.32811398746E+02 -0.29388070893E+02  0.52429226507E+02  0.00000000000E+00 0. -1.
</event>
<event>
 7    1  0.6253338E-006  0.8470225E+02  0.7818608E-02  0.1356777E+00
          2   -1    0    0  502    0  0.00000000000E+00  0.00000000000E+00  0.44324686253E+03  0.44324686253E+03  0.00000000000E+00 0. -1.
          1   -1    0    0  501    0 -0.00000000000E+00 -0.00000000000E+00 -0.73736568154E+03  0.73736568154E+03  0.00000000000E+00 0. -1.
         25    2    1    2    0    0  0.12865582330E+03 -0.50027376706E+02  0.51983501373E+01  0.18630222369E+03  0.12500574554E+03 0.  0.
          2    1    1    2  501    0 -0.59115960813E+02  0.66449099891E+01 -0.64058334145E+03  0.64333962181E+03  0.00000000000E+00 0. -1.
          1    1    1    2  502    0 -0.69539862485E+02  0.43382466717E+02  0.34126617231E+03  0.35097069857E+03  0.00000000000E+00 0. -1.
         22    1    3    3    0    0  0.56049247137E+02  0.37557900112E+02 -0.18783394952E+02  0.70035204657E+02  0.00000000000E+00 0.  1.
         22    1    3    3    0    0  0.72606576161E+02 -0.87585276818E+02  0.23981745089E+02  0.11626701903E+03  0.00000000000E+00 0.  1.
</event>
<event>
 7    1  0.6253338E-006  0.1441644E+03  0.7818608E-02  0.1402588E+00
          2   -1    0    0  502    0  0.00000000000E+00  0.00000000000E+00  0.12158230107E+04  0.12158230107E+04  0.00000000000E+00 0. -1.
          1   -1    0    0  501    0 -0.00000000000E+00 -0.00000000000E+00 -0.16764235495E+03  0.16764235495E+03  0.00000000000E+00 0. -1.
         25    2    1    2    0    0 -0.14717901882E+03  0.30170663938E+02  0.55816982112E+03  0.59139706200E+03  0.12500001276E+03 0.  0.
          2    1    1    2  501    0  0.54846491280E+01 -0.23414991994E+02 -0.14215867898E+03  0.14417847702E+03  0.00000000000E+00 0. -1.
          1    1    1    2  502    0  0.14169436969E+03 -0.67556719439E+01  0.63216951364E+03  0.64788982665E+03  0.00000000000E+00 0. -1.
         22    1    3    3    0    0 -0.14771515267E+03  0.34571544069E+01  0.53799725258E+03  0.55791823955E+03  0.00000000000E+00 0.  1.
         22    1    3    3    0    0  0.53613384787E+00  0.26713509531E+02  0.20172568543E+02  0.33478822449E+02  0.00000000000E+00 0.  1.
</event>
<event>
 7    1  0.6253338E-006  0.7731152E+02  0.7818608E-02  0.1448248E+00
          2   -1    0    0  502    0  0.00000000000E+00  0.00000000000E+00  0.23563929392E+04  0.23563929392E+04  0.00000000000E+00 0. -1.
          1   -1    0    0  501    0 -0.00000000000E+00 -0.00000000000E+00 -0.13159693945E+04  0.13159693945E+04  0.00000000000E+00 0. -1.
         25    2    1    2    0    0 -0.59955117188E+02 -0.54328105154E+02 -0.75775154178E+03  0.77224205287E+03  0.12499692025E+03 0.  0.
          2    1    1    2  501    0  0.73340416862E+02  0.25649402349E+02 -0.54812623185E+03  0.55360552257E+03  0.00000000000E+00 0. -1.
          1    1    1    2  502    0 -0.13385299675E+02  0.28678702805E+02  0.23463013183E+04  0.23465147582E+04  0.00000000000E+00 0. -1.
         22    1    3    3    0    0 -0.18528855869E+02 -0.83207382038E+02 -0.61376907435E+03  0.61966060352E+03  0.00000000000E+00 0.  1.
         22    1    3    3    0    0 -0.41426261319E+02  0.28879276884E+02 -0.14398246742E+03  0.15258144935E+03  0.00000000000E+00 0.  1.
</event>
<event>
 7    1  0.6253338E-006  0.5097521E+02  0.7818608E-02  0.1529413E+00
          2   -1    0    0  502    0  0.00000000000E+00  0.00000000000E+00  0.14803651427E+04  0.14803651427E+04  0.00000000000E+00 0. -1.
          1   -1    0    0  501    0 -0.00000000000E+00 -0.00000000000E+00 -0.52004118067E+03  0.52004118067E+03  0.00000000000E+00 0. -1.
         25    2    1    2    0    0 -0.69248666375E+02 -0.19925927228E+02  0.69017610269E+01  0.14444904687E+03  0.12500188985E+03 0.  0.
          2    1    1    2  501    0  0.50630440705E+02  0.51838792438E-01 -0.44971486312E+03  0.45255596596E+03  0.00000000000E+00 0. -1.
          1    1    1    2  502    0  0.18618225670E+02  0.19874088436E+02  0.14031370641E+04  0.14034013106E+04  0.00000000000E+00 0. -1.
         22    1    3    3    0    0 -0.23892457596E+02  0.24596962872E+02 -0.48999281623E+02  0.59806268167E+02  0.00000000000E+00 0. -1.
         22    1    3    3    0    0 -0.45356208779E+02 -0.44522890101E+02  0.55901042650E+02  0.84642778706E+02  0.00000000000E+00 0. -1.
</event>
<event>
 7    1  0.6253338E-006  0.9710242E+02  0.7818608E-02  0.1361545E+00
          2   -1    0    0  502    0  0.00000000000E+00  0.00000000000E+00  0.21153704060E+03  0.21153704060E+03  0.00000000000E+00 0. -1.
          1   -1    0    0  501    0 -0.00000000000E+00 -0.00000000000E+00 -0.44763477845E+03  0.44763477845E+03  0.00000000000E+00 0. -1.
         25    2    1    2    0    0 -0.33227405324E+02 -0.13255825134E+03 -0.75206154324E+02  0.19989057939E+03  0.12499811046E+03 0.  0.
          2    1    1    2  501    0  0.41107827392E+02  0.83334032766E+02 -0.29865448762E+03  0.31277614593E+03  0.00000000000E+00 0. -1.
          1    1    1    2  502    0 -0.78804220678E+01  0.49224218572E+02  0.13776290409E+03  0.14650509373E+03  0.00000000000E+00 0. -1.
         22    1    3    3    0    0 -0.22437424802E+02 -0.60432433731E+02  0.30622619649E+02  0.71367092645E+02  0.00000000000E+00 0.  1.
         22    1    3    3    0    0 -0.10789980521E+02 -0.72125817607E+02 -0.10582877397E+03  0.12852348675E+03  0.00000000000E+00 0.  1.
</event>
<event>
 7    1  0.6253338E-006  0.4148176E+02  0.7818608E-02  0.1606506E+00
          2   -1    0    0  502    0  0.00000000000E+00  0.00000000000E+00  0.17848472029E+03  0.17848472029E+03  0.00000000000E+00 0. -1.
          1   -1    0    0  501    0 -0.00000000000E+00 -0.00000000000E+00 -0.65074809306E+03  0.65074809306E+03  0.00000000000E+00 0. -1.
         25    2    1    2    0    0 -0.38427370108E+02 -0.41200684159E+02  0.11728482534E+03  0.18043420812E+03  0.12500645605E+03 0.  0.
          2    1    1    2  501    0  0.18187700305E+02  0.37217224775E+02 -0.61479912981E+03  0.61619305763E+03  0.00000000000E+00 0. -1.
          1    1    1    2  502    0  0.20239669803E+02  0.39834593844E+01  0.25250931695E+02  0.32605547593E+02  0.00000000000E+00 0. -1.
         22    1    3    3    0    0 -0.65612518556E+02 -0.17291970325E+01  0.11504896615E+03  0.13245473690E+03  0.00000000000E+00 0.  1.
         22    1    3    3    0    0  0.27185148448E+02 -0.39471487127E+02  0.22358591860E+01  0.47979471219E+02  0.00000000000E+00 0.  1.
</event>
<event>
 7    1  0.6253338E-006  0.7817846E+02  0.7818608E-02  0.1389919E+00
          2   -1    0    0  502    0  0.00000000000E+00  0.00000000000E+00  0.27644972813E+04  0.27644972813E+04  0.00000000000E+00 0. -1.
          1   -1    0    0  501    0 -0.00000000000E+00 -0.00000000000E+00 -0.39656754403E+03  0.39656754403E+03  0.00000000000E+00 0. -1.
         25    2    1    2    0    0  0.58093533707E+02 -0.98930274658E+02  0.10966924406E+03  0.20202436658E+03  0.12499777477E+03 0.  0.
          2    1    1    2  501    0  0.15958847471E+01  0.49027447437E+02 -0.34808982247E+03  0.35152917654E+03  0.00000000000E+00 0. -1.
          1    1    1    2  502    0 -0.59689418454E+02  0.49902827221E+02  0.26063503157E+04  0.26075112822E+04  0.00000000000E+00 0. -1.
         22    1    3    3    0    0  0.59725380971E+02 -0.93484427206E+02  0.13576058787E+03  0.17532083869E+03  0.00000000000E+00 0.  1.
         22    1    3    3    0    0 -0.16318472644E+01 -0.54458474524E+01 -0.26091343807E+02  0.26703527887E+02  0.00000000000E+00 0.  1.
</event>
<event>
 7    1  0.6253338E-006  0.6928777E+02  0.7818608E-02  0.1366084E+00
          2   -1    0    0  502    0  0.00000000000E+00  0.00000000000E+00  0.42333767537E+03  0.42333767537E+03  0.00000000000E+00 0. -1.
          1   -1    0    0  501    0 -0.00000000000E+00 -0.00000000000E+00 -0.10892359963E+04  0.10892359963E+04  0.00000000000E+00 0. -1.
         25    2    1    2    0    0  0.48780893405E+02  0.58053449043E+02  0.75679601843E+02  0.16462838919E+03  0.12500130353E+03 0.  0.
          2    1    1    2  501    0  0.17857458868E+02 -0.67201477331E+02 -0.10398554472E+04  0.10421776616E+04  0.00000000000E+00 0. -1.
          1    1    1    2  502    0 -0.66638352272E+02  0.91480282880E+01  0.29827752439E+03  0.30576762086E+03  0.00000000000E+00 0. -1.
         22    1    3    3    0    0  0.49351479062E+02  0.48872115409E+02  0.10944985949E+03  0.12962763553E+03  0.00000000000E+00 0. -1.
         22    1    3    3    0    0 -0.57058565770E+00  0.91813336345E+01 -0.33770257647E+02  0.35000753661E+02  0.00000000000E+00 0. -1.
</event>
<event>
 7    1  0.6253338E-006  0.2882203E+03  0.7818608E-02  0.1252032E+00
          2   -1    0    0  502    0  0.00000000000E+00  0.00000000000E+00  0.29132521608E+03  0.29132521608E+03  0.00000000000E+00 0. -1.
          1   -1    0    0  501    0 -0.00000000000E+00 -0.00000000000E+00 -0.25906419112E+04  0.25906419112E+04  0.00000000000E+00 0. -1.
         25    2    1    2    0    0  0.22496778195E+03 -0.23134048833E+03 -0.33142206498E+03  0.47916056384E+03  0.12500134533E+03 0.  0.
          2    1    1    2  501    0 -0.17796375407E+02  0.42070177601E+02 -0.20944699711E+04  0.20949680357E+04  0.00000000000E+00 0. -1.
          1    1    1    2  502    0 -0.20717140654E+03  0.18927031073E+03  0.12657534096E+03  0.30783852772E+03  0.00000000000E+00 0. -1.
         22    1    3    3    0    0  0.22039187239E+03 -0.24624146074E+03 -0.31683407645E+03  0.45781138737E+03  0.00000000000E+00 0.  1.
         22    1    3    3    0    0  0.45759095611E+01  0.14900972410E+02 -0.14587988525E+02  0.21349176478E+02  0.00000000000E+00 0.  1.
</event>
<event>
 7    1  0.6253338E-006  0.1019308E+03  0.7818608E-02  0.1325195E+00
          2   -1    0    0  502    0  0.00000000000E+00  0.00000000000E+00  0.11483805982E+04  0.11483805982E+04  0.00000000000E+00 0. -1.
          1   -1    0    0  501    0 -0.00000000000E+00 -0.00000000000E+00 -0.35660017982E+03  0.35660017982E+03  0.00000000000E+00 0. -1.
         25    2    1    2    0    0 -0.45796252790E+02  0.55156912963E+02 -0.10373722224E+03  0.17755587437E+03  0.12500038170E+03 0.  0.
          2    1    1    2  501    0 -0.54870881908E+02 -0.34777572759E+02 -0.20863006942E+03  0.21851040962E+03  0.00000000000E+00 0. -1.
          1    1    1    2  502    0  0.10066713470E+03 -0.20379340204E+02  0.11041477101E+04  0.11089144941E+04  0.00000000000E+00 0. -1.
         22    1    3    3    0    0 -0.80532606340E+02  0.53200065228E+02 -0.10515554637E+03  0.14273554762E+03  0.00000000000E+00 0.  1.
         22    1    3    3    0    0  0.34736353550E+02  0.19568477354E+01  0.14183241252E+01  0.34820326741E+02  0.00000000000E+00 0.  1.
</event>
<event>
 7    1  0.6253338E-006  0.4428116E+02  0.7818608E-02  0.1483553E+00
          2   -1    0    0  502    0  0.00000000000E+00  0.00000000000E+00  0.21302263746E+04  0.21302263746E+04  0.00000000000E+00 0. -1.
          1   -1    0    0  501    0 -0.00000000000E+00 -0.00000000000E+00 -0.15158707838E+04  0.15158707838E+04  0.00000000000E+00 0. -1.
         25    2    1    2    0    0  0.63997615630E+02  0.27319802569E+02  0.39480617179E+03  0.41992625996E+03  0.12499633634E+03 0.  0.
          2    1    1    2  501    0 -0.41533954347E+02  0.10520797449E+02 -0.15027243426E+04  0.15033350280E+04  0.00000000000E+00 0. -1.
          1    1    1    2  502    0 -0.22463661284E+02 -0.37840600018E+02  0.17222737615E+04  0.17228358705E+04  0.00000000000E+00 0. -1.
         22    1    3    3    0    0  0.58669929890E+02 -0.22031650007E+02  0.34103879136E+03  0.34674920546E+03  0.00000000000E+00 0.  1.
         22    1    3    3    0    0  0.53276857401E+01  0.49351452575E+02  0.53767380436E+02  0.73177054502E+02  0.00000000000E+00 0.  1.
</event>
<event>
 7    1  0.6253338E-006  0.9895084E+02  0.7818608E-02  0.1454988E+00
          2   -1    0    0  502    0  0.00000000000E+00  0.00000000000E+00  0.11758731567E+04  0.11758731567E+04  0.00000000000E+00 0. -1.
          1   -1    0    0  501    0 -0.00000000000E+00 -0.00000000000E+00 -0.29092573147E+03  0.29092573147E+03  0.00000000000E+00 0. -1.
         25    2    1    2    0    0 -0.25320486440E+02  0.93411894324E+02  0.64000474130E+03  0.65924268996E+03  0.12501178484E+03 0.  0.
          2    1    1    2  501    0  0.47868360480E+02 -0.86677113010E+02 -0.27231778262E+03  0.28976072299E+03  0.00000000000E+00 0. -1.
          1    1    1    2  502    0 -0.22547874041E+02 -0.67347813142E+01  0.51726046655E+03  0.51779547522E+03  0.00000000000E+00 0. -1.
         22    1    3    3    0    0 -0.49226652476E+02 -0.10851229178E+02  0.23539343882E+03  0.24073031285E+03  0.00000000000E+00 0.  1.
         22    1    3    3    0    0  0.23906166036E+02  0.10426312350E+03  0.40461130248E+03  0.41851237711E+03  0.00000000000E+00 0.  1.
</event>
<event>
 7    1  0.6253338E-006  0.1426833E+03  0.7818608E-02  0.1271624E+00
          2   -1    0    0  502    0  0.00000000000E+00  0.00000000000E+00  0.43302424506E+03  0.43302424506E+03  0.00000000000E+00 0. -1.
          1   -1    0    0  501    0 -0.00000000000E+00 -0.00000000000E+00 -0.90758443226E+03  0.90758443226E+03  0.00000000000E+00 0. -1.
         25    2    1    2    0    0  0.10159717834E+03 -0.39452541335E+02  0.81778608886E+01  0.16603236827E+03  0.12498552013E+03 0.  0.
          2    1    1    2  501    0 -0.90611699679E+02  0.11481110904E+03 -0.81789835632E+03  0.83087290975E+03  0.00000000000E+00 0. -1.
          1    1    1    2  502    0 -0.10985478658E+02 -0.75358567705E+02  0.33516030824E+03  0.34370339930E+03  0.00000000000E+00 0. -1.
         22    1    3    3    0    0  0.42145392885E+02 -0.44363009739E+02 -0.52731079836E+02  0.80776714189E+02  0.00000000000E+00 0.  1.
         22    1    3    3    0    0  0.59451785452E+02  0.49104684035E+01  0.60908940725E+02  0.85255654086E+02  0.00000000000E+00 0.  1.
</event>
<event>
 7    1  0.6253338E-006  0.1030327E+03  0.7818608E-02  0.1364112E+00
          2   -1    0    0  502    0  0.00000000000E+00  0.00000000000E+00  0.77312148653E+02  0.77312148653E+02  0.00000000000E+00 0. -1.
          1   -1    0    0  501    0 -0.00000000000E+00 -0.00000000000E+00 -0.15732326540E+04  0.15732326540E+04  0.00000000000E+00 0. -1.
         25    2    1    2    0    0 -0.95969246762E+02  0.66880856572E+02 -0.41878418268E+03  0.45242344854E+03  0.12499455916E+03 0.  0.
          2    1    1    2  501    0  0.10002575084E+03 -0.21076991581E+02 -0.11262278766E+04  0.11308574713E+04  0.00000000000E+00 0. -1.
          1    1    1    2  502    0 -0.40565040764E+01 -0.45803864990E+02  0.49091553884E+02  0.67263882851E+02  0.00000000000E+00 0. -1.
         22    1    3    3    0    0 -0.38136023332E+02  0.18644804192E+02 -0.20607144525E+02  0.47187280113E+02  0.00000000000E+00 0. -1.
         22    1    3    3    0    0 -0.57833223429E+02  0.48236052379E+02 -0.39817703816E+03  0.40523616842E+03  0.00000000000E+00 0. -1.
</event>
<event>
 7    1  0.6253338E-006  0.4573053E+02  0.7818608E-02  0.1470868E+00
          2   -1    0    0  502    0  0.00000000000E+00  0.00000000000E+00  0.84030334989E+03  0.84030334989E+03  0.00000000000E+00 0. -1.
          1   -1    0    0  501    0 -0.00000000000E+00 -0.00000000000E+00 -0.53071379867E+02  0.53071379867E+02  0.00000000000E+00 0. -1.
         25    2    1    2    0    0  0.37916448073E+02  0.98376915803E+01  0.11779623987E+03  0.17616744609E+03  0.12499831089E+03 0.  0.
          2    1    1    2  501    0 -0.34633658775E+02  0.35774860657E+02  0.37296924070E+01  0.49932370068E+02  0.00000000000E+00 0. -1.
          1    1    1    2  502    0 -0.32827892982E+01 -0.45612552237E+02  0.66570603775E+03  0.66727491360E+03  0.00000000000E+00 0. -1.
         22    1    3    3    0    0  0.20078843275E+02 -0.55229907391E+02  0.78599187468E+02  0.98139364622E+02  0.00000000000E+00 0.  1.
         22    1    3    3    0    0  0.17837604798E+02  0.65067598972E+02  0.39197052403E+02  0.78028081470E+02  0.00000000000E+00 0.  1.
</event>
<event>
 7    1  0.6253338E-006  0.6284079E+02  0.7818608E-02  0.1440107E+00
          2   -1    0    0  502    0  0.00000000000E+00  0.00000000000E+00  0.83559394266E+03  0.83559394266E+03  0.00000000000E+00 0. -1.
          1   -1    0    0  501    0 -0.00000000000E+00 -0.00000000000E+00 -0.82655802481E+03  0.82655802481E+03  0.00000000000E+00 0. -1.
         25    2    1    2    0    0  0.52370596652E+01 -0.46757632628E+02 -0.16270427142E+03  0.21050716074E+03  0.12500752690E+03 0.  0.
          2    1    1    2  501    0 -0.46555851236E+02  0.44827542950E+02 -0.63779117849E+03  0.64105736346E+03  0.00000000000E+00 0. -1.
          1    1    1    2  502    0  0.41318791571E+02  0.19300896779E+01  0.80953136777E+03  0.81058744327E+03  0.00000000000E+00 0. -1.
         22    1    3    3    0    0 -0.52847790554E+01 -0.74254740182E+02 -0.40378693721E+02  0.84688453970E+02  0.00000000000E+00 0.  1.
         22    1    3    3    0    0  0.10521838721E+02  0.27497107554E+02 -0.12232557770E+03  0.12581870677E+03  0.00000000000E+00 0.  1.
</event>
<event>
 7    1  0.6253338E-006  0.1402553E+03  0.7818608E-02  0.1291572E+00
          2   -1    0    0  502    0  0.00000000000E+00  0.00000000000E+00  0.32431364454E+04  0.32431364454E+04  0.00000000000E+00 0. -1.
          1   -1    0    0  501    0 -0.00000000000E+00 -0.00000000000E+00 -0.36295965634E+03  0.36295965634E+03  0.00000000000E+00 0. -1.
         25    2    1    2    0    0 -0.68318034581E+02  0.18582895492E+03  0.23286819610E+02  0.23530206258E+03  0.12500012141E+03 0.  0.
          2    1    1    2  501    0  0.29261724333E+00 -0.64108509722E+02 -0.25136571397E+03  0.25941223719E+03  0.00000000000E+00 0. -1.
          1    1    1    2  502    0  0.68025417338E+02 -0.12172044519E+03  0.31082556835E+04  0.31113818020E+04  0.00000000000E+00 0. -1.
         22    1    3    3    0    0 -0.99157443552E+02  0.10681632195E+03  0.34423715258E+02  0.14975619326E+03  0.00000000000E+00 0.  1.
         22    1    3    3    0    0  0.30839408970E+02  0.79012632963E+02 -0.11136895649E+02  0.85545869322E+02  0.00000000000E+00 0.  1.
</event>
<event>
 7    1  0.6253338E-006  0.8538281E+02  0.7818608E-02  0.1351036E+00
          2   -1    0    0  502    0  0.00000000000E+00  0.00000000000E+00  0.26887825876E+03  0.26887825876E+03  0.00000000000E+00 0. -1.
          1   -1    0    0  501    0 -0.00000000000E+00 -0.00000000000E+00 -0.13750370775E+04  0.13750370775E+04  0.00000000000E+00 0. -1.
         25    2    1    2    0    0  0.69969658553E+02  0.10830847185E+03  0.20162282631E+00  0.17958781353E+03  0.12500105569E+03 0.  0.
          2    1    1    2  501    0 -0.27060341845E+01 -0.61899562518E+02 -0.12752245452E+04  0.12767288354E+04  0.00000000000E+00 0. -1.
          1    1    1    2  502    0 -0.67263624368E+02 -0.46408909333E+02  0.16886410358E+03  0.18759868738E+03  0.00000000000E+00 0. -1.
         22    1    3    3    0    0  0.49597150056E+02  0.25976212662E+02  0.55101838884E+02  0.78554780672E+02  0.00000000000E+00 0.  1.
         22    1    3    3    0    0  0.20372508496E+02  0.82332259189E+02 -0.54900216058E+02  0.10103303286E+03  0.00000000000E+00 0.  1.
</event>
<event>
 7    1  0.6253338E-006  0.1871987E+03  0.7818608E-02  0.1252916E+00
          2   -1    0    0  502    0  0.00000000000E+00  0.00000000000E+00  0.29332845130E+03  0.29332845130E+03  0.00000000000E+00 0. -1.
          1   -1    0    0  501    0 -0.00000000000E+00 -0.00000000000E+00 -0.75601762390E+03  0.75601762390E+03  0.00000000000E+00 0. -1.
         25    2    1    2    0    0  0.18436219975E+03 -0.10511676852E+03 -0.11153955642E+03  0.27037613410E+03  0.12499290190E+03 0.  0.
          2    1    1    2  501    0 -0.12258707202E+03  0.13742649677E+03 -0.54377764779E+03  0.57411476420E+03  0.00000000000E+00 0. -1.
          1    1    1    2  502    0 -0.61775127728E+02 -0.32309728251E+02  0.19262803160E+03  0.20485517690E+03  0.00000000000E+00 0. -1.
         22    1    3    3    0    0  0.19831956241E+03 -0.76202936825E+02 -0.85411563269E+02  0.22898181490E+03  0.00000000000E+00 0. -1.
         22    1    3    3    0    0 -0.13957362666E+02 -0.28913831692E+02 -0.26127993148E+02  0.41394319196E+02  0.00000000000E+00 0. -1.
</event>
<event>
 7    1  0.6253338E-006  0.3503429E+02  0.7818608E-02  0.1557361E+00
          2   -1    0    0  502    0  0.00000000000E+00  0.00000000000E+00  0.29349198870E+02  0.29349198870E+02  0.00000000000E+00 0. -1.
          1   -1    0    0  501    0 -0.00000000000E+00 -0.00000000000E+00 -0.18455600241E+04  0.18455600241E+04  0.00000000000E+00 0. -1.
         25    2    1    2    0    0 -0.58338116586E+01 -0.77881860947E+01 -0.32564371160E+03  0.34894961257E+03  0.12500926369E+03 0.  0.
          2    1    1    2  501    0 -0.17958164341E+02  0.30742470938E+02 -0.14924230359E+04  0.14928476524E+04  0.00000000000E+00 0. -1.
          1    1    1    2  502    0  0.23791976000E+02 -0.22954284843E+02  0.18559222772E+01  0.33111957993E+02  0.00000000000E+00 0. -1.
         22    1    3    3    0    0 -0.31300530415E+02 -0.43451753718E+02 -0.28222178639E+03  0.28725757574E+03  0.00000000000E+00 0. -1.
         22    1    3    3    0    0  0.25466718756E+02  0.35663567623E+02 -0.43421925209E+02  0.61692036833E+02  0.00000000000E+00 0. -1.
</event>
<event>
 7    1  0.6253338E-006  0.7139301E+02  0.7818608E-02  0.1359672E+00
          2   -1    0    0  502    0  0.00000000000E+00  0.00000000000E+00  0.10468416345E+03  0.10468416345E+03  0.00000000000E+00 0. -1.
          1   -1    0    0  501    0 -0.00000000000E+00 -0.00000000000E+00 -0.85698598134E+03  0.85698598134E+03  0.00000000000E+00 0. -1.
         25    2    1    2    0    0  0.67053128842E+02  0.55660597149E+02 -0.31935752949E+03  0.35384770787E+03  0.12499897825E+03 0.  0.
          2    1    1    2  501    0 -0.66902338359E+02  0.16376901173E+02 -0.50278875633E+03  0.50748463944E+03  0.00000000000E+00 0. -1.
          1    1    1    2  502    0 -0.15079048313E+00 -0.72037498322E+02  0.69844467930E+02  0.10033779748E+03  0.00000000000E+00 0. -1.
         22    1    3    3    0    0  0.24074168033E+02  0.74726584918E+02 -0.28499602239E+03  0.29561184150E+03  0.00000000000E+00 0.  1.
         22    1    3    3    0    0  0.42978960809E+02 -0.19065987769E+02 -0.34361507104E+02  0.58235866374E+02  0.00000000000E+00 0.  1.
</event>
<event>
 7    1  0.6253338E-006  0.1075096E+03  0.7818608E-02  0.1282456E+00
          2   -1    0    0  502    0  0.00000000000E+00  0.00000000000E+00  0.19280235109E+04  0.19280235109E+04  0.00000000000E+00 0. -1.
          1   -1    0    0  501    0 -0.00000000000E+00 -0.00000000000E+00 -0.37967032013E+02  0.37967032013E+02  0.00000000000E+00 0. -1.
         25    2    1    2    0    0 -0.78974985040E+02  0.24453672132E+02  0.26172333032E+03  0.30159399713E+03  0.12499922849E+03 0.  0.
          2    1    1    2  501    0  0.39814497736E+02  0.81968605691E+02  0.11456592614E+03  0.14638783413E+03  0.00000000000E+00 0. -1.
          1    1    1    2  502    0  0.39160487304E+02 -0.10642227782E+03  0.15137672225E+04  0.15180087117E+04  0.00000000000E+00 0. -1.
         22    1    3    3    0    0 -0.61665081547E+02  0.25013217193E+02  0.27295651901E+03  0.28095107152E+03  0.00000000000E+00 0. -1.
         22    1    3    3    0    0 -0.17309903494E+02 -0.55954506090E+00 -0.11233188686E+02  0.20642925609E+02  0.00000000000E+00 0. -1.
</event>
<event>
 7    1  0.6253338E-006  0.8391119E+02  0.7818608E-02  0.1448549E+00
          2   -1    0    0  502    0  0.00000000000E+00  0.00000000000E+00  0.31146331151E+03  0.31146331151E+03  0.00000000000E+00 0. -1.
          1   -1    0    0  501    0 -0.00000000000E+00 -0.00000000000E+00 -0.62512582592E+03  0.62512582592E+03  0.00000000000E+00 0. -1.
         25    2    1    2    0    0  0.86035567281E+02 -0.81139591091E+01 -0.63975621919E+02  0.16488156836E+03  0.12500038486E+03 0.  0.
          2    1    1    2  501    0 -0.45621413179E+01  0.28734723752E+02 -0.50350118591E+03  0.50434109657E+03  0.00000000000E+00 0. -1.
          1    1    1    2  502    0 -0.81473425963E+02 -0.20620764643E+02  0.25381429342E+03  0.26736647250E+03  0.00000000000E+00 0. -1.
         22    1    3    3    0    0 -0.36077996154E+00 -0.50694974138E+02 -0.27934618434E+01  0.50773162144E+02  0.00000000000E+00 0. -1.
         22    1    3    3    0    0  0.86396347242E+02  0.42581015029E+02 -0.61182160075E+02  0.11410840622E+03  0.00000000000E+00 0. -1.
</event>
<event>
 7    1  0.6253338E-006  0.1945443E+03  0.7818608E-02  0.1213854E+00
          2   -1    0    0  502    0  0.00000000000E+00  0.00000000000E+00  0.60090682189E+03  0.60090682189E+03  0.00000000000E+00 0. -1.
          1   -1    0    0  501    0 -0.00000000000E+00 -0.00000000000E+00 -0.46417872582E+03  0.46417872582E+03  0.00000000000E+00 0. -1.
         25    2    1    2    0    0 -0.18101369670E+03  0.13326293720E+03  0.86082590772E+02  0.27123783855E+03  0.12503912908E+03 0.  0.
          2    1    1    2  501    0  0.93071104999E+02  0.37087274410E+02 -0.34228341934E+03  0.35664497146E+03  0.00000000000E+00 0. -1.
          1    1    1    2  502    0  0.87942591702E+02 -0.17035021161E+03  0.39292892465E+03  0.43720273770E+03  0.00000000000E+00 0. -1.
         22    1    3    3    0    0 -0.15709385327E+03  0.15597770555E+03  0.87928954805E+02  0.23819954756E+03  0.00000000000E+00 0. -1.
         22    1    3    3    0    0 -0.23919843431E+02 -0.22714768355E+02 -0.18463640330E+01  0.33038290987E+02  0.00000000000E+00 0. -1.
</event>
<event>
 7    1  0.6253338E-006  0.1671539E+03  0.7818608E-02  0.1319229E+00
          2   -1    0    0  502    0  0.00000000000E+00  0.00000000000E+00  0.16675876142E+04  0.16675876142E+04  0.00000000000E+00 0. -1.
          1   -1    0    0  501    0 -0.00000000000E+00 -0.00000000000E+00 -0.76266180712E+03  0.76266180712E+03  0.00000000000E+00 0. -1.
         25    2    1    2    0    0  0.13218545550E+03 -0.13617183510E+02 -0.30476277595E+03  0.35519411207E+03  0.12499634118E+03 0.  0.
          2    1    1    2  501    0  0.29871034883E+02 -0.29205797281E+02 -0.42738548595E+03  0.42942241548E+03  0.00000000000E+00 0. -1.
          1    1    1    2  502    0 -0.16205649039E+03  0.42822980791E+02  0.16370740689E+04  0.16456328937E+04  0.00000000000E+00 0. -1.
         22    1    3    3    0    0  0.11493020420E+03  0.30934515072E+02 -0.27301619611E+03  0.29783173001E+03  0.00000000000E+00 0. -1.
         22    1    3    3    0    0  0.17255251300E+02 -0.44551698582E+02 -0.31746579838E+02  0.57362382058E+02  0.00000000000E+00 0. -1.
</event>
<event>
 7    1  0.6253338E-006  0.8192972E+02  0.7818608E-02  0.1450031E+00
          2   -1    0    0  502    0  0.00000000000E+00  0.00000000000E+00  0.82240158756E+03  0.82240158756E+03  0.00000000000E+00 0. -1.
          1   -1    0    0  501    0 -0.00000000000E+00 -0.00000000000E+00 -0.54171242145E+02  0.54171242145E+02  0.00000000000E+00 0. -1.
         25    2    1    2    0    0  0.38304148309E+02  0.91795510625E+02  0.62663556864E+03  0.64667689597E+03  0.12500099338E+03 0.  0.
          2    1    1    2  501    0 -0.12204065670E+02 -0.26829030694E+02 -0.31523324252E+02  0.43156182393E+02  0.00000000000E+00 0. -1.
          1    1    1    2  502    0 -0.26100082640E+02 -0.64966479931E+02  0.17311810103E+03  0.18673975134E+03  0.00000000000E+00 0. -1.
         22    1    3    3    0    0 -0.34717452685E+02  0.74076551364E+02  0.26597710847E+03  0.27827407212E+03  0.00000000000E+00 0. -1.
         22    1    3    3    0    0  0.73021600994E+02  0.17718959261E+02  0.36065846017E+03  0.36840282386E+03  0.00000000000E+00 0. -1.
</event>
<event>
 7    1  0.6253338E-006  0.1231651E+03  0.7818608E-02  0.1246718E+00
          2   -1    0    0  502    0  0.00000000000E+00  0.00000000000E+00  0.96623770544E+03  0.96623770544E+03  0.00000000000E+00 0. -1.
          1   -1    0    0  501    0 -0.00000000000E+00 -0.00000000000E+00 -0.21417324472E+04  0.21417324472E+04  0.00000000000E+00 0. -1.
         25    2    1    2    0    0 -0.13243432520E+03 -0.78482707307E+02  0.24888675255E+03  0.31822615323E+03  0.12499953267E+03 0.  0.
          2    1    1    2  501    0  0.27677888369E+02  0.12012364439E+03 -0.21005897757E+04  0.21042036881E+04  0.00000000000E+00 0. -1.
          1    1    1    2  502    0  0.10475643683E+03 -0.41640937080E+02  0.67620828134E+03  0.68554031132E+03  0.00000000000E+00 0. -1.
         22    1    3    3    0    0 -0.12791856914E+03 -0.10853309927E+03  0.21512702147E+03  0.27280437924E+03  0.00000000000E+00 0. -1.
         22    1    3    3    0    0 -0.45157560573E+01  0.30050391959E+02  0.33759731078E+02  0.45421773987E+02  0.00000000000E+00 0. -1.
</event>
<event>
 7    1  0.6253338E-006  0.6715314E+02  0.7818608E-02  0.1418426E+00
          2   -1    0    0  502    0  0.00000000000E+00  0.00000000000E+00  0.26897252305E+02  0.26897252305E+02  0.00000000000E+00 0. -1.
          1   -1    0    0  501    0 -0.00000000000E+00 -0.00000000000E+00 -0.91370407118E+03  0.91370407118E+03  0.00000000000E+00 0. -1.
         25    2    1    2    0    0  0.28236585385E+02 -0.39061812771E+02 -0.49917072365E+03  0.51683738529E+03  0.12500536592E+03 0.  0.
          2    1    1    2  501    0 -0.56955352270E+01  0.78735558814E+02 -0.36383296362E+03  0.37229847268E+03  0.00000000000E+00 0. -1.
          1    1    1    2  502    0 -0.22541050158E+02 -0.39673746042E+02 -0.23803131611E+02  0.51465465525E+02  0.00000000000E+00 0. -1.
         22    1    3    3    0    0 -0.35512916113E+02 -0.34420197222E+02 -0.36367125666E+03  0.36701866453E+03  0.00000000000E+00 0. -1.
         22    1    3    3    0    0  0.63749501498E+02 -0.46416155495E+01 -0.13549946699E+03  0.14981872076E+03  0.00000000000E+00 0. -1.
</event>
<event>
 7    1  0.6253338E-006  0.7417741E+02  0.7818608E-02  0.1356247E+00
          2   -1    0    0  502    0  0.00000000000E+00  0.00000000000E+00  0.11041123536E+04  0.11041123536E+04  0.00000000000E+00 0. -1.
          1   -1    0    0  501    0 -0.00000000000E+00 -0.00000000000E+00 -0.52286860710E+02  0.52286860710E+02  0.00000000000E+00 0. -1.
         25    2    1    2    0    0 -0.16675086470E+02  0.30500787291E+02  0.53598752324E+03  0.55146963952E+03  0.12501112636E+03 0.  0.
          2    1    1    2  501    0 -0.41691042866E+02 -0.65845462428E+02 -0.64522905773E+01  0.78201023211E+02  0.00000000000E+00 0. -1.
          1    1    1    2  502    0  0.58366129336E+02  0.35344675137E+02  0.52229026020E+03  0.52672855155E+03  0.00000000000E+00 0. -1.
         22    1    3    3    0    0  0.16714617665E+00  0.52019492068E+02  0.84997752392E+02  0.99652764159E+02  0.00000000000E+00 0. -1.
         22    1    3    3    0    0 -0.16842232647E+02 -0.21518704777E+02  0.45098977084E+03  0.45181687536E+03  0.00000000000E+00 0. -1.
</event>
<event>
 7    1  0.6253338E-006  0.1197932E+03  0.7818608E-02  0.1292929E+00
          2   -1    0    0  502    0  0.00000000000E+00  0.00000000000E+00  0.12169154666E+04  0.12169154666E+04  0.00000000000E+00 0. -1.
          1   -1    0    0  501    0 -0.00000000000E+00 -0.00000000000E+00 -0.65435394572E+03  0.65435394572E+03  0.00000000000E+00 0. -1.
         25    2    1    2    0    0  0.17550807373E+03 -0.79412926476E+02  0.38178541152E+03  0.44552642272E+03  0.12499678418E+03 0.  0.
          2    1    1    2  501    0 -0.11018886376E+03  0.44391079305E+02 -0.61507821760E+03  0.62644502343E+03  0.00000000000E+00 0. -1.
          1    1    1    2  502    0 -0.65319209968E+02  0.35021847171E+02  0.79585432698E+03  0.79929796618E+03  0.00000000000E+00 0. -1.
         22    1    3    3    0    0  0.17211099417E+02  0.29765131761E+02  0.35434239675E+02  0.49373782043E+02  0.00000000000E+00 0.  1.
         22    1    3    3    0    0  0.15829697432E+03 -0.10917805824E+03  0.34635117184E+03  0.39615264067E+03  0.00000000000E+00 0.  1.
</event>
<event>
 7    1  0.6253338E-006  0.1312271E+03  0.7818608E-02  0.1321334E+00
          2   -1    0    0  502    0  0.00000000000E+00  0.00000000000E+00  0.46640253256E+03  0.46640253256E+03  0.00000000000E+00 0. -1.
          1   -1    0    0  501    0 -0.00000000000E+00 -0.00000000000E+00 -0.25382248362E+04  0.25382248362E+04  0.00000000000E+00 0. -1.
         25    2    1    2    0    0 -0.30567795376E+02  0.83881471755E+02 -0.31531319009E+03  0.35073627628E+03  0.12499214470E+03 0.  0.
          2    1    1    2  501    0  0.19817483718E+02 -0.13498592459E+03 -0.22015616736E+04  0.22057850609E+04  0.00000000000E+00 0. -1.
          1    1    1    2  502    0  0.10750311658E+02  0.51104452830E+02  0.44505256004E+03  0.44810603153E+03  0.00000000000E+00 0. -1.
         22    1    3    3    0    0  0.58573320043E+01 -0.16598170587E+01 -0.21066480443E+03  0.21075275362E+03  0.00000000000E+00 0. -1.
         22    1    3    3    0    0 -0.36425127381E+02  0.85541288814E+02 -0.10464838566E+03  0.13998352267E+03  0.00000000000E+00 0. -1.
</event>
<event>
 7    1  0.6253338E-006  0.9588720E+02  0.7818608E-02  0.1364830E+00
          2   -1    0    0  502    0  0.00000000000E+00  0.00000000000E+00  0.23477841265E+04  0.23477841265E+04  0.00000000000E+00 0. -1.
          1   -1    0    0  501    0 -0.00000000000E+00 -0.00000000000E+00 -0.23665409032E+03  0.23665409032E+03  0.00000000000E+00 0. -1.
         25    2    1    2    0    0 -0.10569721418E+03 -0.28023021669E+02  0.63587805772E+03  0.65720838893E+03  0.12499908541E+03 0.  0.
          2    1    1    2  501    0  0.34196601886E+02 -0.35254132795E+02 -0.22196264726E+03  0.22733164813E+03  0.00000000000E+00 0. -1.
          1    1    1    2  502    0  0.71500612294E+02  0.63277154464E+02  0.16972146257E+04  0.16998981797E+04  0.00000000000E+00 0. -1.
         22    1    3    3    0    0 -0.22504635773E+02  0.46748268742E+02  0.25599311286E+03  0.26119788110E+03  0.00000000000E+00 0. -1.
         22    1    3    3    0    0 -0.83192578407E+02 -0.74771290411E+02  0.37988494487E+03  0.39601050783E+03  0.00000000000E+00 0. -1.
</event>
<event>
 7    1  0.6253338E-006  0.6499180E+02  0.7818608E-02  0.1394848E+00
          2   -1    0    0  502    0  0.00000000000E+00  0.00000000000E+00  0.10944255773E+04  0.10944255773E+04  0.00000000000E+00 0. -1.
          1   -1    0    0  501    0 -0.00000000000E+00 -0.00000000000E+00 -0.26163420561E+03  0.26163420561E+03  0.00000000000E+00 0. -1.
         25    2    1    2    0    0 -0.44624712681E+02  0.45616792303E+02  0.10780279634E+03  0.17697049384E+03  0.12499942428E+03 0.  0.
          2    1    1    2  501    0  0.65441960433E+02  0.71481416772E+01 -0.22141148549E+03  0.23099089164E+03  0.00000000000E+00 0. -1.
          1    1    1    2  502    0 -0.20817247752E+02 -0.52764933980E+02  0.94640006089E+03  0.94809839748E+03  0.00000000000E+00 0. -1.
         22    1    3    3    0    0 -0.76045716484E+02  0.23723910147E+02  0.21436103718E+02  0.82494129796E+02  0.00000000000E+00 0. -1.
         22    1    3    3    0    0  0.31421003803E+02  0.21892882156E+02  0.86366692621E+02  0.94476364046E+02  0.00000000000E+00 0. -1.
</event>
<event>
 7    1  0.6253338E-006  0.5389002E+02  0.7818608E-02  0.1427765E+00
          2   -1    0    0  502    0  0.00000000000E+00  0.00000000000E+00  0.16014604845E+04  0.16014604845E+04  0.00000000000E+00 0. -1.
          1   -1    0    0  501    0 -0.00000000000E+00 -0.00000000000E+00 -0.10825442023E+04  0.10825442023E+04  0.00000000000E+00 0. -1.
         25    2    1    2    0    0 -0.37054291853E+02  0.26247208828E+02  0.12056903438E+03  0.17951015662E+03  0.12500027106E+03 0.  0.
          2    1    1    2  501    0 -0.83944874317E+01 -0.53389687401E+02 -0.10518969803E+04  0.10532844741E+04  0.00000000000E+00 0. -1.
          1    1    1    2  502    0  0.45448779285E+02  0.27142478574E+02  0.14502442282E+04  0.14512100561E+04  0.00000000000E+00 0. -1.
         22    1    3    3    0    0 -0.22976672434E+02 -0.63884245850E+01 -0.22079801118E+02  0.32500108649E+02  0.00000000000E+00 0.  1.
         22    1    3    3    0    0 -0.14077619419E+02  0.32635633413E+02  0.14264883550E+03  0.14701004798E+03  0.00000000000E+00 0.  1.
</event>
<event>
 7    1  0.6253338E-006  0.1794189E+03  0.7818608E-02  0.1257433E+00
          2   -1    0    0  502    0  0.00000000000E+00  0.00000000000E+00  0.20399460968E+04  0.20399460968E+04  0.00000000000E+00 0. -1.
          1   -1    0    0  501    0 -0.00000000000E+00 -0.00000000000E+00 -0.69405679440E+03  0.69405679440E+03  0.00000000000E+00 0. -1.
         25    2    1    2    0    0 -0.14644900405E+03 -0.15956137672E+03 -0.11866664878E+02  0.25034537189E+03  0.12499937505E+03 0.  0.
          2    1    1    2  501    0  0.15119945377E+03  0.90169308554E+02 -0.54853791457E+03  0.57609515077E+03  0.00000000000E+00 0. -1.
          1    1    1    2  502    0 -0.47504497158E+01  0.69392068166E+02  0.19062938818E+04  0.19075623685E+04  0.00000000000E+00 0. -1.
         22    1    3    3    0    0 -0.13565796118E+03 -0.68235395782E+02  0.19682753131E+02  0.15312270387E+03  0.00000000000E+00 0. -1.
         22    1    3    3    0    0 -0.10791042871E+02 -0.91325980938E+02 -0.31549418009E+02  0.97222668022E+02  0.00000000000E+00 0. -1.
</event>
<event>
 7    1  0.6253338E-006  0.2744029E+02  0.7818608E-02  0.1641107E+00
          2   -1    0    0  502    0  0.00000000000E+00  0.00000000000E+00  0.17862472298E+04  0.17862472298E+04  0.00000000000E+00 0. -1.
          1   -1    0    0  501    0 -0.00000000000E+00 -0.00000000000E+00 -0.42647059525E+03  0.42647059525E+03  0.00000000000E+00 0. -1.
         25    2    1    2    0    0 -0.17354183324E+02  0.47665971065E+02 -0.17709655195E+03  0.22262409807E+03  0.12500035141E+03 0.  0.
          2    1    1    2  501    0  0.12677255396E+01 -0.25449530279E+02 -0.22578693127E+03  0.22722021048E+03  0.00000000000E+00 0. -1.
          1    1    1    2  502    0  0.16086457785E+02 -0.22216440787E+02  0.17626601178E+04  0.17628735165E+04  0.00000000000E+00 0. -1.
         22    1    3    3    0    0 -0.40463588906E+02 -0.30206248079E+02 -0.92235102534E+02  0.10515243026E+03  0.00000000000E+00 0.  1.
         22    1    3    3    0    0  0.23109405582E+02  0.77872219144E+02 -0.84861449417E+02  0.11747166781E+03  0.00000000000E+00 0.  1.
</event>
<event>
 7    1  0.6253338E-006  0.8243660E+02  0.7818608E-02  0.1353659E+00
          2   -1    0    0  502    0  0.00000000000E+00  0.00000000000E+00  0.17619117169E+04  0.17619117169E+04  0.00000000000E+00 0. -1.
          1   -1    0    0  501    0 -0.00000000000E+00 -0.00000000000E+00 -0.16248856665E+04  0.16248856665E+04  0.00000000000E+00 0. -1.
         25    2    1    2    0    0  0.48506215171E+02 -0.17325502998E+02  0.10905764535E+03  0.17369905256E+03  0.12499905954E+03 0.  0.
          2    1    1    2  501    0  0.25372359316E+02  0.57400444165E+02 -0.15908560774E+04  0.15920934729E+04  0.00000000000E+00 0. -1.
          1    1    1    2  502    0 -0.73878574487E+02 -0.40074941167E+02  0.16188244824E+04  0.16210048580E+04  0.00000000000E+00 0. -1.
         22    1    3    3    0    0 -0.37307075803E+02 -0.95376463399E+01  0.68238407730E+02  0.78353461265E+02  0.00000000000E+00 0. -1.
         22    1    3    3    0    0  0.85813290973E+02 -0.77878566577E+01  0.40819237616E+02  0.95345591291E+02  0.00000000000E+00 0. -1.
</event>
<event>
 7    1  0.6253338E-006  0.1496313E+03  0.7818608E-02  0.1328474E+00
          2   -1    0    0  502    0  0.00000000000E+00  0.00000000000E+00  0.33657818602E+04  0.33657818602E+04  0.00000000000E+00 0. -1.
          1   -1    0    0  501    0 -0.00000000000E+00 -0.00000000000E+00 -0.32466106348E+02  0.32466106348E+02  0.00000000000E+00 0. -1.
         25    2    1    2    0    0  0.78145251467E+02  0.84598126093E+02  0.10060608557E+04  0.10203153431E+04  0.12498572175E+03 0.  0.
          2    1    1    2  501    0 -0.10528641512E+03 -0.11793739031E+03  0.22363879003E+03  0.27387728210E+03  0.00000000000E+00 0. -1.
          1    1    1    2  502    0  0.27141163654E+02  0.33339264218E+02  0.21036161081E+04  0.21040553414E+04  0.00000000000E+00 0. -1.
         22    1    3    3    0    0 -0.24654515575E+01 -0.34997163357E+01  0.51238152279E+03  0.51239940609E+03  0.00000000000E+00 0. -1.
         22    1    3    3    0    0  0.80610703024E+02  0.88097842429E+02  0.49367933291E+03  0.50791593697E+03  0.00000000000E+00 0. -1.
</event>
<event>
 7    1  0.6253338E-006  0.7229949E+02  0.7818608E-02  0.1444537E+00
          2   -1    0    0  502    0  0.00000000000E+00  0.00000000000E+00  0.13479801042E+03  0.13479801042E+03  0.00000000000E+00 0. -1.
          1   -1    0    0  501    0 -0.00000000000E+00 -0.00000000000E+00 -0.48589692678E+03  0.48589692678E+03  0.00000000000E+00 0. -1.
         25    2    1    2    0    0  0.10393100789E+03  0.19789296826E+02 -0.36999954039E+03  0.40462073672E+03  0.12500004009E+03 0.  0.
          2    1    1    2  501    0 -0.34685643450E+02 -0.26339877610E+01 -0.83968839653E+02  0.90888931041E+02  0.00000000000E+00 0. -1.
          1    1    1    2  502    0 -0.69245364438E+02 -0.17155309065E+02  0.10286946369E+03  0.12518526944E+03  0.00000000000E+00 0. -1.
         22    1    3    3    0    0  0.10352979307E+03  0.12453369392E+02 -0.37895345264E+03  0.39303845070E+03  0.00000000000E+00 0. -1.
         22    1    3    3    0    0  0.40121481936E+00  0.73359274342E+01  0.89539122529E+01  0.11582286013E+02  0.00000000000E+00 0. -1.
</event>
<event>
 7    1  0.6253338E-006  0.1125388E+03  0.7818608E-02  0.1384315E+00
          2   -1    0    0  502    0  0.00000000000E+00  0.00000000000E+00  0.12311720852E+04  0.12311720852E+04  0.00000000000E+00 0. -1.
          1   -1    0    0  501    0 -0.00000000000E+00 -0.00000000000E+00 -0.53209431397E+03  0.53209431397E+03  0.00000000000E+00 0. -1.
         25    2    1    2    0    0 -0.44766998527E+02  0.12475970845E+03  0.75017859112E+03  0.77198547208E+03  0.12499832604E+03 0.  0.
          2    1    1    2  501    0 -0.56842611504E+01 -0.35196964404E+02 -0.51494754412E+03  0.51618030796E+03  0.00000000000E+00 0. -1.
          1    1    1    2  502    0  0.50451259677E+02 -0.89562744046E+02  0.46384672423E+03  0.47510061914E+03  0.00000000000E+00 0. -1.
         22    1    3    3    0    0  0.86848200286E+01  0.69647512886E+02  0.13615746229E+03  0.15318308225E+03  0.00000000000E+00 0. -1.
         22    1    3    3    0    0 -0.53451818555E+02  0.55112195563E+02  0.61402112883E+03  0.61880238983E+03  0.00000000000E+00 0. -1.
</event>
<event>
 7    1  0.6253338E-006  0.1508240E+03  0.7818608E-02  0.1311548E+00
          2   -1    0    0  502    0  0.00000000000E+00  0.00000000000E+00  0.21029226654E+04  0.21029226654E+04  0.00000000000E+00 0. -1.
          1   -1    0    0  501    0 -0.00000000000E+00 -0.00000000000E+00 -0.45596439099E+03  0.45596439099E+03  0.00000000000E+00 0. -1.
         25    2    1    2    0    0 -0.92205493526E+02 -0.11158481306E+03  0.96517628418E+03  0.98394226440E+03  0.12499638626E+03 0.  0.
          2    1    1    2  501    0  0.52650569995E+02  0.14153165796E+03 -0.43324854359E+03  0.45881106487E+03  0.00000000000E+00 0. -1.
          1    1    1    2  502    0  0.39554923531E+02 -0.29946844901E+02  0.11150305338E+04  0.11161337271E+04  0.00000000000E+00 0. -1.
         22    1    3    3    0    0 -0.58568034576E+02 -0.12070890674E+03  0.50731856448E+03  0.52475992674E+03  0.00000000000E+00 0. -1.
         22    1    3    3    0    0 -0.33637458950E+02  0.91240936820E+01  0.45785771970E+03  0.45918233766E+03  0.00000000000E+00 0. -1.
</event>
<event>
 7    1  0.6253338E-006  0.7332696E+02  0.7818608E-02  0.1396204E+00
          2   -1    0    0  502    0  0.00000000000E+00  0.00000000000E+00  0.63698927234E+03  0.63698927234E+03  0.00000000000E+00 0. -1.
          1   -1    0    0  501    0 -0.00000000000E+00 -0.00000000000E+00 -0.21711847375E+03  0.21711847375E+03  0.00000000000E+00 0. -1.
         25    2    1    2    0    0 -0.83988058990E+01  0.81016808844E+02  0.11973247393E+03  0.19130391177E+03  0.12500823208E+03 0.  0.
          2    1    1    2  501    0  0.50150779841E+02 -0.53992255215E+02 -0.17248708268E+03  0.18756880879E+03  0.00000000000E+00 0. -1.
          1    1    1    2  502    0 -0.41751973942E+02 -0.27024553629E+02  0.47262540733E+03  0.47523502552E+03  0.00000000000E+00 0. -1.
         22    1    3    3    0    0  0.87319969508E+01  0.66459654080E+02  0.14362565897E+03  0.15849751830E+03  0.00000000000E+00 0. -1.
         22    1    3    3    0    0 -0.17130802850E+02  0.14557154764E+02 -0.23893185040E+02  0.32806393469E+02  0.00000000000E+00 0. -1.
</event>
<event>
 7    1  0.6253338E-006  0.2135309E+03  0.7818608E-02  0.1185129E+00
          2   -1    0    0  502    0  0.00000000000E+00  0.00000000000E+00  0.11591553164E+04  0.11591553164E+04  0.00000000000E+00 0. -1.
          1   -1    0    0  501    0 -0.00000000000E+00 -0.00000000000E+00 -0.65094116881E+03  0.65094116881E+03  0.00000000000E+00 0. -1.
         25    2    1    2    0    0  0.10619104033E+03  0.26065543830E+03  0.27986594940E+03  0.41614936319E+03  0.12505018306E+03 0.  0.
          2    1    1    2  501    0 -0.15324753463E+03 -0.14513803643E+03 -0.55861479750E+03  0.59716023686E+03  0.00000000000E+00 0. -1.
          1    1    1    2  502    0  0.47056494304E+02 -0.11551740187E+03  0.78696299569E+03  0.79678688517E+03  0.00000000000E+00 0. -1.
         22    1    3    3    0    0 -0.22569013371E+02  0.74583684186E+02  0.44860382171E+02  0.89914071200E+02  0.00000000000E+00 0.  1.
         22    1    3    3    0    0  0.12876005370E+03  0.18607175412E+03  0.23500556723E+03  0.32623529199E+03  0.00000000000E+00 0.  1.
</event>
<event>
 7    1  0.6253338E-006  0.2593710E+03  0.7818608E-02  0.1182553E+00
          2   -1    0    0  502    0  0.00000000000E+00  0.00000000000E+00  0.14662729885E+04  0.14662729885E+04  0.00000000000E+00 0. -1.
          1   -1    0    0  501    0 -0.00000000000E+00 -0.00000000000E+00 -0.34756905996E+04  0.34756905996E+04  0.00000000000E+00 0. -1.
         25    2    1    2    0    0  0.16425320911E+03  0.28483110255E+02 -0.19640957618E+03  0.28634430794E+03  0.12500374714E+03 0.  0.
          2    1    1    2  501    0  0.82499640228E+02  0.66056111302E+02 -0.32211577272E+04  0.32228910474E+04  0.00000000000E+00 0. -1.
          1    1    1    2  502    0 -0.24675284934E+03 -0.94539221557E+02  0.14081496923E+04  0.14327282327E+04  0.00000000000E+00 0. -1.
         22    1    3    3    0    0 -0.11933550898E+02 -0.18497051235E+02 -0.41948679399E+02  0.47373433955E+02  0.00000000000E+00 0.  1.
         22    1    3    3    0    0  0.17618676001E+03  0.46980161490E+02 -0.15446089678E+03  0.23897087398E+03  0.00000000000E+00 0.  1.
</event>
<event>
 7    1  0.6253338E-006  0.1799634E+03  0.7818608E-02  0.1374637E+00
          2   -1    0    0  502    0  0.00000000000E+00  0.00000000000E+00  0.37465722052E+03  0.37465722052E+03  0.00000000000E+00 0. -1.
          1   -1    0    0  501    0 -0.00000000000E+00 -0.00000000000E+00 -0.10596438030E+04  0.10596438030E+04  0.00000000000E+00 0. -1.
         25    2    1    2    0    0 -0.19422154028E+03  0.35361185403E+02 -0.57249916217E+03  0.61834708249E+03  0.12500161442E+03 0.  0.
          2    1    1    2  501    0  0.21159412648E+02  0.11594458107E+02 -0.44101455946E+03  0.44167408103E+03  0.00000000000E+00 0. -1.
          1    1    1    2  502    0  0.17306212763E+03 -0.46955643510E+02  0.32852713912E+03  0.37427986002E+03  0.00000000000E+00 0. -1.
         22    1    3    3    0    0 -0.36178873195E+02 -0.13284107252E+02 -0.27749662754E+03  0.28016023391E+03  0.00000000000E+00 0.  1.
         22    1    3    3    0    0 -0.15804266708E+03  0.48645292655E+02 -0.29500253463E+03  0.33818684858E+03  0.00000000000E+00 0.  1.
</event>
<event>
 7    1  0.6253338E-006  0.1659973E+03  0.7818608E-02  0.1278455E+00
          2   -1    0    0  502    0  0.00000000000E+00  0.00000000000E+00  0.12247011547E+04  0.12247011547E+04  0.00000000000E+00 0. -1.
          1   -1    0    0  501    0 -0.00000000000E+00 -0.00000000000E+00 -0.12632038676E+04  0.12632038676E+04  0.00000000000E+00 0. -1.
         25    2    1    2    0    0  0.13720624239E+03  0.37270462213E+02  0.29386845580E+03  0.34956921677E+03  0.12500131075E+03 0.  0.
          2    1    1    2  501    0  0.37577763191E+02 -0.48440734760E+02 -0.12260879008E+04  0.12276197023E+04  0.00000000000E+00 0. -1.
          1    1    1    2  502    0 -0.17478400558E+03  0.11170272547E+02  0.89371673204E+03  0.91071610325E+03  0.00000000000E+00 0. -1.
         22    1    3    3    0    0  0.48040650764E+02  0.77664787439E+02  0.14761985596E+03  0.17358382761E+03  0.00000000000E+00 0.  1.
         22    1    3    3    0    0  0.89165591626E+02 -0.40394325226E+02  0.14624859985E+03  0.17598538916E+03  0.00000000000E+00 0.  1.
</event>
<event>
 7    1  0.6253338E-006  0.2953801E+02  0.7818608E-02  0.1632192E+00
          2   -1    0    0  502    0  0.00000000000E+00  0.00000000000E+00  0.72493887902E+03  0.72493887902E+03  0.00000000000E+00 0. -1.
          1   -1    0    0  501    0 -0.00000000000E+00 -0.00000000000E+00 -0.50725604939E+02  0.50725604939E+02  0.00000000000E+00 0. -1.
         25    2    1    2    0    0  0.31515781535E+01  0.42485200232E+01  0.22868418988E+03  0.26066943537E+03  0.12499645381E+03 0.  0.
          2    1    1    2  501    0 -0.16621618804E+02 -0.25208051737E+02 -0.27780460426E+02  0.41030209182E+02  0.00000000000E+00 0. -1.
          1    1    1    2  502    0  0.13470040650E+02  0.20959531714E+02  0.47330954462E+03  0.47396483941E+03  0.00000000000E+00 0. -1.
         22    1    3    3    0    0 -0.22036676975E+01  0.36957503436E+02  0.22418434844E+03  0.22722089538E+03  0.00000000000E+00 0.  1.
         22    1    3    3    0    0  0.53552458510E+01 -0.32708983413E+02  0.44998414390E+01  0.33448539983E+02  0.00000000000E+00 0.  1.
</event>
<event>
 7    1  0.6253338E-006  0.9422984E+02  0.7818608E-02  0.1390820E+00
          2   -1    0    0  502    0  0.00000000000E+00  0.00000000000E+00  0.13549004295E+04  0.13549004295E+04  0.00000000000E+00 0. -1.
          1   -1    0    0  501    0 -0.00000000000E+00 -0.00000000000E+00 -0.36035541293E+02  0.36035541293E+02  0.00000000000E+00 0. -1.
         25    2    1    2    0    0  0.10049765119E+03  0.71334053824E+02  0.57321849130E+03  0.59949470349E+03  0.12500454239E+03 0.  0.
          2    1    1    2  501    0 -0.19223741811E+02 -0.35538016526E+02 -0.12135060124E+00  0.40404425423E+02  0.00000000000E+00 0. -1.
          1    1    1    2  502    0 -0.81273909379E+02 -0.35796037298E+02  0.74576774748E+03  0.75103684185E+03  0.00000000000E+00 0. -1.
         22    1    3    3    0    0  0.95650686209E+02  0.99364587922E+02  0.53076332381E+03  0.54839044576E+03  0.00000000000E+00 0. -1.
         22    1    3    3    0    0  0.48469649811E+01 -0.28030534098E+02  0.42455167494E+02  0.51104257731E+02  0.00000000000E+00 0. -1.
</event>
<event>
 7    1  0.6253338E-006  0.4706426E+02  0.7818608E-02  0.1514901E+00
          2   -1    0    0  502    0  0.00000000000E+00  0.00000000000E+00  0.99962644518E+03  0.99962644518E+03  0.00000000000E+00 0. -1.
          1   -1    0    0  501    0 -0.00000000000E+00 -0.00000000000E+00 -0.13347834464E+04  0.13347834464E+04  0.00000000000E+00 0. -1.
         25    2    1    2    0    0 -0.73317218813E+02  0.10028970053E+02  0.16652685240E+03  0.22098069456E+03  0.12500111992E+03 0.  0.
          2    1    1    2  501    0  0.31100011337E+02  0.94090797302E+01 -0.13066842784E+04  0.13070881933E+04  0.00000000000E+00 0. -1.
          1    1    1    2  502    0  0.42217207475E+02 -0.19438049783E+02  0.80500042481E+03  0.80634100375E+03  0.00000000000E+00 0. -1.
         22    1    3    3    0    0  0.18233083661E+02 -0.11268317682E+02 -0.78970090441E+01  0.22842571550E+02  0.00000000000E+00 0.  1.
         22    1    3    3    0    0 -0.91550302474E+02  0.21297287735E+02  0.17442386144E+03  0.19813812301E+03  0.00000000000E+00 0.  1.
</event>
<event>
 7    1  0.6253338E-006  0.1042250E+03  0.7818608E-02  0.1360055E+00
          2   -1    0    0  502    0  0.00000000000E+00  0.00000000000E+00  0.20766784574E+03  0.20766784574E+03  0.00000000000E+00 0. -1.
          1   -1    0    0  501    0 -0.00000000000E+00 -0.00000000000E+00 -0.51373842841E+03  0.51373842841E+03  0.00000000000E+00 0. -1.
         25    2    1    2    0    0  0.63866944841E+02  0.40952943823E+02  0.11703529830E+03  0.18729905346E+03  0.12501017609E+03 0.  0.
          2    1    1    2  501    0 -0.10422837277E+03 -0.16814494109E+02 -0.46148390560E+03  0.47340645964E+03  0.00000000000E+00 0. -1.
          1    1    1    2  502    0  0.40361427929E+02 -0.24138449713E+02  0.38378024629E+02  0.60700761062E+02  0.00000000000E+00 0. -1.
         22    1    3    3    0    0 -0.14734481861E+02  0.59118785255E+02  0.74033350656E+02  0.95880512801E+02  0.00000000000E+00 0. -1.
         22    1    3    3    0    0  0.78601426702E+02 -0.18165841432E+02  0.43001947641E+02  0.91418540655E+02  0.00000000000E+00 0. -1.
</event>
<event>
 7    1  0.6253338E-006  0.5012909E+02  0.7818608E-02  0.1538447E+00
          2   -1    0    0  502    0  0.00000000000E+00  0.00000000000E+00  0.22996149509E+04  0.22996149509E+04  0.00000000000E+00 0. -1.
          1   -1    0    0  501    0 -0.00000000000E+00 -0.00000000000E+00 -0.58582485222E+02  0.58582485222E+02  0.00000000000E+00 0. -1.
         25    2    1    2    0    0 -0.35357728249E+02 -0.12644292981E+02  0.43027823424E+03  0.44963710132E+03  0.12499646766E+03 0.  0.
          2    1    1    2  501    0  0.32779478860E+02  0.38615103108E+02 -0.35670203327E+02  0.61951463484E+02  0.00000000000E+00 0. -1.
          1    1    1    2  502    0  0.25782493892E+01 -0.25970810127E+02  0.18464244348E+04  0.18466088713E+04  0.00000000000E+00 0. -1.
         22    1    3    3    0    0  0.14355876587E+02  0.38226903514E+02  0.28467740527E+03  0.28759105065E+03  0.00000000000E+00 0. -1.
         22    1    3    3    0    0 -0.49713604836E+02 -0.50871196496E+02  0.14560082897E+03  0.16204605067E+03  0.00000000000E+00 0. -1.
</event>
<event>
 7    1  0.6253338E-006  0.9258459E+02  0.7818608E-02  0.1405742E+00
          2   -1    0    0  502    0  0.00000000000E+00  0.00000000000E+00  0.18602666658E+04  0.18602666658E+04  0.00000000000E+00 0. -1.
          1   -1    0    0  501    0 -0.00000000000E+00 -0.00000000000E+00 -0.56034765919E+03  0.56034765919E+03  0.00000000000E+00 0. -1.
         25    2    1    2    0    0 -0.34826422367E+02 -0.63721702158E+02  0.95344756958E+03  0.96435040844E+03  0.12504442134E+03 0.  0.
          2    1    1    2  501    0 -0.33143393005E+02 -0.15357494170E+02 -0.55127395338E+03  0.55248285838E+03  0.00000000000E+00 0. -1.
          1    1    1    2  502    0  0.67969815372E+02  0.79079196328E+02  0.89774539037E+03  0.90378105813E+03  0.00000000000E+00 0. -1.
         22    1    3    3    0    0 -0.47982871136E+01 -0.91055463148E+02  0.44278370198E+03  0.45207469257E+03  0.00000000000E+00 0. -1.
         22    1    3    3    0    0 -0.30028135253E+02  0.27333760991E+02  0.51066386760E+03  0.51227571587E+03  0.00000000000E+00 0. -1.
</event>
<event>
 7    1  0.6253338E-006  0.9485785E+02  0.7818608E-02  0.1401657E+00
          2   -1    0    0  502    0  0.00000000000E+00  0.00000000000E+00  0.11617622885E+04  0.11617622885E+04  0.00000000000E+00 0. -1.
          1   -1    0    0  501    0 -0.00000000000E+00 -0.00000000000E+00 -0.26384877602E+03  0.26384877602E+03  0.00000000000E+00 0. -1.
         25    2    1    2    0    0  0.42358116774E+02 -0.70793256605E+02  0.12438151992E+02  0.15028830236E+03  0.12500388380E+03 0.  0.
          2    1    1    2  501    0  0.34148565971E+02  0.13765779557E+02 -0.19105562695E+03  0.19457099947E+03  0.00000000000E+00 0. -1.
          1    1    1    2  502    0 -0.76506682745E+02  0.57027477048E+02  0.10765309874E+04  0.10807517627E+04  0.00000000000E+00 0. -1.
         22    1    3    3    0    0 -0.29382647384E+02  0.14064741602E+02  0.21131265909E+02  0.38828949542E+02  0.00000000000E+00 0. -1.
         22    1    3    3    0    0  0.71740764158E+02 -0.84857998206E+02 -0.86931139172E+01  0.11145935282E+03  0.00000000000E+00 0. -1.
</event>
<event>
 7    1  0.6253338E-006  0.1640888E+03  0.7818608E-02  0.1308968E+00
          2   -1    0    0  502    0  0.00000000000E+00  0.00000000000E+00  0.10544199551E+04  0.10544199551E+04  0.00000000000E+00 0. -1.
          1   -1    0    0  501    0 -0.00000000000E+00 -0.00000000000E+00 -0.51479438408E+02  0.51479438408E+02  0.00000000000E+00 0. -1.
         25    2    1    2    0    0 -0.17349840262E+03  0.47289823008E+02  0.49401158602E+03  0.54037996736E+03  0.12500015573E+03 0.  0.
          2    1    1    2  501    0  0.15848648746E+03 -0.30877796300E+01  0.21075910082E+03  0.26371746182E+03  0.00000000000E+00 0. -1.
          1    1    1    2  502    0  0.15011915158E+02 -0.44202043378E+02  0.29816982982E+03  0.30180196429E+03  0.00000000000E+00 0. -1.
         22    1    3    3    0    0 -0.12878528678E+03  0.40363666829E+02  0.47032989890E+03  0.48931083116E+03  0.00000000000E+00 0.  1.
         22    1    3    3    0    0 -0.44713115840E+02  0.69261561791E+01  0.23681687117E+02  0.51069136200E+02  0.00000000000E+00 0.  1.
</event>
<event>
 7    1  0.6253338E-006  0.2625751E+03  0.7818608E-02  0.1328503E+00
          2   -1    0    0  502    0  0.00000000000E+00  0.00000000000E+00  0.13820279935E+04  0.13820279935E+04  0.00000000000E+00 0. -1.
          1   -1    0    0  501    0 -0.00000000000E+00 -0.00000000000E+00 -0.21347035940E+04  0.21347035940E+04  0.00000000000E+00 0. -1.
         25    2    1    2    0    0 -0.19546475470E+03 -0.13727651066E+03 -0.39625648282E+03  0.47926761858E+03  0.12500775709E+03 0.  0.
          2    1    1    2  501    0 -0.18858389178E+02 -0.15627766802E+02 -0.16839249309E+04  0.16841030369E+04  0.00000000000E+00 0. -1.
          1    1    1    2  502    0  0.21432314387E+03  0.15290427746E+03  0.13275058132E+04  0.13533609320E+04  0.00000000000E+00 0. -1.
         22    1    3    3    0    0 -0.12857094954E+03 -0.10483216304E+03 -0.36035519572E+03  0.39670661521E+03  0.00000000000E+00 0. -1.
         22    1    3    3    0    0 -0.66893805157E+02 -0.32444347617E+02 -0.35901287103E+02  0.82561003363E+02  0.00000000000E+00 0. -1.
</event>
<event>
 7    1  0.6253338E-006  0.1138259E+03  0.7818608E-02  0.1255656E+00
          2   -1    0    0  502    0  0.00000000000E+00  0.00000000000E+00  0.19044035896E+04  0.19044035896E+04  0.00000000000E+00 0. -1.
          1   -1    0    0  501    0 -0.00000000000E+00 -0.00000000000E+00 -0.70829244559E+02  0.70829244559E+02  0.00000000000E+00 0. -1.
         25    2    1    2    0    0 -0.18086207630E+02 -0.75081317281E+02  0.79976329502E+03  0.81314667999E+03  0.12498751938E+03 0.  0.
          2    1    1    2  501    0 -0.93490906725E+02  0.74597663170E+02 -0.26521324754E+01  0.11963442146E+03  0.00000000000E+00 0. -1.
          1    1    1    2  502    0  0.11157711435E+03  0.48365411104E+00  0.10364631825E+04  0.10424517327E+04  0.00000000000E+00 0. -1.
         22    1    3    3    0    0  0.32808359189E+02  0.13888156680E+02  0.35216751452E+03  0.35396500902E+03  0.00000000000E+00 0.  1.
         22    1    3    3    0    0 -0.50894566819E+02 -0.88969473962E+02  0.44759578050E+03  0.45918167097E+03  0.00000000000E+00 0.  1.
</event>
<event>
 7    1  0.6253338E-006  0.6965960E+02  0.7818608E-02  0.1404688E+00
          2   -1    0    0  502    0  0.00000000000E+00  0.00000000000E+00  0.97282457364E+01  0.97282457364E+01  0.00000000000E+00 0. -1.
          1   -1    0    0  501    0 -0.00000000000E+00 -0.00000000000E+00 -0.40794731353E+04  0.40794731353E+04  0.00000000000E+00 0. -1.
         25    2    1    2    0    0  0.54056505369E+01  0.24570464510E+02 -0.27137396763E+04  0.27167336259E+04  0.12500253806E+03 0.  0.
          2    1    1    2  501    0 -0.10848843304E+02  0.47736944647E+02 -0.11936737270E+04  0.11946771446E+04  0.00000000000E+00 0. -1.
          1    1    1    2  502    0  0.54431927674E+01 -0.72307409156E+02 -0.16233148619E+03  0.17779061048E+03  0.00000000000E+00 0. -1.
         22    1    3    3    0    0  0.29972652946E+02 -0.43992482183E+02 -0.94916575028E+03  0.95065730940E+03  0.00000000000E+00 0.  1.
         22    1    3    3    0    0 -0.24567002409E+02  0.68562946693E+02 -0.17645739260E+04  0.17660763165E+04  0.00000000000E+00 0.  1.
</event>
<event>
 7    1  0.6253338E-006  0.7625602E+02  0.7818608E-02  0.1445384E+00
          2   -1    0    0  502    0  0.00000000000E+00  0.00000000000E+00  0.32580391853E+03  0.32580391853E+03  0.00000000000E+00 0. -1.
          1   -1    0    0  501    0 -0.00000000000E+00 -0.00000000000E+00 -0.10669107314E+04  0.10669107314E+04  0.00000000000E+00 0. -1.
         25    2    1    2    0    0  0.15011306028E+00 -0.93288551290E+02 -0.20786338827E+03  0.25987660346E+03  0.12500353797E+03 0.  0.
          2    1    1    2  501    0 -0.24500075552E+02  0.71352126577E+02 -0.83043002364E+03  0.83384974896E+03  0.00000000000E+00 0. -1.
          1    1    1    2  502    0  0.24349962492E+02  0.21936424712E+02  0.29718659905E+03  0.29898829752E+03  0.00000000000E+00 0. -1.
         22    1    3    3    0    0  0.42002799571E+02 -0.10360846859E+03 -0.16303983310E+03  0.19768899087E+03  0.00000000000E+00 0. -1.
         22    1    3    3    0    0 -0.41852686511E+02  0.10319917295E+02 -0.44823555175E+02  0.62187612590E+02  0.00000000000E+00 0. -1.
</event>
<event>
 7    1  0.6253338E-006  0.9354325E+02  0.7818608E-02  0.1330407E+00
          2   -1    0    0  502    0  0.00000000000E+00  0.00000000000E+00  0.54845502473E+03  0.54845502473E+03  0.00000000000E+00 0. -1.
          1   -1    0    0  501    0 -0.00000000000E+00 -0.00000000000E+00 -0.14576419774E+03  0.14576419774E+03  0.00000000000E+00 0. -1.
         25    2    1    2    0    0  0.10739761065E+03 -0.11692580963E+02  0.47853914702E+02  0.17200709879E+03  0.12500192663E+03 0.  0.
          2    1    1    2  501    0 -0.27652152007E+02  0.61692587081E+02 -0.63900584238E+02  0.93026348297E+02  0.00000000000E+00 0. -1.
          1    1    1    2  502    0 -0.79745458643E+02 -0.50000006118E+02  0.41873749653E+03  0.42918577538E+03  0.00000000000E+00 0. -1.
         22    1    3    3    0    0  0.22646672276E+02  0.50512895101E+02  0.36406593403E+02  0.66256051648E+02  0.00000000000E+00 0.  1.
         22    1    3    3    0    0  0.84750938375E+02 -0.62205476065E+02  0.11447321298E+02  0.10575104715E+03  0.00000000000E+00 0.  1.
</event>
<event>
 7    1  0.6253338E-006  0.9259449E+02  0.7818608E-02  0.1435968E+00
          2   -1    0    0  502    0  0.00000000000E+00  0.00000000000E+00  0.19003528762E+04  0.19003528762E+04  0.00000000000E+00 0. -1.
          1   -1    0    0  501    0 -0.00000000000E+00 -0.00000000000E+00 -0.61099053030E+02  0.61099053030E+02  0.00000000000E+00 0. -1.
         25    2    1    2    0    0  0.22923585703E+01  0.93566085761E+02  0.49224602596E+03  0.51642131580E+03  0.12499983209E+03 0.  0.
          2    1    1    2  501    0 -0.28621550989E+02 -0.43917290716E+01 -0.43041356094E+02  0.51875223370E+02  0.00000000000E+00 0. -1.
          1    1    1    2  502    0  0.26329192419E+02 -0.89174356689E+02  0.13900491533E+04  0.13931553901E+04  0.00000000000E+00 0. -1.
         22    1    3    3    0    0  0.42847971574E+02  0.16144723301E+02  0.32010623078E+03  0.32336449982E+03  0.00000000000E+00 0. -1.
         22    1    3    3    0    0 -0.40555613004E+02  0.77421362460E+02  0.17213979518E+03  0.19305681598E+03  0.00000000000E+00 0. -1.
</event>
<event>
 7    1  0.6253338E-006  0.2725324E+02  0.7818608E-02  0.1643949E+00
          2   -1    0    0  502    0  0.00000000000E+00  0.00000000000E+00  0.78187234147E+03  0.78187234147E+03  0.00000000000E+00 0. -1.
          1   -1    0    0  501    0 -0.00000000000E+00 -0.00000000000E+00 -0.19010334948E+03  0.19010334948E+03  0.00000000000E+00 0. -1.
         25    2    1    2    0    0  0.26534222978E+02  0.32108221777E+02  0.15608327365E+02  0.13267873818E+03  0.12500009915E+03 0.  0.
          2    1    1    2  501    0 -0.26242418511E+02 -0.68662227775E+01 -0.12994204218E+03  0.13274314999E+03  0.00000000000E+00 0. -1.
          1    1    1    2  502    0 -0.29180446708E+00 -0.25241999000E+02  0.70610270680E+03  0.70655380278E+03  0.00000000000E+00 0. -1.
         22    1    3    3    0    0 -0.48734214399E+01  0.61085619369E+02  0.48987940145E+02  0.78453944514E+02  0.00000000000E+00 0.  1.
         22    1    3    3    0    0  0.31407644418E+02 -0.28977397591E+02 -0.33379612779E+02  0.54224793668E+02  0.00000000000E+00 0.  1.
</event>
<event>
 7    1  0.6253338E-006  0.6519472E+02  0.7818608E-02  0.1452813E+00
          2   -1    0    0  502    0  0.00000000000E+00  0.00000000000E+00  0.10397553935E+04  0.10397553935E+04  0.00000000000E+00 0. -1.
          1   -1    0    0  501    0 -0.00000000000E+00 -0.00000000000E+00 -0.49006940858E+03  0.49006940858E+03  0.00000000000E+00 0. -1.
         25    2    1    2    0    0  0.25594128821E+02 -0.94728098244E+02 -0.21536647818E+03  0.26764906152E+03  0.12499931273E+03 0.  0.
          2    1    1    2  501    0  0.27833530671E+01  0.36183527779E+02 -0.24618608245E+03  0.24884650274E+03  0.00000000000E+00 0. -1.
          1    1    1    2  502    0 -0.28377481888E+02  0.58544570465E+02  0.10112385455E+04  0.10133292378E+04  0.00000000000E+00 0. -1.
         22    1    3    3    0    0 -0.35952957382E+02 -0.46364853805E+02 -0.16360519632E+03  0.17380729293E+03  0.00000000000E+00 0. -1.
         22    1    3    3    0    0  0.61547086202E+02 -0.48363244439E+02 -0.51761281860E+02  0.93841768592E+02  0.00000000000E+00 0. -1.
</event>
<event>
 7    1  0.6253338E-006  0.1019238E+03  0.7818608E-02  0.1295275E+00
          2   -1    0    0  502    0  0.00000000000E+00  0.00000000000E+00  0.43363806929E+03  0.43363806929E+03  0.00000000000E+00 0. -1.
          1   -1    0    0  501    0 -0.00000000000E+00 -0.00000000000E+00 -0.16470290243E+04  0.16470290243E+04  0.00000000000E+00 0. -1.
         25    2    1    2    0    0 -0.12982100225E+03  0.13086617785E+03 -0.99898232257E+02  0.24409667714E+03  0.12499632735E+03 0.  0.
          2    1    1    2  501    0  0.63717859893E+02 -0.77067722180E+02 -0.14682843321E+04  0.14716855232E+04  0.00000000000E+00 0. -1.
          1    1    1    2  502    0  0.66103142362E+02 -0.53798455671E+02  0.35479160932E+03  0.36488489323E+03  0.00000000000E+00 0. -1.
         22    1    3    3    0    0  0.10812241203E+02  0.66746877730E+02 -0.38324087719E+02  0.77722493179E+02  0.00000000000E+00 0.  1.
         22    1    3    3    0    0 -0.14063324346E+03  0.64119300121E+02 -0.61574144538E+02  0.16637418396E+03  0.00000000000E+00 0.  1.
</event>
<event>
 7    1  0.6253338E-006  0.1425815E+03  0.7818608E-02  0.1263899E+00
          2   -1    0    0  502    0  0.00000000000E+00  0.00000000000E+00  0.28031255827E+04  0.28031255827E+04  0.00000000000E+00 0. -1.
          1   -1    0    0  501    0 -0.00000000000E+00 -0.00000000000E+00 -0.53008198806E+02  0.53008198806E+02  0.00000000000E+00 0. -1.
         25    2    1    2    0    0 -0.50021922185E+02 -0.76250381319E+02  0.88515537721E+03  0.89857809100E+03  0.12500492179E+03 0.  0.
          2    1    1    2  501    0 -0.42705439241E+02 -0.70168301712E+02 -0.23912930078E+01  0.82177024698E+02  0.00000000000E+00 0. -1.
          1    1    1    2  502    0  0.92727361426E+02  0.14641868303E+03  0.18673532997E+04  0.18753786658E+04  0.00000000000E+00 0. -1.
         22    1    3    3    0    0 -0.36757434233E+01 -0.60005096510E+02  0.78222624411E+03  0.78453299463E+03  0.00000000000E+00 0. -1.
         22    1    3    3    0    0 -0.46346178762E+02 -0.16245284809E+02  0.10292913311E+03  0.11404509637E+03  0.00000000000E+00 0. -1.
</event>
<event>
 7    1  0.6253338E-006  0.4341274E+02  0.7818608E-02  0.1501330E+00
          2   -1    0    0  502    0  0.00000000000E+00  0.00000000000E+00  0.10863901523E+04  0.10863901523E+04  0.00000000000E+00 0. -1.
          1   -1    0    0  501    0 -0.00000000000E+00 -0.00000000000E+00 -0.53601278772E+02  0.53601278772E+02  0.00000000000E+00 0. -1.
         25    2    1    2    0    0 -0.79651453337E+02 -0.15352366854E+02  0.44198001341E+03  0.46642163297E+03  0.12499103275E+03 0.  0.
          2    1    1    2  501    0  0.41641769382E+02  0.84671772385E+01 -0.29709902649E+02  0.51849863675E+02  0.00000000000E+00 0. -1.
          1    1    1    2  502    0  0.38009683955E+02  0.68851896157E+01  0.62051876277E+03  0.62171993442E+03  0.00000000000E+00 0. -1.
         22    1    3    3    0    0 -0.73238315760E+02 -0.13730246025E+02  0.44994188988E+03  0.45607025207E+03  0.00000000000E+00 0.  1.
         22    1    3    3    0    0 -0.64131375772E+01 -0.16221208293E+01 -0.79618764767E+01  0.10351380903E+02  0.00000000000E+00 0.  1.
</event>
<event>
 7    1  0.6253338E-006  0.9562844E+02  0.7818608E-02  0.1465565E+00
          2   -1    0    0  502    0  0.00000000000E+00  0.00000000000E+00  0.38402934951E+02  0.38402934951E+02  0.00000000000E+00 0. -1.
          1   -1    0    0  501    0 -0.00000000000E+00 -0.00000000000E+00 -0.95166774729E+03  0.95166774729E+03  0.00000000000E+00 0. -1.
         25    2    1    2    0    0  0.22524694315E+02  0.88411792531E+02 -0.40718853417E+03  0.43560560702E+03  0.12500294233E+03 0.  0.
          2    1    1    2  501    0 -0.20804301680E+02  0.86990720609E+01 -0.43129896628E+03  0.43188805395E+03  0.00000000000E+00 0. -1.
          1    1    1    2  502    0 -0.17203926340E+01 -0.97110864592E+02 -0.74777311881E+02  0.12257702128E+03  0.00000000000E+00 0. -1.
         22    1    3    3    0    0  0.55328047616E+02  0.76418779857E+02 -0.37945245396E+03  0.39100535493E+03  0.00000000000E+00 0. -1.
         22    1    3    3    0    0 -0.32803353302E+02  0.11993012674E+02 -0.27736080213E+02  0.44600252089E+02  0.00000000000E+00 0. -1.
</event>
<event>
 7    1  0.6253338E-006  0.1693798E+03  0.7818608E-02  0.1183202E+00
          2   -1    0    0  502    0  0.00000000000E+00  0.00000000000E+00  0.20157375815E+04  0.20157375815E+04  0.00000000000E+00 0. -1.
          1   -1    0    0  501    0 -0.00000000000E+00 -0.00000000000E+00 -0.54506812253E+03  0.54506812253E+03  0.00000000000E+00 0. -1.
         25    2    1    2    0    0 -0.11779555313E+03 -0.63624019202E+02  0.36525293084E+02  0.18677215828E+03  0.12500373561E+03 0.  0.
          2    1    1    2  501    0  0.16046336821E+03 -0.91273042163E+02 -0.44826024686E+03  0.48478501388E+03  0.00000000000E+00 0. -1.
          1    1    1    2  502    0 -0.42667815080E+02  0.15489706136E+03  0.18824044128E+04  0.18892485319E+04  0.00000000000E+00 0. -1.
         22    1    3    3    0    0 -0.96232619536E+02 -0.78056107726E+02  0.71626677422E+02  0.14312181502E+03  0.00000000000E+00 0. -1.
         22    1    3    3    0    0 -0.21562933597E+02  0.14432088524E+02 -0.35101384337E+02  0.43650343261E+02  0.00000000000E+00 0. -1.
</event>
<event>
 7    1  0.6253338E-006  0.1000956E+03  0.7818608E-02  0.1350860E+00
          2   -1    0    0  502    0  0.00000000000E+00  0.00000000000E+00  0.29988552857E+03  0.29988552857E+03  0.00000000000E+00 0. -1.
          1   -1    0    0  501    0 -0.00000000000E+00 -0.00000000000E+00 -0.12715043533E+03  0.12715043533E+03  0.00000000000E+00 0. -1.
         25    2    1    2    0    0  0.28157566410E+02 -0.12864647974E+03  0.15490000770E+03  0.23866599501E+03  0.12499871795E+03 0.  0.
          2    1    1    2  501    0 -0.31429792935E+02  0.42589328356E+02 -0.54448081412E+02  0.75936001627E+02  0.00000000000E+00 0. -1.
          1    1    1    2  502    0  0.32722265242E+01  0.86057151389E+02  0.72283166949E+02  0.11243396727E+03  0.00000000000E+00 0. -1.
         22    1    3    3    0    0  0.72334964669E+02 -0.49620036916E+02  0.98965456173E+02  0.13224468493E+03  0.00000000000E+00 0. -1.
         22    1    3    3    0    0 -0.44177398259E+02 -0.79026442829E+02  0.55934551528E+02  0.10642131007E+03  0.00000000000E+00 0. -1.
</event>
<event>
 7    1  0.6253338E-006  0.1669091E+03  0.7818608E-02  0.1235598E+00
          2   -1    0    0  502    0  0.00000000000E+00  0.00000000000E+00  0.13720496596E+04  0.13720496596E+04  0.00000000000E+00 0. -1.
          1   -1    0    0  501    0 -0.00000000000E+00 -0.00000000000E+00 -0.42991425884E+03  0.42991425884E+03  0.00000000000E+00 0. -1.
         25    2    1    2    0    0 -0.13095141671E+03 -0.16481143057E+03 -0.97262882948E+02  0.26343046814E+03  0.12499784783E+03 0.  0.
          2    1    1    2  501    0  0.38595586269E+02  0.15299734453E+03 -0.22273924607E+03  0.27296625882E+03  0.00000000000E+00 0. -1.
          1    1    1    2  502    0  0.92355830442E+02  0.11814086036E+02  0.12621375298E+04  0.12655671914E+04  0.00000000000E+00 0. -1.
         22    1    3    3    0    0 -0.45794847787E+02 -0.40814242689E+02 -0.94887192931E+02  0.11298915821E+03  0.00000000000E+00 0.  1.
         22    1    3    3    0    0 -0.85156568924E+02 -0.12399718788E+03 -0.23756900177E+01  0.15044130994E+03  0.00000000000E+00 0.  1.
</event>
<event>
 7    1  0.6253338E-006  0.5051605E+02  0.7818608E-02  0.1476238E+00
          2   -1    0    0  502    0  0.00000000000E+00  0.00000000000E+00  0.11217876267E+04  0.11217876267E+04  0.00000000000E+00 0. -1.
          1   -1    0    0  501    0 -0.00000000000E+00 -0.00000000000E+00 -0.34303390844E+02  0.34303390844E+02  0.00000000000E+00 0. -1.
         25    2    1    2    0    0  0.25872292818E+02 -0.69615340509E+01  0.17682824286E+03  0.21820186479E+03  0.12500395126E+03 0.  0.
          2    1    1    2  501    0 -0.41258619117E+02  0.43395217642E+02  0.54953012622E+02  0.81272702440E+02  0.00000000000E+00 0. -1.
          1    1    1    2  502    0  0.15386326299E+02 -0.36433683591E+02  0.85570298035E+03  0.85661645030E+03  0.00000000000E+00 0. -1.
         22    1    3    3    0    0  0.25221807049E+02  0.53659131262E+02  0.12536880260E+03  0.13868229370E+03  0.00000000000E+00 0. -1.
         22    1    3    3    0    0  0.65048576937E+00 -0.60620665313E+02  0.51459440259E+02  0.79519571091E+02  0.00000000000E+00 0. -1.
</event>
<event>
 7    1  0.6253338E-006  0.1076004E+03  0.7818608E-02  0.1335339E+00
          2   -1    0    0  502    0  0.00000000000E+00  0.00000000000E+00  0.12827740869E+04  0.12827740869E+04  0.00000000000E+00 0. -1.
          1   -1    0    0  501    0 -0.00000000000E+00 -0.00000000000E+00 -0.41389052477E+03  0.41389052477E+03  0.00000000000E+00 0. -1.
         25    2    1    2    0    0  0.77745848657E+02  0.67241495591E+02 -0.17941183479E+03  0.24161300402E+03  0.12498960571E+03 0.  0.
          2    1    1    2  501    0 -0.11254644247E+03 -0.22998982857E+02 -0.18646502669E+03  0.21900881513E+03  0.00000000000E+00 0. -1.
          1    1    1    2  502    0  0.34800593810E+02 -0.44242512733E+02  0.12347604236E+04  0.12360427925E+04  0.00000000000E+00 0. -1.
         22    1    3    3    0    0  0.61809850324E+02 -0.14836657440E+02 -0.29757668521E+02  0.70186201185E+02  0.00000000000E+00 0.  1.
         22    1    3    3    0    0  0.15935998333E+02  0.82078153031E+02 -0.14965416627E+03  0.17142680283E+03  0.00000000000E+00 0.  1.
</event>
<event>
 7    1  0.6253338E-006  0.1487950E+03  0.7818608E-02  0.1293282E+00
          2   -1    0    0  502    0  0.00000000000E+00  0.00000000000E+00  0.91064211166E+03  0.91064211166E+03  0.00000000000E+00 0. -1.
          1   -1    0    0  501    0 -0.00000000000E+00 -0.00000000000E+00 -0.51745008210E+03  0.51745008210E+03  0.00000000000E+00 0. -1.
         25    2    1    2    0    0 -0.13137805914E+03 -0.12578195649E+02  0.46559788368E+02  0.18765026637E+03  0.12500561245E+03 0.  0.
          2    1    1    2  501    0 -0.19181475941E+01 -0.59442451744E+02 -0.43764336662E+03  0.44166593790E+03  0.00000000000E+00 0. -1.
          1    1    1    2  502    0  0.13329620674E+03  0.72020647392E+02  0.78427560781E+03  0.79877598949E+03  0.00000000000E+00 0. -1.
         22    1    3    3    0    0 -0.10506370416E+03 -0.42705582896E+02 -0.14831226049E+02  0.11437706941E+03  0.00000000000E+00 0.  1.
         22    1    3    3    0    0 -0.26314354989E+02  0.30127387247E+02  0.61391014417E+02  0.73273196955E+02  0.00000000000E+00 0.  1.
</event>
<event>
 7    1  0.6253338E-006  0.1041875E+03  0.7818608E-02  0.1419898E+00
          2   -1    0    0  502    0  0.00000000000E+00  0.00000000000E+00  0.93015546976E+03  0.93015546976E+03  0.00000000000E+00 0. -1.
          1   -1    0    0  501    0 -0.00000000000E+00 -0.00000000000E+00 -0.68121464884E+03  0.68121464884E+03  0.00000000000E+00 0. -1.
         25    2    1    2    0    0 -0.65592034444E+02  0.10551806814E+03 -0.26238446475E+03  0.31607584265E+03  0.12498781253E+03 0.  0.
          2    1    1    2  501    0  0.27766141167E+02 -0.86395310527E+01 -0.38844572824E+03  0.38953264802E+03  0.00000000000E+00 0. -1.
          1    1    1    2  502    0  0.37825893278E+02 -0.96878537088E+02  0.89977101390E+03  0.90576162792E+03  0.00000000000E+00 0. -1.
         22    1    3    3    0    0 -0.36876715506E+02  0.14690106616E+02 -0.30645557698E+01  0.39813099364E+02  0.00000000000E+00 0. -1.
         22    1    3    3    0    0 -0.28715318938E+02  0.90827961525E+02 -0.25931990898E+03  0.27626274329E+03  0.00000000000E+00 0. -1.
</event>
<event>
 7    1  0.6253338E-006  0.1213527E+03  0.7818608E-02  0.1292518E+00
          2   -1    0    0  502    0  0.00000000000E+00  0.00000000000E+00  0.62036835004E+03  0.62036835004E+03  0.00000000000E+00 0. -1.
          1   -1    0    0  501    0 -0.00000000000E+00 -0.00000000000E+00 -0.43563290820E+03  0.43563290820E+03  0.00000000000E+00 0. -1.
         25    2    1    2    0    0 -0.12976002899E+03  0.98953707122E+02 -0.13720902334E+02  0.20601725358E+03  0.12500137733E+03 0.  0.
          2    1    1    2  501    0  0.56467709174E+02 -0.10366772827E+03 -0.31235594708E+03  0.33391890893E+03  0.00000000000E+00 0. -1.
          1    1    1    2  502    0  0.73292319816E+02  0.47140211488E+01  0.51081229126E+03  0.51606509574E+03  0.00000000000E+00 0. -1.
         22    1    3    3    0    0  0.57917424326E+01 -0.54659288017E+01 -0.32889118181E+02  0.33839544217E+02  0.00000000000E+00 0. -1.
         22    1    3    3    0    0 -0.13555177142E+03  0.10441963592E+03  0.19168215847E+02  0.17217770936E+03  0.00000000000E+00 0. -1.
</event>
<event>
 7    1  0.6253338E-006  0.2662736E+03  0.7818608E-02  0.1192884E+00
          2   -1    0    0  502    0  0.00000000000E+00  0.00000000000E+00  0.12568020943E+04  0.12568020943E+04  0.00000000000E+00 0. -1.
          1   -1    0    0  501    0 -0.00000000000E+00 -0.00000000000E+00 -0.18733801686E+03  0.18733801686E+03  0.00000000000E+00 0. -1.
         25    2    1    2    0    0  0.18665824042E+03 -0.10511866394E+03  0.91670096701E+03  0.94966133587E+03  0.12499903080E+03 0.  0.
          2    1    1    2  501    0 -0.26698696055E+03  0.60678696155E+02 -0.44042467917E+02  0.27731512806E+03  0.00000000000E+00 0. -1.
          1    1    1    2  502    0  0.80328720122E+02  0.44439967788E+02  0.19680557833E+03  0.21716364722E+03  0.00000000000E+00 0. -1.
         22    1    3    3    0    0 -0.18023667813E+02 -0.10418909742E+01  0.81031186576E+02  0.83018018142E+02  0.00000000000E+00 0. -1.
         22    1    3    3    0    0  0.20468190824E+03 -0.10407677297E+03  0.83566978044E+03  0.86664331773E+03  0.00000000000E+00 0. -1.
</event>
<event>
 7    1  0.6253338E-006  0.5334385E+02  0.7818608E-02  0.1466433E+00
          2   -1    0    0  502    0  0.00000000000E+00  0.00000000000E+00  0.23853836496E+03  0.23853836496E+03  0.00000000000E+00 0. -1.
          1   -1    0    0  501    0 -0.00000000000E+00 -0.00000000000E+00 -0.10809485772E+04  0.10809485772E+04  0.00000000000E+00 0. -1.
         25    2    1    2    0    0  0.40731971263E+02 -0.52819027017E+02 -0.20517080654E+03  0.24933716886E+03  0.12500008328E+03 0.  0.
          2    1    1    2  501    0 -0.56262750522E+00  0.53323759660E+02 -0.85098883919E+03  0.85265804653E+03  0.00000000000E+00 0. -1.
          1    1    1    2  502    0 -0.40169343758E+02 -0.50473264253E+00  0.21374943345E+03  0.21749172681E+03  0.00000000000E+00 0. -1.
         22    1    3    3    0    0 -0.11188380274E+02 -0.78731064991E+02 -0.14724198890E+03  0.16734384883E+03  0.00000000000E+00 0. -1.
         22    1    3    3    0    0  0.51920351536E+02  0.25912037974E+02 -0.57928817643E+02  0.81993320027E+02  0.00000000000E+00 0. -1.
</event>
<event>
 7    1  0.6253338E-006  0.1596127E+03  0.7818608E-02  0.1230119E+00
          2   -1    0    0  502    0  0.00000000000E+00  0.00000000000E+00  0.37295999139E+03  0.37295999139E+03  0.00000000000E+00 0. -1.
          1   -1    0    0  501    0 -0.00000000000E+00 -0.00000000000E+00 -0.16078969718E+04  0.16078969718E+04  0.00000000000E+00 0. -1.
         25    2    1    2    0    0  0.96548601575E+02 -0.68082825260E+02 -0.26222270348E+02  0.17398106856E+03  0.12499960477E+03 0.  0.
          2    1    1    2  501    0  0.78399030154E+02  0.66807888423E+02 -0.14802662580E+04  0.14838456445E+04  0.00000000000E+00 0. -1.
          1    1    1    2  502    0 -0.17494763173E+03  0.12749368363E+01  0.27155154798E+03  0.32303025017E+03  0.00000000000E+00 0. -1.
         22    1    3    3    0    0  0.69252668107E+02  0.15625654383E+02  0.21047704539E+02  0.74047950554E+02  0.00000000000E+00 0.  1.
         22    1    3    3    0    0  0.27295933467E+02 -0.83708479642E+02 -0.47269974887E+02  0.99933118002E+02  0.00000000000E+00 0.  1.
</event>
<event>
 7    1  0.6253338E-006  0.2067338E+03  0.7818608E-02  0.1218357E+00
          2   -1    0    0  502    0  0.00000000000E+00  0.00000000000E+00  0.10810245647E+04  0.10810245647E+04  0.00000000000E+00 0. -1.
          1   -1    0    0  501    0 -0.00000000000E+00 -0.00000000000E+00 -0.63866089812E+03  0.63866089812E+03  0.00000000000E+00 0. -1.
         25    2    1    2    0    0 -0.17650486819E+03 -0.77663459347E+02  0.29247604938E+03  0.37195722223E+03  0.12499741716E+03 0.  0.
          2    1    1    2  501    0  0.31422088432E+02 -0.84229449102E+02 -0.57960384210E+03  0.58653436517E+03  0.00000000000E+00 0. -1.
          1    1    1    2  502    0  0.14508277975E+03  0.16189290845E+03  0.72949145930E+03  0.76119387542E+03  0.00000000000E+00 0. -1.
         22    1    3    3    0    0 -0.12472430474E+03 -0.59175798206E+02  0.96551235764E+02  0.16846384898E+03  0.00000000000E+00 0. -1.
         22    1    3    3    0    0 -0.51780563449E+02 -0.18487661140E+02  0.19592481362E+03  0.20349337325E+03  0.00000000000E+00 0. -1.
</event>
<event>
 7    1  0.6253338E-006  0.7579943E+02  0.7818608E-02  0.1412858E+00
          2   -1    0    0  502    0  0.00000000000E+00  0.00000000000E+00  0.89443240299E+03  0.89443240299E+03  0.00000000000E+00 0. -1.
          1   -1    0    0  501    0 -0.00000000000E+00 -0.00000000000E+00 -0.22270372873E+04  0.22270372873E+04  0.00000000000E+00 0. -1.
         25    2    1    2    0    0  0.34378651400E+02  0.46307443222E+02  0.45897257594E+03  0.47916996067E+03  0.12498701843E+03 0.  0.
          2    1    1    2  501    0  0.41597197347E+02 -0.71398338240E+01 -0.22124410460E+04  0.22128435747E+04  0.00000000000E+00 0. -1.
          1    1    1    2  502    0 -0.75975848747E+02 -0.39167609398E+02  0.42086358574E+03  0.42945615494E+03  0.00000000000E+00 0. -1.
         22    1    3    3    0    0 -0.33192278713E+02 -0.17721526854E+02  0.21040989608E+03  0.21374775846E+03  0.00000000000E+00 0.  1.
         22    1    3    3    0    0  0.67570930113E+02  0.64028970075E+02  0.24856267986E+03  0.26542220220E+03  0.00000000000E+00 0.  1.
</event>
<event>
 7    1  0.6253338E-006  0.4139190E+02  0.7818608E-02  0.1586774E+00
          2   -1    0    0  502    0  0.00000000000E+00  0.00000000000E+00  0.21032513273E+04  0.21032513273E+04  0.00000000000E+00 0. -1.
          1   -1    0    0  501    0 -0.00000000000E+00 -0.00000000000E+00 -0.32639630305E+02  0.32639630305E+02  0.00000000000E+00 0. -1.
         25    2    1    2    0    0 -0.13766861506E+02 -0.14955084581E+02  0.38552358179E+03  0.40579134952E+03  0.12500002480E+03 0.  0.
          2    1    1    2  501    0  0.20381256156E+02  0.37286758354E+02 -0.22953114064E+01  0.42555450949E+02  0.00000000000E+00 0. -1.
          1    1    1    2  502    0 -0.66143946500E+01 -0.22331673773E+02  0.16873834266E+04  0.16875441572E+04  0.00000000000E+00 0. -1.
         22    1    3    3    0    0  0.28374415026E+02 -0.51879653272E+02  0.28144257820E+03  0.28758743136E+03  0.00000000000E+00 0.  1.
         22    1    3    3    0    0 -0.42141276533E+02  0.36924568691E+02  0.10408100359E+03  0.11820391816E+03  0.00000000000E+00 0.  1.
</event>
<event>
 7    1  0.6253338E-006  0.8161769E+02  0.7818608E-02  0.1494375E+00
          2   -1    0    0  502    0  0.00000000000E+00  0.00000000000E+00  0.80469454168E+03  0.80469454168E+03  0.00000000000E+00 0. -1.
          1   -1    0    0  501    0 -0.00000000000E+00 -0.00000000000E+00 -0.16494907917E+03  0.16494907917E+03  0.00000000000E+00 0. -1.
         25    2    1    2    0    0 -0.54332472887E+02 -0.38128598367E+02  0.12634421683E+03  0.18971641814E+03  0.12499460213E+03 0.  0.
          2    1    1    2  501    0  0.75540377803E+02  0.34274447119E+02 -0.12015306129E+03  0.14600631679E+03  0.00000000000E+00 0. -1.
          1    1    1    2  502    0 -0.21207904916E+02  0.38541512482E+01  0.63355430697E+03  0.63392088591E+03  0.00000000000E+00 0. -1.
         22    1    3    3    0    0  0.82785977526E+01  0.46752727729E+01 -0.21524820827E+02  0.23531070266E+02  0.00000000000E+00 0.  1.
         22    1    3    3    0    0 -0.62611070639E+02 -0.42803871140E+02  0.14786903765E+03  0.16618534787E+03  0.00000000000E+00 0.  1.
</event>
<event>
 7    1  0.6253338E-006  0.1141922E+03  0.7818608E-02  0.1313467E+00
          2   -1    0    0  502    0  0.00000000000E+00  0.00000000000E+00  0.27524829207E+04  0.27524829207E+04  0.00000000000E+00 0. -1.
          1   -1    0    0  501    0 -0.00000000000E+00 -0.00000000000E+00 -0.20604917980E+03  0.20604917980E+03  0.00000000000E+00 0. -1.
         25    2    1    2    0    0 -0.51824278924E+02 -0.11536018044E+03  0.84922707867E+03  0.86764144727E+03  0.12498529017E+03 0.  0.
          2    1    1    2  501    0  0.64385464853E+02  0.14169016910E+01 -0.18978811699E+03  0.20041712763E+03  0.00000000000E+00 0. -1.
          1    1    1    2  502    0 -0.12561185929E+02  0.11394327875E+03  0.18869947793E+04  0.18904735256E+04  0.00000000000E+00 0. -1.
         22    1    3    3    0    0  0.83546438383E+01 -0.47419751371E+02  0.82206827758E+02  0.95270118210E+02  0.00000000000E+00 0.  1.
         22    1    3    3    0    0 -0.60178922762E+02 -0.67940429068E+02  0.76702025091E+03  0.77237132906E+03  0.00000000000E+00 0.  1.
</event>
<event>
 7    1  0.6253338E-006  0.1812776E+03  0.7818608E-02  0.1206095E+00
          2   -1    0    0  502    0  0.00000000000E+00  0.00000000000E+00  0.20591934258E+04  0.20591934258E+04  0.00000000000E+00 0. -1.
          1   -1    0    0  501    0 -0.00000000000E+00 -0.00000000000E+00 -0.72026981618E+03  0.72026981618E+03  0.00000000000E+00 0. -1.
         25    2    1    2    0    0  0.27620755465E+03  0.10788147409E+03 -0.37370654226E+03  0.49316335009E+03  0.12499793776E+03 0.  0.
          2    1    1    2  501    0 -0.11151648259E+03 -0.34759161654E+02 -0.27068663299E+03  0.29481414228E+03  0.00000000000E+00 0. -1.
          1    1    1    2  502    0 -0.16469107206E+03 -0.73122312433E+02  0.19833167849E+04  0.19914857497E+04  0.00000000000E+00 0. -1.
         22    1    3    3    0    0  0.22587681387E+03  0.28329262634E+02 -0.26647399106E+03  0.35047292346E+03  0.00000000000E+00 0.  1.
         22    1    3    3    0    0  0.50330740778E+02  0.79552211453E+02 -0.10723255120E+03  0.14269042663E+03  0.00000000000E+00 0.  1.
</event>
<event>
 7    1  0.6253338E-006  0.3852205E+02  0.7818608E-02  0.1551127E+00
          2   -1    0    0  502    0  0.00000000000E+00  0.00000000000E+00  0.12779915868E+04  0.12779915868E+04  0.00000000000E+00 0. -1.
          1   -1    0    0  501    0 -0.00000000000E+00 -0.00000000000E+00 -0.13196765452E+04  0.13196765452E+04  0.00000000000E+00 0. -1.
         25    2    1    2    0    0  0.18536783855E+02 -0.37544402742E+02  0.29375422152E+03  0.32198844106E+03  0.12502727296E+03 0.  0.
          2    1    1    2  501    0  0.12729124937E+02  0.36367182616E+02 -0.13050227482E+04  0.13055914276E+04  0.00000000000E+00 0. -1.
          1    1    1    2  502    0 -0.31265908792E+02  0.11772201264E+01  0.96958356827E+03  0.97008826338E+03  0.00000000000E+00 0. -1.
         22    1    3    3    0    0  0.21468857038E+02  0.40328536830E+02  0.16751701363E+03  0.17363540123E+03  0.00000000000E+00 0.  1.
         22    1    3    3    0    0 -0.29320731832E+01 -0.77872939572E+02  0.12623720789E+03  0.14835303983E+03  0.00000000000E+00 0.  1.
</event>
<event>
 7    1  0.6253338E-006  0.6979833E+02  0.7818608E-02  0.1496514E+00
          2   -1    0    0  502    0  0.00000000000E+00  0.00000000000E+00  0.98241790126E+03  0.98241790126E+03  0.00000000000E+00 0. -1.
          1   -1    0    0  501    0 -0.00000000000E+00 -0.00000000000E+00 -0.11783243357E+04  0.11783243357E+04  0.00000000000E+00 0. -1.
         25    2    1    2    0    0 -0.36012732247E+02 -0.38920394455E+02  0.10091441236E+03  0.16917547610E+03  0.12499963642E+03 0.  0.
          2    1    1    2  501    0  0.60542468584E+02  0.35036743239E+02 -0.11429423467E+04  0.11450808582E+04  0.00000000000E+00 0. -1.
          1    1    1    2  502    0 -0.24529736337E+02  0.38836512156E+01  0.84612149994E+03  0.84648590264E+03  0.00000000000E+00 0. -1.
         22    1    3    3    0    0 -0.49949009216E+02  0.47164789919E+01  0.11140520463E+03  0.12218129282E+03  0.00000000000E+00 0. -1.
         22    1    3    3    0    0  0.13936276968E+02 -0.43636873446E+02 -0.10490792276E+02  0.46994183284E+02  0.00000000000E+00 0. -1.
</event>
<event>
 7    1  0.6253338E-006  0.4102019E+02  0.7818608E-02  0.1506643E+00
          2   -1    0    0  502    0  0.00000000000E+00  0.00000000000E+00  0.20284432711E+04  0.20284432711E+04  0.00000000000E+00 0. -1.
          1   -1    0    0  501    0 -0.00000000000E+00 -0.00000000000E+00 -0.58511304461E+03  0.58511304461E+03  0.00000000000E+00 0. -1.
         25    2    1    2    0    0 -0.13280545785E+02  0.51497697904E+02  0.24356552381E+03  0.27888948238E+03  0.12500717263E+03 0.  0.
          2    1    1    2  501    0  0.35575183408E+02 -0.16989007838E+02 -0.56652716724E+03  0.56789721894E+03  0.00000000000E+00 0. -1.
          1    1    1    2  502    0 -0.22294637622E+02 -0.34508690067E+02  0.17662918699E+04  0.17667696143E+04  0.00000000000E+00 0. -1.
         22    1    3    3    0    0  0.30685969805E+01  0.55911035449E+02  0.25326013371E+03  0.25937647445E+03  0.00000000000E+00 0. -1.
         22    1    3    3    0    0 -0.16349142766E+02 -0.44133375445E+01 -0.96946098978E+01  0.19513007931E+02  0.00000000000E+00 0. -1.
</event>
<event>
 7    1  0.6253338E-006  0.1110534E+03  0.7818608E-02  0.1444538E+00
          2   -1    0    0  502    0  0.00000000000E+00  0.00000000000E+00  0.15752516060E+04  0.15752516060E+04  0.00000000000E+00 0. -1.
          1   -1    0    0  501    0 -0.00000000000E+00 -0.00000000000E+00 -0.47014678369E+03  0.47014678369E+03  0.00000000000E+00 0. -1.
         25    2    1    2    0    0  0.12715683629E+03 -0.28292553563E+02  0.78294287058E+03  0.80348981517E+03  0.12500805929E+03 0.  0.
          2    1    1    2  501    0 -0.11008209185E+03  0.13416156640E+02 -0.45301997417E+03  0.46639592322E+03  0.00000000000E+00 0. -1.
          1    1    1    2  502    0 -0.17074744433E+02  0.14876396923E+02  0.77518192590E+03  0.77551265130E+03  0.00000000000E+00 0. -1.
         22    1    3    3    0    0  0.30902497467E+02 -0.54140748798E+02  0.49235314302E+03  0.49628399377E+03  0.00000000000E+00 0.  1.
         22    1    3    3    0    0  0.96254338820E+02  0.25848195235E+02  0.29058972755E+03  0.30720582139E+03  0.00000000000E+00 0.  1.
</event>
<event>
 7    1  0.6253338E-006  0.1043940E+03  0.7818608E-02  0.1299268E+00
          2   -1    0    0  502    0  0.00000000000E+00  0.00000000000E+00  0.23178395061E+04  0.23178395061E+04  0.00000000000E+00 0. -1.
          1   -1    0    0  501    0 -0.00000000000E+00 -0.00000000000E+00 -0.78343864359E+02  0.78343864359E+02  0.00000000000E+00 0. -1.
         25    2    1    2    0    0 -0.13518929276E+03  0.10864500925E+03  0.99502664066E+03  0.10177324431E+04  0.12498570785E+03 0.  0.
          2    1    1    2  501    0  0.67332310385E+02 -0.43556279153E+02 -0.40643121187E+02  0.89903574875E+02  0.00000000000E+00 0. -1.
          1    1    1    2  502    0  0.67856982376E+02 -0.65088730093E+02  0.12851121223E+04  0.12885473525E+04  0.00000000000E+00 0. -1.
         22    1    3    3    0    0 -0.82152469080E+02  0.12297376035E+03  0.55797617071E+03  0.57724256686E+03  0.00000000000E+00 0. -1.
         22    1    3    3    0    0 -0.53036823681E+02 -0.14328751101E+02  0.43705046995E+03  0.44048987623E+03  0.00000000000E+00 0. -1.
</event>
<event>
 7    1  0.6253338E-006  0.1192510E+03  0.7818608E-02  0.1268859E+00
          2   -1    0    0  502    0  0.00000000000E+00  0.00000000000E+00  0.34464726074E+04  0.34464726074E+04  0.00000000000E+00 0. -1.
          1   -1    0    0  501    0 -0.00000000000E+00 -0.00000000000E+00 -0.39807721817E+03  0.39807721817E+03  0.00000000000E+00 0. -1.
         25    2    1    2    0    0 -0.90494444042E+02 -0.15792083223E+03  0.18026320705E+02  0.22153471280E+03  0.12499778831E+03 0.  0.
          2    1    1    2  501    0  0.95138967147E+02  0.64449210751E+02 -0.28449690205E+03  0.30682830885E+03  0.00000000000E+00 0. -1.
          1    1    1    2  502    0 -0.46445231050E+01  0.93471621478E+02  0.33148659706E+04  0.33161868040E+04  0.00000000000E+00 0. -1.
         22    1    3    3    0    0 -0.45924170218E+02 -0.16834269736E+03  0.80044752705E+01  0.17467788867E+03  0.00000000000E+00 0. -1.
         22    1    3    3    0    0 -0.44570273824E+02  0.10421865133E+02  0.10021845434E+02  0.46856824129E+02  0.00000000000E+00 0. -1.
</event>
<event>
 7    1  0.6253338E-006  0.8171517E+02  0.7818608E-02  0.1367015E+00
          2   -1    0    0  502    0  0.00000000000E+00  0.00000000000E+00  0.27081537037E+03  0.27081537037E+03  0.00000000000E+00 0. -1.
          1   -1    0    0  501    0 -0.00000000000E+00 -0.00000000000E+00 -0.29344757051E+04  0.29344757051E+04  0.00000000000E+00 0. -1.
         25    2    1    2    0    0  0.10321187462E+03  0.60974674806E+02 -0.11428886136E+04  0.11559368897E+04  0.12500043162E+03 0.  0.
          2    1    1    2  501    0 -0.22133967531E+02 -0.52085412766E+02 -0.17783091592E+04  0.17792094504E+04  0.00000000000E+00 0. -1.
          1    1    1    2  502    0 -0.81077907089E+02 -0.88892620401E+01  0.25753743809E+03  0.27014473531E+03  0.00000000000E+00 0. -1.
         22    1    3    3    0    0  0.55801051391E+01  0.40633453232E+02 -0.97141002560E+02  0.10544472236E+03  0.00000000000E+00 0. -1.
         22    1    3    3    0    0  0.97631769481E+02  0.20341221574E+02 -0.10457476110E+04  0.10504921674E+04  0.00000000000E+00 0. -1.
</event>
<event>
 7    1  0.8081813E-006  0.1238345E+03  0.7818608E-02  0.1304630E+00
          2   -1    0    0  502    0  0.00000000000E+00  0.00000000000E+00  0.99558573884E+03  0.99558573884E+03  0.00000000000E+00 0. -1.
          1   -1    0    0  501    0 -0.00000000000E+00 -0.00000000000E+00 -0.14028229011E+04  0.14028229011E+04  0.00000000000E+00 0. -1.
         25    2    1    2    0    0  0.31938080815E+02  0.65125835824E+02 -0.29284094972E+03  0.32656179841E+03  0.12500148339E+03 0.  0.
          2    1    1    2  501    0 -0.60930704791E+02 -0.12257745087E+03 -0.10877694972E+04  0.10963486039E+04  0.00000000000E+00 0. -1.
          1    1    1    2  502    0  0.28992623975E+02  0.57451615050E+02  0.97337328466E+03  0.97549823763E+03  0.00000000000E+00 0. -1.
         22    1    3    3    0    0  0.65643780515E+02  0.52960680680E+01 -0.84112230081E+02  0.10682706355E+03  0.00000000000E+00 0.  1.
         22    1    3    3    0    0 -0.33705699699E+02  0.59829767756E+02 -0.20872871964E+03  0.21973473486E+03  0.00000000000E+00 0.  1.
</event>
<event>
 7    1  0.6253338E-006  0.6739818E+02  0.7818608E-02  0.1441150E+00
          2   -1    0    0  502    0  0.00000000000E+00  0.00000000000E+00  0.25809627841E+04  0.25809627841E+04  0.00000000000E+00 0. -1.
          1   -1    0    0  501    0 -0.00000000000E+00 -0.00000000000E+00 -0.34983389905E+02  0.34983389905E+02  0.00000000000E+00 0. -1.
         25    2    1    2    0    0  0.32270449032E+02 -0.13137499798E+02  0.37539677304E+03  0.39719219044E+03  0.12499969264E+03 0.  0.
          2    1    1    2  501    0  0.36815797964E+02  0.10440821170E+02 -0.79830728228E+01  0.39091471936E+02  0.00000000000E+00 0. -1.
          1    1    1    2  502    0 -0.69086246997E+02  0.26966786273E+01  0.21785656940E+04  0.21796625116E+04  0.00000000000E+00 0. -1.
         22    1    3    3    0    0  0.37019760362E+02  0.37755342120E+02  0.70960262436E+02  0.88494561194E+02  0.00000000000E+00 0.  1.
         22    1    3    3    0    0 -0.47493113294E+01 -0.50892841918E+02  0.30443651060E+03  0.30869762925E+03  0.00000000000E+00 0.  1.
</event>
<event>
 7    1  0.6253338E-006  0.1611817E+03  0.7818608E-02  0.1237469E+00
          2   -1    0    0  502    0  0.00000000000E+00  0.00000000000E+00  0.10412271381E+04  0.10412271381E+04  0.00000000000E+00 0. -1.
          1   -1    0    0  501    0 -0.00000000000E+00 -0.00000000000E+00 -0.84463038866E+03  0.84463038866E+03  0.00000000000E+00 0. -1.
         25    2    1    2    0    0 -0.17193245920E+03  0.74260913777E+02 -0.61466720606E+02  0.23340731636E+03  0.12500145499E+03 0.  0.
          2    1    1    2  501    0  0.95228363020E+02 -0.12961640958E+03 -0.68552097734E+03  0.70413625466E+03  0.00000000000E+00 0. -1.
          1    1    1    2  502    0  0.76704096177E+02  0.55355495798E+02  0.94358444743E+03  0.94831395578E+03  0.00000000000E+00 0. -1.
         22    1    3    3    0    0  0.20005257684E+01  0.36184812854E+02 -0.40145650432E+02  0.54083417359E+02  0.00000000000E+00 0. -1.
         22    1    3    3    0    0 -0.17393298497E+03  0.38076100924E+02 -0.21321070175E+02  0.17932389900E+03  0.00000000000E+00 0. -1.
</event>
<event>
 7    1  0.6253338E-006  0.7820743E+02  0.7818608E-02  0.1442191E+00
          2   -1    0    0  502    0  0.00000000000E+00  0.00000000000E+00  0.86271198693E+03  0.86271198693E+03  0.00000000000E+00 0. -1.
          1   -1    0    0  501    0 -0.00000000000E+00 -0.00000000000E+00 -0.36308568032E+03  0.36308568032E+03  0.00000000000E+00 0. -1.
         25    2    1    2    0    0  0.40730243269E+02  0.29992753737E+02  0.25494747264E+02  0.13722725525E+03  0.12499127751E+03 0.  0.
          2    1    1    2  501    0 -0.52322137380E+02 -0.60594601868E+02 -0.30165305125E+03  0.31209593904E+03  0.00000000000E+00 0. -1.
          1    1    1    2  502    0  0.11591894110E+02  0.30601848131E+02  0.77578461059E+03  0.77647447296E+03  0.00000000000E+00 0. -1.
         22    1    3    3    0    0  0.20290119684E+02 -0.47376911483E+02 -0.45716358803E+01  0.51741284803E+02  0.00000000000E+00 0.  1.
         22    1    3    3    0    0  0.20440123585E+02  0.77369665219E+02  0.30066383144E+02  0.85485970450E+02  0.00000000000E+00 0.  1.
</event>
<event>
 7    1  0.6253338E-006  0.6897002E+02  0.7818608E-02  0.1414996E+00
          2   -1    0    0  502    0  0.00000000000E+00  0.00000000000E+00  0.13585076162E+04  0.13585076162E+04  0.00000000000E+00 0. -1.
          1   -1    0    0  501    0 -0.00000000000E+00 -0.00000000000E+00 -0.37733627005E+02  0.37733627005E+02  0.00000000000E+00 0. -1.
         25    2    1    2    0    0 -0.82341204483E+02 -0.14751504073E+02  0.25176274878E+03  0.29327060703E+03  0.12500194576E+03 0.  0.
          2    1    1    2  501    0  0.49509961036E+02  0.46428529715E+02  0.53470473829E+02  0.86405649033E+02  0.00000000000E+00 0. -1.
          1    1    1    2  502    0  0.32831243447E+02 -0.31677025641E+02  0.10155407666E+04  0.10165649871E+04  0.00000000000E+00 0. -1.
         22    1    3    3    0    0  0.24822290403E+02 -0.10242966409E+02  0.12198753471E+03  0.12490805853E+03  0.00000000000E+00 0.  1.
         22    1    3    3    0    0 -0.10716349489E+03 -0.45085376640E+01  0.12977521407E+03  0.16836254850E+03  0.00000000000E+00 0.  1.
</event>
<event>
 7    1  0.6253338E-006  0.6035810E+02  0.7818608E-02  0.1469205E+00
          2   -1    0    0  502    0  0.00000000000E+00  0.00000000000E+00  0.55545064111E+02  0.55545064111E+02  0.00000000000E+00 0. -1.
          1   -1    0    0  501    0 -0.00000000000E+00 -0.00000000000E+00 -0.65560724913E+03  0.65560724913E+03  0.00000000000E+00 0. -1.
         25    2    1    2    0    0  0.90964197701E+01  0.48081054925E+02 -0.71888077111E+02  0.15227304664E+03  0.12499860962E+03 0.  0.
          2    1    1    2  501    0 -0.43538247860E+02 -0.43073368761E+02 -0.51938399347E+03  0.52298243450E+03  0.00000000000E+00 0. -1.
          1    1    1    2  502    0  0.34441828089E+02 -0.50076861645E+01 -0.87901144402E+01  0.35896832099E+02  0.00000000000E+00 0. -1.
         22    1    3    3    0    0 -0.17362236600E+02  0.81586674706E+02 -0.71050451123E+02  0.10957189126E+03  0.00000000000E+00 0.  1.
         22    1    3    3    0    0  0.26458656371E+02 -0.33505619781E+02 -0.83762598796E+00  0.42701155384E+02  0.00000000000E+00 0.  1.
</event>
<event>
 7    1  0.6253338E-006  0.1113378E+03  0.7818608E-02  0.1399338E+00
          2   -1    0    0  502    0  0.00000000000E+00  0.00000000000E+00  0.22703379764E+04  0.22703379764E+04  0.00000000000E+00 0. -1.
          1   -1    0    0  501    0 -0.00000000000E+00 -0.00000000000E+00 -0.95155165400E+02  0.95155165400E+02  0.00000000000E+00 0. -1.
         25    2    1    2    0    0  0.43988582843E+02  0.91615258257E+02  0.11397285779E+04  0.11510563288E+04  0.12498435814E+03 0.  0.
          2    1    1    2  501    0  0.31915734317E+02 -0.14771713445E+01 -0.83443373362E+02  0.89350952375E+02  0.00000000000E+00 0. -1.
          1    1    1    2  502    0 -0.75904317161E+02 -0.90138086913E+02  0.11188976065E+04  0.11250858606E+04  0.00000000000E+00 0. -1.
         22    1    3    3    0    0  0.73950995597E+02  0.99512893835E+02  0.10146539765E+04  0.10222006935E+04  0.00000000000E+00 0. -1.
         22    1    3    3    0    0 -0.29962412754E+02 -0.78976355779E+01  0.12507460146E+03  0.12885563533E+03  0.00000000000E+00 0. -1.
</event>
<event>
 7    1  0.6253338E-006  0.3439990E+02  0.7818608E-02  0.1563527E+00
          2   -1    0    0  502    0  0.00000000000E+00  0.00000000000E+00  0.24839503689E+03  0.24839503689E+03  0.00000000000E+00 0. -1.
          1   -1    0    0  501    0 -0.00000000000E+00 -0.00000000000E+00 -0.32490736745E+03  0.32490736745E+03  0.00000000000E+00 0. -1.
         25    2    1    2    0    0  0.96153665652E+01 -0.12921578241E+02  0.13758815929E+03  0.18658969256E+03  0.12500315730E+03 0.  0.
          2    1    1    2  501    0  0.25531763824E+02  0.23053889811E+02 -0.29548775729E+03  0.29748339030E+03  0.00000000000E+00 0. -1.
          1    1    1    2  502    0 -0.35147130389E+02 -0.10132311569E+02  0.81387267433E+02  0.89229321484E+02  0.00000000000E+00 0. -1.
         22    1    3    3    0    0  0.38676763381E+02  0.46138088377E+02  0.64600947041E+02  0.88305705270E+02  0.00000000000E+00 0.  1.
         22    1    3    3    0    0 -0.29061396816E+02 -0.59059666618E+02  0.72987212252E+02  0.98283987293E+02  0.00000000000E+00 0.  1.
</event>
<event>
 7    1  0.6253338E-006  0.6976247E+02  0.7818608E-02  0.1432613E+00
          2   -1    0    0  502    0  0.00000000000E+00  0.00000000000E+00  0.73743217424E+03  0.73743217424E+03  0.00000000000E+00 0. -1.
          1   -1    0    0  501    0 -0.00000000000E+00 -0.00000000000E+00 -0.22065464601E+03  0.22065464601E+03  0.00000000000E+00 0. -1.
         25    2    1    2    0    0 -0.69146819494E+02  0.61240482298E+02 -0.53149990260E+02  0.16426256836E+03  0.12500236230E+03 0.  0.
          2    1    1    2  501    0  0.39385822912E+02  0.15774476236E+01 -0.10664181136E+03  0.11369347967E+03  0.00000000000E+00 0. -1.
          1    1    1    2  502    0  0.29760996582E+02 -0.62817929922E+02  0.67656932985E+03  0.68013077223E+03  0.00000000000E+00 0. -1.
         22    1    3    3    0    0 -0.57684984696E+02 -0.23001979394E+02  0.33334056932E+01  0.62191318598E+02  0.00000000000E+00 0.  1.
         22    1    3    3    0    0 -0.11461834798E+02  0.84242461692E+02 -0.56483395953E+02  0.10207124976E+03  0.00000000000E+00 0.  1.
</event>
<event>
 7    1  0.6253338E-006  0.5470743E+02  0.7818608E-02  0.1429565E+00
          2   -1    0    0  502    0  0.00000000000E+00  0.00000000000E+00  0.57021450231E+03  0.57021450231E+03  0.00000000000E+00 0. -1.
          1   -1    0    0  501    0 -0.00000000000E+00 -0.00000000000E+00 -0.34105007539E+03  0.34105007539E+03  0.00000000000E+00 0. -1.
         25    2    1    2    0    0  0.19889771088E+01 -0.91096087466E+02 -0.43778151316E+02  0.16076507833E+03  0.12500572265E+03 0.  0.
          2    1    1    2  501    0  0.24876450354E+02  0.47231690070E+02 -0.23447829329E+03  0.24047814943E+03  0.00000000000E+00 0. -1.
          1    1    1    2  502    0 -0.26865427463E+02  0.43864397396E+02  0.50742087152E+03  0.51002134995E+03  0.00000000000E+00 0. -1.
         22    1    3    3    0    0 -0.11100068491E+02 -0.32796496993E+01 -0.67804342493E+02  0.68785147260E+02  0.00000000000E+00 0. -1.
         22    1    3    3    0    0  0.13089045600E+02 -0.87816437766E+02  0.24026191177E+02  0.91979931067E+02  0.00000000000E+00 0. -1.
</event>
<event>
 7    1  0.7394210E-006  0.8748346E+02  0.7818608E-02  0.1343363E+00
          2   -1    0    0  502    0  0.00000000000E+00  0.00000000000E+00  0.98199679007E+03  0.98199679007E+03  0.00000000000E+00 0. -1.
          1   -1    0    0  501    0 -0.00000000000E+00 -0.00000000000E+00 -0.15741893543E+04  0.15741893543E+04  0.00000000000E+00 0. -1.
         25    2    1    2    0    0 -0.11155476426E+03  0.16912799636E+02 -0.29402617062E+03  0.33883173693E+03  0.12500019490E+03 0.  0.
          2    1    1    2  501    0  0.48021835027E+02  0.43179165516E+02 -0.12549360247E+04  0.12565965793E+04  0.00000000000E+00 0. -1.
          1    1    1    2  502    0  0.63532929236E+02 -0.60091965152E+02  0.95676963109E+03  0.96075782815E+03  0.00000000000E+00 0. -1.
         22    1    3    3    0    0 -0.12996341912E+03  0.23463582667E+02 -0.18060119721E+03  0.22373605533E+03  0.00000000000E+00 0. -1.
         22    1    3    3    0    0  0.18408654855E+02 -0.65507830308E+01 -0.11342497340E+03  0.11509568160E+03  0.00000000000E+00 0. -1.
</event>
<event>
 7    1  0.6253338E-006  0.3759218E+03  0.7818608E-02  0.1169801E+00
          2   -1    0    0  502    0  0.00000000000E+00  0.00000000000E+00  0.19752473024E+04  0.19752473024E+04  0.00000000000E+00 0. -1.
          1   -1    0    0  501    0 -0.00000000000E+00 -0.00000000000E+00 -0.20238126390E+04  0.20238126390E+04  0.00000000000E+00 0. -1.
         25    2    1    2    0    0  0.32205265954E+03 -0.27865077073E+03 -0.36120671855E+03  0.57224069488E+03  0.12499980723E+03 0.  0.
          2    1    1    2  501    0 -0.24060869657E+01  0.84202843288E+02 -0.15372070921E+04  0.15395134141E+04  0.00000000000E+00 0. -1.
          1    1    1    2  502    0 -0.31964657257E+03  0.19444792744E+03  0.18498484741E+04  0.18873058324E+04  0.00000000000E+00 0. -1.
         22    1    3    3    0    0  0.31288518398E+03 -0.26177749526E+03 -0.37033898662E+03  0.55097691457E+03  0.00000000000E+00 0. -1.
         22    1    3    3    0    0  0.91674755597E+01 -0.16873275462E+02  0.91322680675E+01  0.21263780309E+02  0.00000000000E+00 0. -1.
</event>
<event>
 7    1  0.6253338E-006  0.7094336E+02  0.7818608E-02  0.1487501E+00
          2   -1    0    0  502    0  0.00000000000E+00  0.00000000000E+00  0.62509556542E+03  0.62509556542E+03  0.00000000000E+00 0. -1.
          1   -1    0    0  501    0 -0.00000000000E+00 -0.00000000000E+00 -0.78229439487E+03  0.78229439487E+03  0.00000000000E+00 0. -1.
         25    2    1    2    0    0 -0.45419368178E+02  0.64887695679E+02 -0.41294038190E+03  0.43865566094E+03  0.12500279125E+03 0.  0.
          2    1    1    2  501    0 -0.11907336222E+02 -0.23128002117E+02 -0.35396344620E+03  0.35491803333E+03  0.00000000000E+00 0. -1.
          1    1    1    2  502    0  0.57326704400E+02 -0.41759693562E+02  0.60970499865E+03  0.61381626601E+03  0.00000000000E+00 0. -1.
         22    1    3    3    0    0 -0.21246659378E+01 -0.37107706682E+02 -0.10143331041E+03  0.10802875803E+03  0.00000000000E+00 0. -1.
         22    1    3    3    0    0 -0.43294702240E+02  0.10199540236E+03 -0.31150707148E+03  0.33062690291E+03  0.00000000000E+00 0. -1.
</event>
<event>
 7    1  0.6253338E-006  0.7062820E+02  0.7818608E-02  0.1502901E+00
          2   -1    0    0  502    0  0.00000000000E+00  0.00000000000E+00  0.20493254966E+04  0.20493254966E+04  0.00000000000E+00 0. -1.
          1   -1    0    0  501    0 -0.00000000000E+00 -0.00000000000E+00 -0.10320515272E+04  0.10320515272E+04  0.00000000000E+00 0. -1.
         25    2    1    2    0    0 -0.78206402296E+02  0.51230184785E+02  0.13230278390E+03  0.20462234760E+03  0.12500202124E+03 0.  0.
          2    1    1    2  501    0  0.18019814016E+02 -0.15067627470E+02 -0.99509779499E+03  0.99537498898E+03  0.00000000000E+00 0. -1.
          1    1    1    2  502    0  0.60186588281E+02 -0.36162557315E+02  0.18800689805E+04  0.18813796872E+04  0.00000000000E+00 0. -1.
         22    1    3    3    0    0 -0.23621245890E+02 -0.16684010635E+02 -0.15677767714E+02  0.32895468818E+02  0.00000000000E+00 0. -1.
         22    1    3    3    0    0 -0.54585156407E+02  0.67914195420E+02  0.14798055161E+03  0.17172687878E+03  0.00000000000E+00 0. -1.
</event>
<event>
 7    1  0.6253338E-006  0.1492663E+03  0.7818608E-02  0.1300237E+00
          2   -1    0    0  502    0  0.00000000000E+00  0.00000000000E+00  0.55751573687E+03  0.55751573687E+03  0.00000000000E+00 0. -1.
          1   -1    0    0  501    0 -0.00000000000E+00 -0.00000000000E+00 -0.28162299384E+04  0.28162299384E+04  0.00000000000E+00 0. -1.
         25    2    1    2    0    0 -0.17796183515E+03 -0.44769585635E+02 -0.21280611974E+03  0.30754854369E+03  0.12499972624E+03 0.  0.
          2    1    1    2  501    0  0.48503556208E+02 -0.27151517232E+02 -0.25449947486E+04  0.25456017108E+04  0.00000000000E+00 0. -1.
          1    1    1    2  502    0  0.12945827894E+03  0.71921102867E+02  0.49908666685E+03  0.52059542069E+03  0.00000000000E+00 0. -1.
         22    1    3    3    0    0 -0.90158359900E+02 -0.85978605703E+02 -0.10978468605E+03  0.16605278615E+03  0.00000000000E+00 0. -1.
         22    1    3    3    0    0 -0.87803475246E+02  0.41209020068E+02 -0.10302143369E+03  0.14149575753E+03  0.00000000000E+00 0. -1.
</event>
<event>
 7    1  0.6253338E-006  0.1830224E+03  0.7818608E-02  0.1298079E+00
          2   -1    0    0  502    0  0.00000000000E+00  0.00000000000E+00  0.86314325903E+03  0.86314325903E+03  0.00000000000E+00 0. -1.
          1   -1    0    0  501    0 -0.00000000000E+00 -0.00000000000E+00 -0.25145036855E+03  0.25145036855E+03  0.00000000000E+00 0. -1.
         25    2    1    2    0    0 -0.12175626180E+03 -0.18054797896E+03  0.18624013332E+03  0.31262115815E+03  0.12499776506E+03 0.  0.
          2    1    1    2  501    0  0.11534287451E+03  0.13474914539E+03 -0.14533699964E+03  0.22931235106E+03  0.00000000000E+00 0. -1.
          1    1    1    2  502    0  0.64133872935E+01  0.45798833566E+02  0.57078975680E+03  0.57266011836E+03  0.00000000000E+00 0. -1.
         22    1    3    3    0    0 -0.10821156763E+03 -0.13990076256E+03  0.20059777192E+03  0.26743491326E+03  0.00000000000E+00 0.  1.
         22    1    3    3    0    0 -0.13544694174E+02 -0.40647216403E+02 -0.14357638593E+02  0.45186244893E+02  0.00000000000E+00 0.  1.
</event>
<event>
 7    1  0.6253338E-006  0.1188405E+03  0.7818608E-02  0.1252615E+00
          2   -1    0    0  502    0  0.00000000000E+00  0.00000000000E+00  0.61139798228E+03  0.61139798228E+03  0.00000000000E+00 0. -1.
          1   -1    0    0  501    0 -0.00000000000E+00 -0.00000000000E+00 -0.14405101085E+03  0.14405101085E+03  0.00000000000E+00 0. -1.
         25    2    1    2    0    0  0.17705848342E+02 -0.41436980530E+02  0.16818604223E+03  0.21434165553E+03  0.12500112029E+03 0.  0.
          2    1    1    2  501    0  0.50058009984E+02  0.12826921696E+03 -0.70991584022E+02  0.15491481977E+03  0.00000000000E+00 0. -1.
          1    1    1    2  502    0 -0.67763858326E+02 -0.86832236427E+02  0.37015251322E+03  0.38619251782E+03  0.00000000000E+00 0. -1.
         22    1    3    3    0    0  0.67846488266E+02 -0.45851106961E+02  0.11427675757E+03  0.14058679633E+03  0.00000000000E+00 0. -1.
         22    1    3    3    0    0 -0.50140639924E+02  0.44141264304E+01  0.53909284653E+02  0.73754859202E+02  0.00000000000E+00 0. -1.
</event>
<event>
 7    1  0.6253338E-006  0.9036171E+02  0.7818608E-02  0.1303580E+00
          2   -1    0    0  502    0  0.00000000000E+00  0.00000000000E+00  0.58681484601E+02  0.58681484601E+02  0.00000000000E+00 0. -1.
          1   -1    0    0  501    0 -0.00000000000E+00 -0.00000000000E+00 -0.10602050004E+04  0.10602050004E+04  0.00000000000E+00 0. -1.
         25    2    1    2    0    0 -0.27239385253E+01  0.32739480121E+02 -0.23401401783E+03  0.26733174934E+03  0.12499764104E+03 0.  0.
          2    1    1    2  501    0 -0.77015739283E+02 -0.72366534748E+02 -0.75414546058E+03  0.76151409387E+03  0.00000000000E+00 0. -1.
          1    1    1    2  502    0  0.79739677808E+02  0.39627054626E+02 -0.13364037369E+02  0.90040641768E+02  0.00000000000E+00 0. -1.
         22    1    3    3    0    0 -0.50972651965E+02  0.44186324020E+02 -0.18779732893E+03  0.19954568206E+03  0.00000000000E+00 0.  1.
         22    1    3    3    0    0  0.48248713440E+02 -0.11446843898E+02 -0.46216688900E+02  0.67786067276E+02  0.00000000000E+00 0.  1.
</event>
<event>
 7    1  0.6253338E-006  0.1354381E+03  0.7818608E-02  0.1269631E+00
          2   -1    0    0  502    0  0.00000000000E+00  0.00000000000E+00  0.34741551416E+03  0.34741551416E+03  0.00000000000E+00 0. -1.
          1   -1    0    0  501    0 -0.00000000000E+00 -0.00000000000E+00 -0.12533796093E+04  0.12533796093E+04  0.00000000000E+00 0. -1.
         25    2    1    2    0    0  0.72269291457E+02 -0.74975567085E+02 -0.73932848769E+03  0.75701798083E+03  0.12500169772E+03 0.  0.
          2    1    1    2  501    0 -0.55200897717E+02 -0.60350186653E+02 -0.48792575856E+03  0.49473308966E+03  0.00000000000E+00 0. -1.
          1    1    1    2  502    0 -0.17068393740E+02  0.13532575374E+03  0.32129015113E+03  0.34904405295E+03  0.00000000000E+00 0. -1.
         22    1    3    3    0    0  0.10410726100E+03 -0.35873214448E+02 -0.44636185875E+03  0.45974353531E+03  0.00000000000E+00 0. -1.
         22    1    3    3    0    0 -0.31837969543E+02 -0.39102352637E+02 -0.29296662894E+03  0.29727444552E+03  0.00000000000E+00 0. -1.
</event>
<event>
 7    1  0.6253338E-006  0.3289161E+02  0.7818608E-02  0.1571842E+00
          2   -1    0    0  502    0  0.00000000000E+00  0.00000000000E+00  0.11539752256E+03  0.11539752256E+03  0.00000000000E+00 0. -1.
          1   -1    0    0  501    0 -0.00000000000E+00 -0.00000000000E+00 -0.60547017620E+03  0.60547017620E+03  0.00000000000E+00 0. -1.
         25    2    1    2    0    0  0.19083940360E+02  0.76395755450E+01  0.26137357750E+02  0.12936553260E+03  0.12501887721E+03 0.  0.
          2    1    1    2  501    0 -0.22371715601E+02  0.24335057325E+02 -0.54640315695E+03  0.54740213609E+03  0.00000000000E+00 0. -1.
          1    1    1    2  502    0  0.32877752408E+01 -0.31974632870E+02  0.30193145556E+02  0.44100030066E+02  0.00000000000E+00 0. -1.
         22    1    3    3    0    0  0.14745252536E+02  0.65724625768E+02  0.22453962570E+02  0.71002319257E+02  0.00000000000E+00 0.  1.
         22    1    3    3    0    0  0.43386878241E+01 -0.58085050223E+02  0.36833951802E+01  0.58363213341E+02  0.00000000000E+00 0.  1.
</event>
<event>
 7    1  0.6253338E-006  0.9088680E+02  0.7818608E-02  0.1316618E+00
          2   -1    0    0  502    0  0.00000000000E+00  0.00000000000E+00  0.33832544882E+03  0.33832544882E+03  0.00000000000E+00 0. -1.
          1   -1    0    0  501    0 -0.00000000000E+00 -0.00000000000E+00 -0.69277005280E+03  0.69277005280E+03  0.00000000000E+00 0. -1.
         25    2    1    2    0    0  0.10375129961E+03 -0.49251993228E+01 -0.20401501446E+02  0.16380004844E+03  0.12500257937E+03 0.  0.
          2    1    1    2  501    0 -0.65827804334E+02 -0.63979864208E+02 -0.59124895443E+03  0.59833272430E+03  0.00000000000E+00 0. -1.
          1    1    1    2  502    0 -0.37923495277E+02  0.68905063530E+02  0.25720585190E+03  0.26896272888E+03  0.00000000000E+00 0. -1.
         22    1    3    3    0    0  0.29676464333E+02  0.37056717153E+02  0.37782142112E+02  0.60674402214E+02  0.00000000000E+00 0. -1.
         22    1    3    3    0    0  0.74074835278E+02 -0.41981916476E+02 -0.58183643558E+02  0.10312564623E+03  0.00000000000E+00 0. -1.
</event>
<event>
 7    1  0.6253338E-006  0.1729283E+03  0.7818608E-02  0.1301118E+00
          2   -1    0    0  502    0  0.00000000000E+00  0.00000000000E+00  0.18952736783E+04  0.18952736783E+04  0.00000000000E+00 0. -1.
          1   -1    0    0  501    0 -0.00000000000E+00 -0.00000000000E+00 -0.27398198612E+03  0.27398198612E+03  0.00000000000E+00 0. -1.
         25    2    1    2    0    0  0.12858535524E+03 -0.68636984157E+02  0.61706881509E+03  0.64624933121E+03  0.12497618314E+03 0.  0.
          2    1    1    2  501    0  0.47122798762E+02  0.66707300485E+01 -0.25026915925E+03  0.25475421267E+03  0.00000000000E+00 0. -1.
          1    1    1    2  502    0 -0.17570815400E+03  0.61966254108E+02  0.12544920363E+04  0.12682521205E+04  0.00000000000E+00 0. -1.
         22    1    3    3    0    0  0.84689183755E+00  0.16131154054E+02  0.77053111851E+01  0.17897015878E+02  0.00000000000E+00 0.  1.
         22    1    3    3    0    0  0.12773846340E+03 -0.84768138210E+02  0.60936350391E+03  0.62835231533E+03  0.00000000000E+00 0.  1.
</event>
<event>
 7    1  0.6253338E-006  0.5303117E+02  0.7818608E-02  0.1527672E+00
          2   -1    0    0  502    0  0.00000000000E+00  0.00000000000E+00  0.42187542269E+03  0.42187542269E+03  0.00000000000E+00 0. -1.
          1   -1    0    0  501    0 -0.00000000000E+00 -0.00000000000E+00 -0.85353559778E+03  0.85353559778E+03  0.00000000000E+00 0. -1.
         25    2    1    2    0    0  0.30727666719E+02  0.61290708725E+02  0.19392726874E+03  0.24069608431E+03  0.12500431577E+03 0.  0.
          2    1    1    2  501    0 -0.38810969393E+02 -0.36074627881E+02 -0.82844428850E+03  0.83013710270E+03  0.00000000000E+00 0. -1.
          1    1    1    2  502    0  0.80833026742E+01 -0.25216080844E+02  0.20285684467E+03  0.20457783346E+03  0.00000000000E+00 0. -1.
         22    1    3    3    0    0 -0.13962678176E+02  0.17979167690E+02  0.17380508929E+03  0.17528952027E+03  0.00000000000E+00 0.  1.
         22    1    3    3    0    0  0.44690344895E+02  0.43311541035E+02  0.20122179450E+02  0.65406564039E+02  0.00000000000E+00 0.  1.
</event>
<event>
 7    1  0.6253338E-006  0.1335603E+03  0.7818608E-02  0.1406626E+00
          2   -1    0    0  502    0  0.00000000000E+00  0.00000000000E+00  0.38461716876E+04  0.38461716876E+04  0.00000000000E+00 0. -1.
          1   -1    0    0  501    0 -0.00000000000E+00 -0.00000000000E+00 -0.61768690281E+02  0.61768690281E+02  0.00000000000E+00 0. -1.
         25    2    1    2    0    0 -0.12375510738E+03 -0.46373588770E+02  0.30163011584E+03  0.35223786411E+03  0.12499979916E+03 0.  0.
          2    1    1    2  501    0  0.95662986496E+01 -0.23256033233E+02 -0.30700378089E+02  0.39684636402E+02  0.00000000000E+00 0. -1.
          1    1    1    2  502    0  0.11418880873E+03  0.69629622003E+02  0.35134732596E+04  0.35160178774E+04  0.00000000000E+00 0. -1.
         22    1    3    3    0    0 -0.10233831185E+03  0.21198418051E+00  0.27711058169E+03  0.29540387522E+03  0.00000000000E+00 0.  1.
         22    1    3    3    0    0 -0.21416795532E+02 -0.46585572950E+02  0.24519534151E+02  0.56833988888E+02  0.00000000000E+00 0.  1.
</event>
<event>
 7    1  0.6253338E-006  0.3854131E+02  0.7818608E-02  0.1544846E+00
          2   -1    0    0  502    0  0.00000000000E+00  0.00000000000E+00  0.79533133973E+03  0.79533133973E+03  0.00000000000E+00 0. -1.
          1   -1    0    0  501    0 -0.00000000000E+00 -0.00000000000E+00 -0.38652709574E+03  0.38652709574E+03  0.00000000000E+00 0. -1.
         25    2    1    2    0    0 -0.48815295661E+01 -0.45767347846E+01 -0.16953687886E+02  0.12632280456E+03  0.12500099034E+03 0.  0.
          2    1    1    2  501    0  0.28770655326E+02  0.26705385294E+02 -0.31330555218E+03  0.31575512227E+03  0.00000000000E+00 0. -1.
          1    1    1    2  502    0 -0.23889125760E+02 -0.22128650509E+02  0.73906348406E+03  0.73978050865E+03  0.00000000000E+00 0. -1.
         22    1    3    3    0    0  0.25910673093E+02  0.14216248228E+02 -0.61957496217E+02  0.68645437076E+02  0.00000000000E+00 0. -1.
         22    1    3    3    0    0 -0.30792202659E+02 -0.18792983013E+02  0.45003808331E+02  0.57677367480E+02  0.00000000000E+00 0. -1.
</event>
<event>
 7    1  0.6253338E-006  0.4165298E+02  0.7818608E-02  0.1539218E+00
          2   -1    0    0  502    0  0.00000000000E+00  0.00000000000E+00  0.48558911055E+03  0.48558911055E+03  0.00000000000E+00 0. -1.
          1   -1    0    0  501    0 -0.00000000000E+00 -0.00000000000E+00 -0.95562450024E+03  0.95562450024E+03  0.00000000000E+00 0. -1.
         25    2    1    2    0    0 -0.96182206037E+01  0.12836791506E+02 -0.33524353972E+03  0.35815273287E+03  0.12501142251E+03 0.  0.
          2    1    1    2  501    0  0.12083294792E+02  0.28821256726E+02 -0.60760576274E+03  0.60840893630E+03  0.00000000000E+00 0. -1.
          1    1    1    2  502    0 -0.24650741884E+01 -0.41658048232E+02  0.47281391277E+03  0.47465194162E+03  0.00000000000E+00 0. -1.
         22    1    3    3    0    0  0.28234833966E+02  0.37867664985E+02 -0.29087905314E+03  0.29468931005E+03  0.00000000000E+00 0.  1.
         22    1    3    3    0    0 -0.37853054570E+02 -0.25030873479E+02 -0.44364486577E+02  0.63463422825E+02  0.00000000000E+00 0.  1.
</event>
<event>
 7    1  0.6253338E-006  0.6945751E+02  0.7818608E-02  0.1373417E+00
          2   -1    0    0  502    0  0.00000000000E+00  0.00000000000E+00  0.26908540135E+04  0.26908540135E+04  0.00000000000E+00 0. -1.
          1   -1    0    0  501    0 -0.00000000000E+00 -0.00000000000E+00 -0.53917480670E+02  0.53917480670E+02  0.00000000000E+00 0. -1.
         25    2    1    2    0    0 -0.26787554482E+02  0.51374799689E+02  0.10425332586E+04  0.10515975463E+04  0.12499944441E+03 0.  0.
          2    1    1    2  501    0  0.60972611459E+02  0.16421941463E+02 -0.27943067755E+02  0.69051825067E+02  0.00000000000E+00 0. -1.
          1    1    1    2  502    0 -0.34185056978E+02 -0.67796741152E+02  0.16223463420E+04  0.16241221228E+04  0.00000000000E+00 0. -1.
         22    1    3    3    0    0 -0.75930195481E+02  0.30394581921E+02  0.72515072125E+03  0.72974844551E+03  0.00000000000E+00 0. -1.
         22    1    3    3    0    0  0.49142640999E+02  0.20980217768E+02  0.31738253734E+03  0.32184910084E+03  0.00000000000E+00 0. -1.
</event>
<event>
 7    1  0.6253338E-006  0.1858592E+03  0.7818608E-02  0.1350853E+00
          2   -1    0    0  502    0  0.00000000000E+00  0.00000000000E+00  0.33367371022E+04  0.33367371022E+04  0.00000000000E+00 0. -1.
          1   -1    0    0  501    0 -0.00000000000E+00 -0.00000000000E+00 -0.10859046616E+03  0.10859046616E+03  0.00000000000E+00 0. -1.
         25    2    1    2    0    0  0.55977814111E+02 -0.20364543340E+03  0.35340312657E+03  0.43025971438E+03  0.12499869492E+03 0.  0.
          2    1    1    2  501    0 -0.14874536311E+02  0.24319782129E+02 -0.64266263802E+02  0.70305449976E+02  0.00000000000E+00 0. -1.
          1    1    1    2  502    0 -0.41103277800E+02  0.17932565127E+03  0.29390097732E+04  0.29447624040E+04  0.00000000000E+00 0. -1.
         22    1    3    3    0    0  0.15207446576E+00 -0.14236272111E+03  0.29883743023E+03  0.33101507095E+03  0.00000000000E+00 0.  1.
         22    1    3    3    0    0  0.55825739645E+02 -0.61282712296E+02  0.54565696342E+02  0.99244643435E+02  0.00000000000E+00 0.  1.
</event>
<event>
 7    1  0.6253338E-006  0.9672486E+02  0.7818608E-02  0.1386215E+00
          2   -1    0    0  502    0  0.00000000000E+00  0.00000000000E+00  0.63446970495E+03  0.63446970495E+03  0.00000000000E+00 0. -1.
          1   -1    0    0  501    0 -0.00000000000E+00 -0.00000000000E+00 -0.98920048804E+02  0.98920048804E+02  0.00000000000E+00 0. -1.
         25    2    1    2    0    0  0.43297028082E+02 -0.12509493612E+03  0.19892805368E+03  0.26966903507E+03  0.12500256898E+03 0.  0.
          2    1    1    2  501    0 -0.32051396709E+02  0.85824246655E+02 -0.28791494344E+02  0.96031471359E+02  0.00000000000E+00 0. -1.
          1    1    1    2  502    0 -0.11245631373E+02  0.39270689467E+02  0.36541309681E+03  0.36768924732E+03  0.00000000000E+00 0. -1.
         22    1    3    3    0    0  0.34804339869E+02 -0.64378591491E+02  0.13565402753E+02  0.74430942946E+02  0.00000000000E+00 0. -1.
         22    1    3    3    0    0  0.84926882130E+01 -0.60716344631E+02  0.18536265093E+03  0.19523809213E+03  0.00000000000E+00 0. -1.
</event>
<event>
 7    1  0.6253338E-006  0.5810434E+02  0.7818608E-02  0.1441363E+00
          2   -1    0    0  502    0  0.00000000000E+00  0.00000000000E+00  0.59039158186E+02  0.59039158186E+02  0.00000000000E+00 0. -1.
          1   -1    0    0  501    0 -0.00000000000E+00 -0.00000000000E+00 -0.64162092251E+03  0.64162092251E+03  0.00000000000E+00 0. -1.
         25    2    1    2    0    0  0.33045764270E+02  0.37921333277E+02 -0.18107199305E+03  0.22570430935E+03  0.12500127414E+03 0.  0.
          2    1    1    2  501    0  0.27753754442E+02 -0.34551721960E+02 -0.41095239165E+03  0.41333516737E+03  0.00000000000E+00 0. -1.
          1    1    1    2  502    0 -0.60799518711E+02 -0.33696113171E+01  0.94426203771E+01  0.61620603986E+02  0.00000000000E+00 0. -1.
         22    1    3    3    0    0 -0.31629127716E+02  0.18088593229E+02 -0.46181200271E+01  0.36727727369E+02  0.00000000000E+00 0. -1.
         22    1    3    3    0    0  0.64674891986E+02  0.19832740048E+02 -0.17645387302E+03  0.18897658198E+03  0.00000000000E+00 0. -1.
</event>
<event>
 7    1  0.6253338E-006  0.2616463E+02  0.7818608E-02  0.1675258E+00
          2   -1    0    0  502    0  0.00000000000E+00  0.00000000000E+00  0.14297738724E+04  0.14297738724E+04  0.00000000000E+00 0. -1.
          1   -1    0    0  501    0 -0.00000000000E+00 -0.00000000000E+00 -0.23939207457E+03  0.23939207457E+03  0.00000000000E+00 0. -1.
         25    2    1    2    0    0  0.24266316488E+02  0.41330586653E+02 -0.10018003557E+03  0.16720749405E+03  0.12500094012E+03 0.  0.
          2    1    1    2  501    0 -0.88043204563E+01 -0.20247816248E+02 -0.10442145761E+03  0.10673017816E+03  0.00000000000E+00 0. -1.
          1    1    1    2  502    0 -0.15461996032E+02 -0.21082770406E+02  0.13949832910E+04  0.13952282748E+04  0.00000000000E+00 0. -1.
         22    1    3    3    0    0 -0.24857274611E+02  0.37048759939E+02 -0.10839537192E+03  0.11721796521E+03  0.00000000000E+00 0. -1.
         22    1    3    3    0    0  0.49123591099E+02  0.42818267145E+01  0.82153363536E+01  0.49989528842E+02  0.00000000000E+00 0. -1.
</event>
<event>
 7    1  0.6253338E-006  0.6337610E+02  0.7818608E-02  0.1435242E+00
          2   -1    0    0  502    0  0.00000000000E+00  0.00000000000E+00  0.34324167042E+03  0.34324167042E+03  0.00000000000E+00 0. -1.
          1   -1    0    0  501    0 -0.00000000000E+00 -0.00000000000E+00 -0.15172590035E+04  0.15172590035E+04  0.00000000000E+00 0. -1.
         25    2    1    2    0    0  0.45472240618E+02  0.30566488034E+02  0.13421786747E+03  0.19141967736E+03  0.12500008830E+03 0.  0.
          2    1    1    2  501    0 -0.62933624769E+02  0.82225858318E+01 -0.14854637172E+04  0.14868189893E+04  0.00000000000E+00 0. -1.
          1    1    1    2  502    0  0.17461384151E+02 -0.38789073866E+02  0.17722851659E+03  0.18226200724E+03  0.00000000000E+00 0. -1.
         22    1    3    3    0    0  0.84515704674E+02  0.10070706102E+02  0.56804850874E+02  0.10232846398E+03  0.00000000000E+00 0. -1.
         22    1    3    3    0    0 -0.39043464056E+02  0.20495781932E+02  0.77413016599E+02  0.89091213380E+02  0.00000000000E+00 0. -1.
</event>
<event>
 7    1  0.6253338E-006  0.9928540E+02  0.7818608E-02  0.1297591E+00
          2   -1    0    0  502    0  0.00000000000E+00  0.00000000000E+00  0.11583421666E+04  0.11583421666E+04  0.00000000000E+00 0. -1.
          1   -1    0    0  501    0 -0.00000000000E+00 -0.00000000000E+00 -0.18488233206E+03  0.18488233206E+03  0.00000000000E+00 0. -1.
         25    2    1    2    0    0  0.57815184055E+02  0.76424737744E+02  0.61314952542E+02  0.16900551194E+03  0.12498001286E+03 0.  0.
          2    1    1    2  501    0  0.23636242003E+02 -0.10286380658E+03 -0.10769460857E+03  0.15079046176E+03  0.00000000000E+00 0. -1.
          1    1    1    2  502    0 -0.81451426058E+02  0.26439068841E+02  0.10198394906E+04  0.10234285250E+04  0.00000000000E+00 0. -1.
         22    1    3    3    0    0  0.19166617887E+02  0.74450710365E+02  0.91801538053E+02  0.11974051071E+03  0.00000000000E+00 0. -1.
         22    1    3    3    0    0  0.38648566167E+02  0.19740273787E+01 -0.30486585511E+02  0.49265001238E+02  0.00000000000E+00 0. -1.
</event>
<event>
 7    1  0.6253338E-006  0.1248978E+03  0.7818608E-02  0.1432716E+00
          2   -1    0    0  502    0  0.00000000000E+00  0.00000000000E+00  0.39884000240E+04  0.39884000240E+04  0.00000000000E+00 0. -1.
          1   -1    0    0  501    0 -0.00000000000E+00 -0.00000000000E+00 -0.47982246546E+03  0.47982246546E+03  0.00000000000E+00 0. -1.
         25    2    1    2    0    0  0.20697975577E+02  0.10117525022E+03 -0.24329991741E+03  0.29237037525E+03  0.12498299509E+03 0.  0.
          2    1    1    2  501    0  0.48268277403E+00  0.21994364762E+02 -0.21042863001E+03  0.21157550282E+03  0.00000000000E+00 0. -1.
          1    1    1    2  502    0 -0.21180658351E+02 -0.12316961498E+03  0.39623061060E+04  0.39642766114E+04  0.00000000000E+00 0. -1.
         22    1    3    3    0    0 -0.12152989634E+02 -0.13983240148E+02 -0.11648617934E+03  0.11795022738E+03  0.00000000000E+00 0.  1.
         22    1    3    3    0    0  0.32850965211E+02  0.11515849036E+03 -0.12681373807E+03  0.17442014787E+03  0.00000000000E+00 0.  1.
</event>
<event>
 7    1  0.6253338E-006  0.1410526E+03  0.7818608E-02  0.1370360E+00
          2   -1    0    0  502    0  0.00000000000E+00  0.00000000000E+00  0.16414070575E+04  0.16414070575E+04  0.00000000000E+00 0. -1.
          1   -1    0    0  501    0 -0.00000000000E+00 -0.00000000000E+00 -0.46969125045E+03  0.46969125045E+03  0.00000000000E+00 0. -1.
         25    2    1    2    0    0  0.10909757101E+03 -0.40086120909E+02  0.39900910109E+03  0.43398236941E+03  0.12499302826E+03 0.  0.
          2    1    1    2  501    0  0.31698376214E+02 -0.34800161153E+01 -0.44720152137E+03  0.44833703648E+03  0.00000000000E+00 0. -1.
          1    1    1    2  502    0 -0.14079594722E+03  0.43566137025E+02  0.12199082273E+04  0.12287789020E+04  0.00000000000E+00 0. -1.
         22    1    3    3    0    0 -0.20137546029E+02 -0.17817449484E+02  0.15160478350E+03  0.15397075257E+03  0.00000000000E+00 0.  1.
         22    1    3    3    0    0  0.12923511704E+03 -0.22268671425E+02  0.24740431758E+03  0.28001161683E+03  0.00000000000E+00 0.  1.
</event>
<event>
 7    1  0.6253338E-006  0.1545011E+03  0.7818608E-02  0.1352822E+00
          2   -1    0    0  502    0  0.00000000000E+00  0.00000000000E+00  0.12441652025E+04  0.12441652025E+04  0.00000000000E+00 0. -1.
          1   -1    0    0  501    0 -0.00000000000E+00 -0.00000000000E+00 -0.18667755184E+03  0.18667755184E+03  0.00000000000E+00 0. -1.
         25    2    1    2    0    0 -0.12149126032E+03 -0.33789690635E+02  0.22663913553E+03  0.28791112074E+03  0.12500258462E+03 0.  0.
          2    1    1    2  501    0  0.15075530517E+03  0.50551157058E+02 -0.11515677948E+03  0.19632540686E+03  0.00000000000E+00 0. -1.
          1    1    1    2  502    0 -0.29264044855E+02 -0.16761466424E+02  0.94600529463E+03  0.94660622677E+03  0.00000000000E+00 0. -1.
         22    1    3    3    0    0  0.22646189467E+02  0.12707093990E+02  0.29244565359E+02  0.39109650191E+02  0.00000000000E+00 0.  1.
         22    1    3    3    0    0 -0.14413744978E+03 -0.46496784625E+02  0.19739457017E+03  0.24880147054E+03  0.00000000000E+00 0.  1.
</event>
<event>
 7    1  0.6253338E-006  0.5920888E+02  0.7818608E-02  0.1504731E+00
          2   -1    0    0  502    0  0.00000000000E+00  0.00000000000E+00  0.29591669569E+03  0.29591669569E+03  0.00000000000E+00 0. -1.
          1   -1    0    0  501    0 -0.00000000000E+00 -0.00000000000E+00 -0.26838140106E+04  0.26838140106E+04  0.00000000000E+00 0. -1.
         25    2    1    2    0    0  0.52825746861E+01 -0.34215422284E+02 -0.19670618047E+03  0.23561781692E+03  0.12499533390E+03 0.  0.
          2    1    1    2  501    0 -0.23889049075E+02  0.54697018329E+02 -0.24665976805E+04  0.24673197133E+04  0.00000000000E+00 0. -1.
          1    1    1    2  502    0  0.18606474388E+02 -0.20481596045E+02  0.27540654607E+03  0.27679317600E+03  0.00000000000E+00 0. -1.
         22    1    3    3    0    0  0.41665253334E+02  0.15729413499E+01 -0.11133848064E+02  0.43155880857E+02  0.00000000000E+00 0.  1.
         22    1    3    3    0    0 -0.36382678648E+02 -0.35788363633E+02 -0.18557233241E+03  0.19246193606E+03  0.00000000000E+00 0.  1.
</event>
<event>
 7    1  0.6253338E-006  0.9028842E+02  0.7818608E-02  0.1424726E+00
          2   -1    0    0  502    0  0.00000000000E+00  0.00000000000E+00  0.27206037722E+04  0.27206037722E+04  0.00000000000E+00 0. -1.
          1   -1    0    0  501    0 -0.00000000000E+00 -0.00000000000E+00 -0.47841622256E+03  0.47841622256E+03  0.00000000000E+00 0. -1.
         25    2    1    2    0    0 -0.15767204411E+02  0.59608651805E+02  0.73125842988E+03  0.74442255019E+03  0.12499698340E+03 0.  0.
          2    1    1    2  501    0  0.55619376655E+01 -0.90292560377E+02 -0.46736471565E+03  0.47603934611E+03  0.00000000000E+00 0. -1.
          1    1    1    2  502    0  0.10205266745E+02  0.30683908572E+02  0.19782938355E+04  0.19785580985E+04  0.00000000000E+00 0. -1.
         22    1    3    3    0    0 -0.29001722383E+02  0.71033856575E+02  0.22238400825E+03  0.23524786036E+03  0.00000000000E+00 0. -1.
         22    1    3    3    0    0  0.13234517973E+02 -0.11425204771E+02  0.50887442163E+03  0.50917468983E+03  0.00000000000E+00 0. -1.
</event>
<event>
 7    1  0.6253338E-006  0.5011464E+02  0.7818608E-02  0.1470414E+00
          2   -1    0    0  502    0  0.00000000000E+00  0.00000000000E+00  0.29977093295E+03  0.29977093295E+03  0.00000000000E+00 0. -1.
          1   -1    0    0  501    0 -0.00000000000E+00 -0.00000000000E+00 -0.18528365931E+04  0.18528365931E+04  0.00000000000E+00 0. -1.
         25    2    1    2    0    0 -0.10654202198E+02 -0.40578730727E+02 -0.12171502755E+03  0.17944539472E+03  0.12500382531E+03 0.  0.
          2    1    1    2  501    0 -0.30895799162E+02  0.39858993180E+02 -0.17002866571E+04  0.17010343930E+04  0.00000000000E+00 0. -1.
          1    1    1    2  502    0  0.41550001360E+02  0.71973754713E+00  0.26893602457E+03  0.27212773829E+03  0.00000000000E+00 0. -1.
         22    1    3    3    0    0  0.28451851826E+02 -0.14920386326E+02  0.14629993165E+02  0.35301026904E+02  0.00000000000E+00 0. -1.
         22    1    3    3    0    0 -0.39106054024E+02 -0.25658344401E+02 -0.13634502072E+03  0.14414436782E+03  0.00000000000E+00 0. -1.
</event>
<event>
 7    1  0.6253338E-006  0.1796867E+03  0.7818608E-02  0.1311334E+00
          2   -1    0    0  502    0  0.00000000000E+00  0.00000000000E+00  0.61393859709E+03  0.61393859709E+03  0.00000000000E+00 0. -1.
          1   -1    0    0  501    0 -0.00000000000E+00 -0.00000000000E+00 -0.18844623842E+03  0.18844623842E+03  0.00000000000E+00 0. -1.
         25    2    1    2    0    0  0.11203222117E+03 -0.16138607909E+03  0.72777253040E+02  0.24396339374E+03  0.12499969528E+03 0.  0.
          2    1    1    2  501    0 -0.12334824537E+03  0.12122553419E+03 -0.28197975358E+02  0.17522997913E+03  0.00000000000E+00 0. -1.
          1    1    1    2  502    0  0.11316024193E+02  0.40160544909E+02  0.38091308098E+03  0.38319146263E+03  0.00000000000E+00 0. -1.
         22    1    3    3    0    0  0.14077755970E+02 -0.10737616358E+03 -0.38711703516E+01  0.10836424538E+03  0.00000000000E+00 0. -1.
         22    1    3    3    0    0  0.97954465203E+02 -0.54009915516E+02  0.76648423391E+02  0.13559914836E+03  0.00000000000E+00 0. -1.
</event>
<event>
 7    1  0.6253338E-006  0.5737855E+02  0.7818608E-02  0.1527853E+00
          2   -1    0    0  502    0  0.00000000000E+00  0.00000000000E+00  0.14191082049E+04  0.14191082049E+04  0.00000000000E+00 0. -1.
          1   -1    0    0  501    0 -0.00000000000E+00 -0.00000000000E+00 -0.22326118946E+02  0.22326118946E+02  0.00000000000E+00 0. -1.
         25    2    1    2    0    0 -0.71098231570E+02 -0.17412335556E+02  0.93241271551E+03  0.94359745315E+03  0.12499813436E+03 0.  0.
          2    1    1    2  501    0  0.17626428964E+02  0.16936241700E+02 -0.54000829354E+01  0.25033740765E+02  0.00000000000E+00 0. -1.
          1    1    1    2  502    0  0.53471802605E+02  0.47609385556E+00  0.46976945333E+03  0.47280312988E+03  0.00000000000E+00 0. -1.
         22    1    3    3    0    0  0.72651917961E+01 -0.47457145940E+02  0.17224189321E+03  0.17880781160E+03  0.00000000000E+00 0.  1.
         22    1    3    3    0    0 -0.78363423366E+02  0.30044810385E+02  0.76017082230E+03  0.76478964155E+03  0.00000000000E+00 0.  1.
</event>
<event>
 7    1  0.6253338E-006  0.7891842E+02  0.7818608E-02  0.1358554E+00
          2   -1    0    0  502    0  0.00000000000E+00  0.00000000000E+00  0.17699275065E+04  0.17699275065E+04  0.00000000000E+00 0. -1.
          1   -1    0    0  501    0 -0.00000000000E+00 -0.00000000000E+00 -0.44957390562E+02  0.44957390562E+02  0.00000000000E+00 0. -1.
         25    2    1    2    0    0 -0.83915016951E+02 -0.54107176379E+02  0.25121688215E+03  0.29783235562E+03  0.12499949429E+03 0.  0.
          2    1    1    2  501    0  0.59326344455E+02 -0.20895366847E+02  0.27500741247E+02  0.68647813302E+02  0.00000000000E+00 0. -1.
          1    1    1    2  502    0  0.24588672496E+02  0.75002543226E+02  0.14462524925E+04  0.14484047281E+04  0.00000000000E+00 0. -1.
         22    1    3    3    0    0 -0.81011736916E+02 -0.27671815744E+01  0.22691218411E+03  0.24095580115E+03  0.00000000000E+00 0.  1.
         22    1    3    3    0    0 -0.29032800347E+01 -0.51339994804E+02  0.24304698041E+02  0.56876554470E+02  0.00000000000E+00 0.  1.
</event>
<event>
 7    1  0.6253338E-006  0.1847559E+03  0.7818608E-02  0.1344177E+00
          2   -1    0    0  502    0  0.00000000000E+00  0.00000000000E+00  0.20718244048E+04  0.20718244048E+04  0.00000000000E+00 0. -1.
          1   -1    0    0  501    0 -0.00000000000E+00 -0.00000000000E+00 -0.15933872167E+04  0.15933872167E+04  0.00000000000E+00 0. -1.
         25    2    1    2    0    0  0.44686554194E+02 -0.20429762198E+03  0.17349993308E+02  0.24425533666E+03  0.12500096297E+03 0.  0.
          2    1    1    2  501    0 -0.23898290572E+02  0.18216367317E+03 -0.14741129110E+04  0.14855179590E+04  0.00000000000E+00 0. -1.
          1    1    1    2  502    0 -0.20788263623E+02  0.22133948815E+02  0.19352001058E+04  0.19354383258E+04  0.00000000000E+00 0. -1.
         22    1    3    3    0    0  0.63447929625E+02 -0.20461204413E+03  0.36651481246E+02  0.21733628196E+03  0.00000000000E+00 0.  1.
         22    1    3    3    0    0 -0.18761375431E+02  0.31442214756E+00 -0.19301487939E+02  0.26919054701E+02  0.00000000000E+00 0.  1.
</event>
<event>
 7    1  0.6253338E-006  0.1624270E+03  0.7818608E-02  0.1315647E+00
          2   -1    0    0  502    0  0.00000000000E+00  0.00000000000E+00  0.83202524090E+03  0.83202524090E+03  0.00000000000E+00 0. -1.
          1   -1    0    0  501    0 -0.00000000000E+00 -0.00000000000E+00 -0.44123304643E+03  0.44123304643E+03  0.00000000000E+00 0. -1.
         25    2    1    2    0    0  0.12342808932E+03  0.10836799777E+03  0.11453756613E+03  0.23605435876E+03  0.12499876024E+03 0.  0.
          2    1    1    2  501    0 -0.88953558735E+02 -0.13634127860E+03 -0.36225494864E+03  0.39715277624E+03  0.00000000000E+00 0. -1.
          1    1    1    2  502    0 -0.34474530580E+02  0.27973280830E+02  0.63850957698E+03  0.64005115232E+03  0.00000000000E+00 0. -1.
         22    1    3    3    0    0  0.37209775779E+02  0.63772832157E+02 -0.13829197397E+02  0.75118494630E+02  0.00000000000E+00 0. -1.
         22    1    3    3    0    0  0.86218313536E+02  0.44595165616E+02  0.12836676353E+03  0.16093586413E+03  0.00000000000E+00 0. -1.
</event>
<event>
 7    1  0.6253338E-006  0.1134152E+03  0.7818608E-02  0.1323773E+00
          2   -1    0    0  502    0  0.00000000000E+00  0.00000000000E+00  0.16409714544E+04  0.16409714544E+04  0.00000000000E+00 0. -1.
          1   -1    0    0  501    0 -0.00000000000E+00 -0.00000000000E+00 -0.66111779079E+02  0.66111779079E+02  0.00000000000E+00 0. -1.
         25    2    1    2    0    0 -0.14293771728E+03  0.81323752084E+02  0.70730713944E+03  0.73685320498E+03  0.12499805003E+03 0.  0.
          2    1    1    2  501    0  0.10247935907E+03 -0.38205802895E+02  0.91041928435E+01  0.10974784161E+03  0.00000000000E+00 0. -1.
          1    1    1    2  502    0  0.40458358213E+02 -0.43117949190E+02  0.85844834306E+03  0.86048218691E+03  0.00000000000E+00 0. -1.
         22    1    3    3    0    0 -0.10132678613E+03 -0.48592339033E+01  0.47297929681E+03  0.48373561473E+03  0.00000000000E+00 0. -1.
         22    1    3    3    0    0 -0.41610931155E+02  0.86182985988E+02  0.23432784263E+03  0.25311759025E+03  0.00000000000E+00 0. -1.
</event>
<event>
 7    1  0.6253338E-006  0.8271794E+02  0.7818608E-02  0.1472040E+00
          2   -1    0    0  502    0  0.00000000000E+00  0.00000000000E+00  0.95862474572E+02  0.95862474572E+02  0.00000000000E+00 0. -1.
          1   -1    0    0  501    0 -0.00000000000E+00 -0.00000000000E+00 -0.16260363376E+04  0.16260363376E+04  0.00000000000E+00 0. -1.
         25    2    1    2    0    0 -0.96348702188E+02 -0.46510242856E+02 -0.10411312895E+04  0.10540522146E+04  0.12500173612E+03 0.  0.
          2    1    1    2  501    0  0.21157259268E+02  0.13102537529E+02 -0.55917819759E+03  0.55973168820E+03  0.00000000000E+00 0. -1.
          1    1    1    2  502    0  0.75191442920E+02  0.33407705327E+02  0.70135624068E+02  0.10811490937E+03  0.00000000000E+00 0. -1.
         22    1    3    3    0    0 -0.10374501897E+03 -0.21211056571E+02 -0.99730071593E+03  0.10029066038E+04  0.00000000000E+00 0.  1.
         22    1    3    3    0    0  0.73963167866E+01 -0.25299186285E+02 -0.43830573581E+02  0.51145610849E+02  0.00000000000E+00 0.  1.
</event>
<event>
 7    1  0.6253338E-006  0.1201895E+03  0.7818608E-02  0.1297157E+00
          2   -1    0    0  502    0  0.00000000000E+00  0.00000000000E+00  0.26953390012E+03  0.26953390012E+03  0.00000000000E+00 0. -1.
          1   -1    0    0  501    0 -0.00000000000E+00 -0.00000000000E+00 -0.72649353620E+03  0.72649353620E+03  0.00000000000E+00 0. -1.
         25    2    1    2    0    0 -0.56943977836E+02 -0.11071474675E+03 -0.34386924152E+03  0.38648926478E+03  0.12501009866E+03 0.  0.
          2    1    1    2  501    0  0.70405519029E+02 -0.93654939443E+01 -0.34274956743E+03  0.35003130654E+03  0.00000000000E+00 0. -1.
          1    1    1    2  502    0 -0.13461541193E+02  0.12008024070E+03  0.22965917287E+03  0.25950686500E+03  0.00000000000E+00 0. -1.
         22    1    3    3    0    0  0.23202322269E+01 -0.11277440758E+03 -0.26334835742E+03  0.28648875691E+03  0.00000000000E+00 0. -1.
         22    1    3    3    0    0 -0.59264210063E+02  0.20596608283E+01 -0.80520884107E+02  0.10000050787E+03  0.00000000000E+00 0. -1.
</event>
<event>
 7    1  0.6253338E-006  0.1552317E+03  0.7818608E-02  0.1272332E+00
          2   -1    0    0  502    0  0.00000000000E+00  0.00000000000E+00  0.19766907041E+04  0.19766907041E+04  0.00000000000E+00 0. -1.
          1   -1    0    0  501    0 -0.00000000000E+00 -0.00000000000E+00 -0.22193166711E+04  0.22193166711E+04  0.00000000000E+00 0. -1.
         25    2    1    2    0    0 -0.60443041267E+02  0.61984026197E+02  0.73252497245E+03  0.74813996847E+03  0.12500078568E+03 0.  0.
          2    1    1    2  501    0  0.11703711687E+03 -0.10236353354E+03 -0.22077954779E+04  0.22132638460E+04  0.00000000000E+00 0. -1.
          1    1    1    2  502    0 -0.56594075605E+02  0.40379507342E+02  0.12326445385E+04  0.12346035608E+04  0.00000000000E+00 0. -1.
         22    1    3    3    0    0 -0.14959336743E+02  0.74903750132E+02  0.20964296732E+03  0.22312446591E+03  0.00000000000E+00 0.  1.
         22    1    3    3    0    0 -0.45483704524E+02 -0.12919723935E+02  0.52288200513E+03  0.52501550256E+03  0.00000000000E+00 0.  1.
</event>
<event>
 7    1  0.6253338E-006  0.6667472E+02  0.7818608E-02  0.1375144E+00
          2   -1    0    0  502    0  0.00000000000E+00  0.00000000000E+00  0.28996103921E+03  0.28996103921E+03  0.00000000000E+00 0. -1.
          1   -1    0    0  501    0 -0.00000000000E+00 -0.00000000000E+00 -0.10960882368E+04  0.10960882368E+04  0.00000000000E+00 0. -1.
         25    2    1    2    0    0 -0.11320670778E+03 -0.53375799689E+02 -0.22602718815E+03  0.28701438308E+03  0.12499692650E+03 0.  0.
          2    1    1    2  501    0  0.48160973929E+02  0.43433359505E+02 -0.83411660417E+03  0.83663399733E+03  0.00000000000E+00 0. -1.
          1    1    1    2  502    0  0.65045733853E+02  0.99424401839E+01  0.25401659474E+03  0.26240089560E+03  0.00000000000E+00 0. -1.
         22    1    3    3    0    0  0.25552693801E+02 -0.22001464379E+02 -0.55469210841E+02  0.64914081266E+02  0.00000000000E+00 0.  1.
         22    1    3    3    0    0 -0.13875940158E+03 -0.31374335310E+02 -0.17055797731E+03  0.22210030182E+03  0.00000000000E+00 0.  1.
</event>
<event>
 7    1  0.6253338E-006  0.3620951E+02  0.7818608E-02  0.1576464E+00
          2   -1    0    0  502    0  0.00000000000E+00  0.00000000000E+00  0.13000363113E+04  0.13000363113E+04  0.00000000000E+00 0. -1.
          1   -1    0    0  501    0 -0.00000000000E+00 -0.00000000000E+00 -0.11075389110E+04  0.11075389110E+04  0.00000000000E+00 0. -1.
         25    2    1    2    0    0  0.27857005932E+02  0.45828278022E+02 -0.19370069366E+03  0.23669160766E+03  0.12500685807E+03 0.  0.
          2    1    1    2  501    0  0.37158076529E+01 -0.28125753627E+02 -0.89186096344E+03  0.89231207733E+03  0.00000000000E+00 0. -1.
          1    1    1    2  502    0 -0.31572813585E+02 -0.17702524396E+02  0.12780590574E+04  0.12785715373E+04  0.00000000000E+00 0. -1.
         22    1    3    3    0    0  0.36666040573E+02 -0.24035616299E+02 -0.14393539219E+03  0.15046430310E+03  0.00000000000E+00 0. -1.
         22    1    3    3    0    0 -0.88090346403E+01  0.69863894322E+02 -0.49765301470E+02  0.86227304559E+02  0.00000000000E+00 0. -1.
</event>
<event>
 7    1  0.6253338E-006  0.1187666E+03  0.7818608E-02  0.1304612E+00
          2   -1    0    0  502    0  0.00000000000E+00  0.00000000000E+00  0.39773159922E+03  0.39773159922E+03  0.00000000000E+00 0. -1.
          1   -1    0    0  501    0 -0.00000000000E+00 -0.00000000000E+00 -0.16218960164E+03  0.16218960164E+03  0.00000000000E+00 0. -1.
         25    2    1    2    0    0  0.10338645809E+03 -0.13205395065E+03  0.71380870109E+02  0.22101409685E+03  0.12499998716E+03 0.  0.
          2    1    1    2  501    0 -0.14478899475E+02  0.65529261896E+02 -0.59185685077E+02  0.89479986660E+02  0.00000000000E+00 0. -1.
          1    1    1    2  502    0 -0.88907558620E+02  0.66524688751E+02  0.22334681255E+03  0.24942711735E+03  0.00000000000E+00 0. -1.
         22    1    3    3    0    0  0.96009482115E+02 -0.12434902698E+03  0.10285897932E+03  0.18777771644E+03  0.00000000000E+00 0.  1.
         22    1    3    3    0    0  0.73769759798E+01 -0.77049236702E+01 -0.31478109208E+02  0.33236380409E+02  0.00000000000E+00 0.  1.
</event>
<event>
 7    1  0.6253338E-006  0.9644648E+02  0.7818608E-02  0.1413770E+00
          2   -1    0    0  502    0  0.00000000000E+00  0.00000000000E+00  0.53045545684E+03  0.53045545684E+03  0.00000000000E+00 0. -1.
          1   -1    0    0  501    0 -0.00000000000E+00 -0.00000000000E+00 -0.21927280140E+04  0.21927280140E+04  0.00000000000E+00 0. -1.
         25    2    1    2    0    0 -0.22235111246E+02 -0.11250926382E+03 -0.27342316999E+02  0.17182971115E+03  0.12500045087E+03 0.  0.
          2    1    1    2  501    0 -0.19634953985E+02  0.26443249311E+02 -0.20880127686E+04  0.20882725154E+04  0.00000000000E+00 0. -1.
          1    1    1    2  502    0  0.41870065230E+02  0.86066014509E+02  0.45308252844E+03  0.46308124427E+03  0.00000000000E+00 0. -1.
         22    1    3    3    0    0 -0.47692738385E+01 -0.10202641507E+03  0.33640099186E+02  0.10753507157E+03  0.00000000000E+00 0.  1.
         22    1    3    3    0    0 -0.17465837407E+02 -0.10482848752E+02 -0.60982416186E+02  0.64294639575E+02  0.00000000000E+00 0.  1.
</event>
<event>
 7    1  0.6253338E-006  0.3086467E+02  0.7818608E-02  0.1662957E+00
          2   -1    0    0  502    0  0.00000000000E+00  0.00000000000E+00  0.53756815214E+03  0.53756815214E+03  0.00000000000E+00 0. -1.
          1   -1    0    0  501    0 -0.00000000000E+00 -0.00000000000E+00 -0.13410820129E+04  0.13410820129E+04  0.00000000000E+00 0. -1.
         25    2    1    2    0    0  0.30818132087E+02  0.56292444179E+01  0.84259336785E+02  0.15396730146E+03  0.12499939370E+03 0.  0.
          2    1    1    2  501    0 -0.27457167749E+02  0.14117407716E+02 -0.13058057523E+04  0.13061706856E+04  0.00000000000E+00 0. -1.
          1    1    1    2  502    0 -0.33609643372E+01 -0.19746652134E+02  0.41803255470E+03  0.41851217801E+03  0.00000000000E+00 0. -1.
         22    1    3    3    0    0  0.64609248595E+02  0.42060559343E+02  0.37477447530E+02  0.85720503555E+02  0.00000000000E+00 0. -1.
         22    1    3    3    0    0 -0.33791116509E+02 -0.36431314925E+02  0.46781889255E+02  0.68246797905E+02  0.00000000000E+00 0. -1.
</event>
<event>
 7    1  0.6253338E-006  0.9787001E+02  0.7818608E-02  0.1312564E+00
          2   -1    0    0  502    0  0.00000000000E+00  0.00000000000E+00  0.46541075743E+04  0.46541075743E+04  0.00000000000E+00 0. -1.
          1   -1    0    0  501    0 -0.00000000000E+00 -0.00000000000E+00 -0.32846795392E+03  0.32846795392E+03  0.00000000000E+00 0. -1.
         25    2    1    2    0    0  0.34838456429E+02  0.41227234905E+02  0.13523882100E+03  0.19190594124E+03  0.12499979454E+03 0.  0.
          2    1    1    2  501    0  0.64231299217E+02 -0.40167526723E+02 -0.29479816818E+03  0.30437649378E+03  0.00000000000E+00 0. -1.
          1    1    1    2  502    0 -0.99069755646E+02 -0.10597081817E+01  0.44851989676E+04  0.44862930932E+04  0.00000000000E+00 0. -1.
         22    1    3    3    0    0  0.57930707667E+02  0.67709874756E+02  0.56050211310E+02  0.10527212460E+03  0.00000000000E+00 0. -1.
         22    1    3    3    0    0 -0.23092251238E+02 -0.26482639852E+02  0.79188609693E+02  0.86633816641E+02  0.00000000000E+00 0. -1.
</event>
<event>
 7    1  0.6253338E-006  0.8036815E+02  0.7818608E-02  0.1334534E+00
          2   -1    0    0  502    0  0.00000000000E+00  0.00000000000E+00  0.15757537489E+04  0.15757537489E+04  0.00000000000E+00 0. -1.
          1   -1    0    0  501    0 -0.00000000000E+00 -0.00000000000E+00 -0.14459132844E+03  0.14459132844E+03  0.00000000000E+00 0. -1.
         25    2    1    2    0    0 -0.10153644035E+03 -0.32744289272E+02  0.32911731564E+03  0.36786508818E+03  0.12499871379E+03 0.  0.
          2    1    1    2  501    0  0.71527721804E+02 -0.36964931402E+02 -0.11096501103E+03  0.13709797523E+03  0.00000000000E+00 0. -1.
          1    1    1    2  502    0  0.30008718548E+02  0.69709220674E+02  0.12130101158E+04  0.12153820139E+04  0.00000000000E+00 0. -1.
         22    1    3    3    0    0 -0.52197142523E+02 -0.79470194005E+02  0.16869848061E+03  0.19364718119E+03  0.00000000000E+00 0. -1.
         22    1    3    3    0    0 -0.49339297830E+02  0.46725904733E+02  0.16041883503E+03  0.17421790699E+03  0.00000000000E+00 0. -1.
</event>
<event>
 7    1  0.7113335E-006  0.6289555E+02  0.7818608E-02  0.1405028E+00
          2   -1    0    0  502    0  0.00000000000E+00  0.00000000000E+00  0.20617280563E+04  0.20617280563E+04  0.00000000000E+00 0. -1.
          1   -1    0    0  501    0 -0.00000000000E+00 -0.00000000000E+00 -0.65602049641E+03  0.65602049641E+03  0.00000000000E+00 0. -1.
         25    2    1    2    0    0 -0.38637559379E+01  0.45807772938E+02 -0.11581238130E+03  0.17649389621E+03  0.12499722823E+03 0.  0.
          2    1    1    2  501    0 -0.51656679288E+02 -0.15987446782E+02 -0.50794312348E+03  0.51081330020E+03  0.00000000000E+00 0. -1.
          1    1    1    2  502    0  0.55520435226E+02 -0.29820326156E+02  0.20294630647E+04  0.20304413563E+04  0.00000000000E+00 0. -1.
         22    1    3    3    0    0  0.16008919336E+02  0.76072380581E+02 -0.11676433124E+03  0.14027544915E+03  0.00000000000E+00 0. -1.
         22    1    3    3    0    0 -0.19872675274E+02 -0.30264607643E+02  0.95194993719E+00  0.36218447054E+02  0.00000000000E+00 0. -1.
</event>
<event>
 7    1  0.6253338E-006  0.7839512E+02  0.7818608E-02  0.1333917E+00
          2   -1    0    0  502    0  0.00000000000E+00  0.00000000000E+00  0.19550062763E+04  0.19550062763E+04  0.00000000000E+00 0. -1.
          1   -1    0    0  501    0 -0.00000000000E+00 -0.00000000000E+00 -0.71269222525E+02  0.71269222525E+02  0.00000000000E+00 0. -1.
         25    2    1    2    0    0  0.47156695066E+02  0.14620812011E+02  0.80775351768E+03  0.81885781510E+03  0.12499941601E+03 0.  0.
          2    1    1    2  501    0 -0.48465879636E+02  0.63763378252E+02 -0.39416735578E+02  0.89265832986E+02  0.00000000000E+00 0. -1.
          1    1    1    2  502    0  0.13091845698E+01 -0.78384190263E+02  0.11154002716E+04  0.11181518507E+04  0.00000000000E+00 0. -1.
         22    1    3    3    0    0  0.69138912571E+02 -0.15340561916E+02  0.24915403554E+03  0.25902365818E+03  0.00000000000E+00 0.  1.
         22    1    3    3    0    0 -0.21982217505E+02  0.29961373927E+02  0.55859948214E+03  0.55983415693E+03  0.00000000000E+00 0.  1.
</event>
<event>
 7    1  0.6253338E-006  0.6810931E+02  0.7818608E-02  0.1458753E+00
          2   -1    0    0  502    0  0.00000000000E+00  0.00000000000E+00  0.19233179593E+03  0.19233179593E+03  0.00000000000E+00 0. -1.
          1   -1    0    0  501    0 -0.00000000000E+00 -0.00000000000E+00 -0.30701984828E+03  0.30701984828E+03  0.00000000000E+00 0. -1.
         25    2    1    2    0    0  0.37549749952E+02  0.28644620151E+02 -0.50706073916E+02  0.14292803934E+03  0.12500728184E+03 0.  0.
          2    1    1    2  501    0 -0.38487782086E+01  0.33038365044E+02 -0.20030430819E+03  0.20304719289E+03  0.00000000000E+00 0. -1.
          1    1    1    2  502    0 -0.33700971743E+02 -0.61682985195E+02  0.13632232977E+03  0.15337641198E+03  0.00000000000E+00 0. -1.
         22    1    3    3    0    0  0.64098044870E+02  0.62634947395E+02 -0.41800428166E+02  0.98888683812E+02  0.00000000000E+00 0. -1.
         22    1    3    3    0    0 -0.26548294918E+02 -0.33990327244E+02 -0.89056457504E+01  0.44039355530E+02  0.00000000000E+00 0. -1.
</event>
<event>
 7    1  0.6253338E-006  0.3925538E+03  0.7818608E-02  0.1208415E+00
          2   -1    0    0  502    0  0.00000000000E+00  0.00000000000E+00  0.11755603936E+04  0.11755603936E+04  0.00000000000E+00 0. -1.
          1   -1    0    0  501    0 -0.00000000000E+00 -0.00000000000E+00 -0.13917802412E+04  0.13917802412E+04  0.00000000000E+00 0. -1.
         25    2    1    2    0    0 -0.40248274641E+03 -0.86337383040E+02  0.43858161963E+01  0.43022224858E+03  0.12500177167E+03 0.  0.
          2    1    1    2  501    0  0.34106422126E+02 -0.40063428187E+02 -0.11386580169E+04  0.11398729780E+04  0.00000000000E+00 0. -1.
          1    1    1    2  502    0  0.36837632428E+03  0.12640081123E+03  0.91805235310E+03  0.99724540832E+03  0.00000000000E+00 0. -1.
         22    1    3    3    0    0 -0.23875184883E+03 -0.10538421292E+03 -0.27196566307E+02  0.26238889243E+03  0.00000000000E+00 0.  1.
         22    1    3    3    0    0 -0.16373089758E+03  0.19046829882E+02  0.31582382504E+02  0.16783335615E+03  0.00000000000E+00 0.  1.
</event>
<event>
 7    1  0.6253338E-006  0.4980653E+02  0.7818608E-02  0.1502378E+00
          2   -1    0    0  502    0  0.00000000000E+00  0.00000000000E+00  0.15383395482E+03  0.15383395482E+03  0.00000000000E+00 0. -1.
          1   -1    0    0  501    0 -0.00000000000E+00 -0.00000000000E+00 -0.67572705912E+03  0.67572705912E+03  0.00000000000E+00 0. -1.
         25    2    1    2    0    0 -0.10014041761E+02  0.27927355276E+02 -0.29497468953E+03  0.32173917015E+03  0.12500323171E+03 0.  0.
          2    1    1    2  501    0  0.43262691094E+02 -0.31388919066E+02 -0.36339810880E+03  0.36730792281E+03  0.00000000000E+00 0. -1.
          1    1    1    2  502    0 -0.33248649333E+02  0.34615637900E+01  0.13647969404E+03  0.14051392098E+03  0.00000000000E+00 0. -1.
         22    1    3    3    0    0 -0.69812753348E+01 -0.28294177184E+02 -0.93320632465E+01  0.30600426014E+02  0.00000000000E+00 0. -1.
         22    1    3    3    0    0 -0.30327664266E+01  0.56221532460E+02 -0.28564262629E+03  0.29113874413E+03  0.00000000000E+00 0. -1.
</event>
<event>
 7    1  0.6253338E-006  0.8033630E+02  0.7818608E-02  0.1433334E+00
          2   -1    0    0  502    0  0.00000000000E+00  0.00000000000E+00  0.49439251043E+03  0.49439251043E+03  0.00000000000E+00 0. -1.
          1   -1    0    0  501    0 -0.00000000000E+00 -0.00000000000E+00 -0.12676480136E+04  0.12676480136E+04  0.00000000000E+00 0. -1.
         25    2    1    2    0    0 -0.83722667059E+02  0.68532239529E+01 -0.16309993413E+03  0.22199659629E+03  0.12499779436E+03 0.  0.
          2    1    1    2  501    0  0.76071082842E+02  0.26319352037E+02 -0.10729669445E+04  0.10759821476E+04  0.00000000000E+00 0. -1.
          1    1    1    2  502    0  0.76515842172E+01 -0.33172575990E+02  0.46281137546E+03  0.46406178014E+03  0.00000000000E+00 0. -1.
         22    1    3    3    0    0  0.83759060695E+01  0.24662461078E+02  0.76761942952E+01  0.27153577071E+02  0.00000000000E+00 0. -1.
         22    1    3    3    0    0 -0.92098573128E+02 -0.17809237125E+02 -0.17077612842E+03  0.19484301922E+03  0.00000000000E+00 0. -1.
</event>
<event>
 7    1  0.6253338E-006  0.2882826E+03  0.7818608E-02  0.1192631E+00
          2   -1    0    0  502    0  0.00000000000E+00  0.00000000000E+00  0.44096794291E+04  0.44096794291E+04  0.00000000000E+00 0. -1.
          1   -1    0    0  501    0 -0.00000000000E+00 -0.00000000000E+00 -0.44771651944E+03  0.44771651944E+03  0.00000000000E+00 0. -1.
         25    2    1    2    0    0  0.68555568856E+02 -0.23226375739E+03  0.38690569402E+01  0.27254843852E+03  0.12498545005E+03 0.  0.
          2    1    1    2  501    0 -0.42400774472E+02  0.31317048956E+03 -0.23316052669E+03  0.39273071233E+03  0.00000000000E+00 0. -1.
          1    1    1    2  502    0 -0.26154794383E+02 -0.80906732169E+02  0.41912543795E+04  0.41921167977E+04  0.00000000000E+00 0. -1.
         22    1    3    3    0    0  0.66985836062E+02 -0.67597220582E+02 -0.38263608614E+02  0.10256992838E+03  0.00000000000E+00 0. -1.
         22    1    3    3    0    0  0.15697327937E+01 -0.16466653680E+03  0.42132665554E+02  0.16997851014E+03  0.00000000000E+00 0. -1.
</event>
<event>
 7    1  0.6253338E-006  0.1133446E+03  0.7818608E-02  0.1316595E+00
          2   -1    0    0  502    0  0.00000000000E+00  0.00000000000E+00  0.13365777413E+04  0.13365777413E+04  0.00000000000E+00 0. -1.
          1   -1    0    0  501    0 -0.00000000000E+00 -0.00000000000E+00 -0.64668966785E+03  0.64668966785E+03  0.00000000000E+00 0. -1.
         25    2    1    2    0    0  0.10141138205E+03  0.12944492087E+03 -0.91511742246E+02  0.22591629396E+03  0.12499406770E+03 0.  0.
          2    1    1    2  501    0 -0.46324580833E+02 -0.98709910506E+02 -0.48108703291E+03  0.49328931313E+03  0.00000000000E+00 0. -1.
          1    1    1    2  502    0 -0.55086801218E+02 -0.30735010362E+02  0.12624868486E+04  0.12640618021E+04  0.00000000000E+00 0. -1.
         22    1    3    3    0    0  0.22972596186E+02  0.61294656133E+02  0.24755622932E+02  0.69982968733E+02  0.00000000000E+00 0. -1.
         22    1    3    3    0    0  0.78438785865E+02  0.68150264735E+02 -0.11626736518E+03  0.15593332523E+03  0.00000000000E+00 0. -1.
</event>
<event>
 7    1  0.6253338E-006  0.8068888E+02  0.7818608E-02  0.1407372E+00
          2   -1    0    0  502    0  0.00000000000E+00  0.00000000000E+00  0.13146916079E+04  0.13146916079E+04  0.00000000000E+00 0. -1.
          1   -1    0    0  501    0 -0.00000000000E+00 -0.00000000000E+00 -0.19283890859E+03  0.19283890859E+03  0.00000000000E+00 0. -1.
         25    2    1    2    0    0 -0.48867445824E+01 -0.84983545294E+02  0.35674433228E+03  0.38747614664E+03  0.12500064945E+03 0.  0.
          2    1    1    2  501    0 -0.38139825528E+02  0.16056179441E+02 -0.17328098391E+03  0.17815371614E+03  0.00000000000E+00 0. -1.
          1    1    1    2  502    0  0.43026570110E+02  0.68927365853E+02  0.93838935098E+03  0.94190065375E+03  0.00000000000E+00 0. -1.
         22    1    3    3    0    0 -0.33373526873E+00 -0.10541981231E+03  0.17333416471E+03  0.20287479109E+03  0.00000000000E+00 0. -1.
         22    1    3    3    0    0 -0.45530093136E+01  0.20436267012E+02  0.18341016757E+03  0.18460135555E+03  0.00000000000E+00 0. -1.
</event>
<event>
 7    1  0.6253338E-006  0.1595649E+03  0.7818608E-02  0.1210652E+00
          2   -1    0    0  502    0  0.00000000000E+00  0.00000000000E+00  0.16719656409E+04  0.16719656409E+04  0.00000000000E+00 0. -1.
          1   -1    0    0  501    0 -0.00000000000E+00 -0.00000000000E+00 -0.10389453995E+04  0.10389453995E+04  0.00000000000E+00 0. -1.
         25    2    1    2    0    0  0.21345289765E+03 -0.77131677725E+02  0.42003350534E+03  0.49352137759E+03  0.12499507711E+03 0.  0.
          2    1    1    2  501    0 -0.96965444180E+02  0.12615796922E+03 -0.99256162710E+03  0.10052346563E+04  0.00000000000E+00 0. -1.
          1    1    1    2  502    0 -0.11648745347E+03 -0.49026291494E+02  0.12055483632E+04  0.12121550066E+04  0.00000000000E+00 0. -1.
         22    1    3    3    0    0  0.13000742352E+02  0.27612669563E+01  0.13684110540E+03  0.13748502473E+03  0.00000000000E+00 0.  1.
         22    1    3    3    0    0  0.20045215530E+03 -0.79892944682E+02  0.28319239994E+03  0.35603635286E+03  0.00000000000E+00 0.  1.
</event>
<event>
 7    1  0.1018166E-005  0.8713223E+02  0.7818608E-02  0.1334916E+00
          2   -1    0    0  502    0  0.00000000000E+00  0.00000000000E+00  0.62263307855E+03  0.62263307855E+03  0.00000000000E+00 0. -1.
          1   -1    0    0  501    0 -0.00000000000E+00 -0.00000000000E+00 -0.19115362460E+04  0.19115362460E+04  0.00000000000E+00 0. -1.
         25    2    1    2    0    0  0.49588716088E+02  0.63143271356E+02 -0.10107155231E+04  0.10215761560E+04  0.12500344165E+03 0.  0.
          2    1    1    2  501    0  0.37540369356E+02 -0.58808905323E+02 -0.89093719326E+03  0.89366484154E+03  0.00000000000E+00 0. -1.
          1    1    1    2  502    0 -0.87129085444E+02 -0.43343660327E+01  0.61274954891E+03  0.61892832699E+03  0.00000000000E+00 0. -1.
         22    1    3    3    0    0  0.78760565012E+02 -0.15778376383E-01 -0.56524847246E+03  0.57070926264E+03  0.00000000000E+00 0. -1.
         22    1    3    3    0    0 -0.29171848924E+02  0.63159049732E+02 -0.44546705066E+03  0.45086689339E+03  0.00000000000E+00 0. -1.
</event>
<event>
 7    1  0.6253338E-006  0.1325357E+03  0.7818608E-02  0.1299444E+00
          2   -1    0    0  502    0  0.00000000000E+00  0.00000000000E+00  0.16884235115E+03  0.16884235115E+03  0.00000000000E+00 0. -1.
          1   -1    0    0  501    0 -0.00000000000E+00 -0.00000000000E+00 -0.37255694578E+03  0.37255694578E+03  0.00000000000E+00 0. -1.
         25    2    1    2    0    0  0.16264261240E+03  0.82702080111E+02 -0.95371561535E+02  0.24085804760E+03  0.12499844367E+03 0.  0.
          2    1    1    2  501    0 -0.10898941371E+03 -0.49563624132E+02 -0.17289109250E+03  0.21030115312E+03  0.00000000000E+00 0. -1.
          1    1    1    2  502    0 -0.53653198688E+02 -0.33138455979E+02  0.64548059396E+02  0.90240096220E+02  0.00000000000E+00 0. -1.
         22    1    3    3    0    0  0.80455728677E+02  0.63342641749E+02  0.13278923908E+02  0.10325572314E+03  0.00000000000E+00 0. -1.
         22    1    3    3    0    0  0.82186883719E+02  0.19359438362E+02 -0.10865048544E+03  0.13760232446E+03  0.00000000000E+00 0. -1.
</event>
<event>
 7    1  0.6253338E-006  0.1135445E+03  0.7818608E-02  0.1433490E+00
          2   -1    0    0  502    0  0.00000000000E+00  0.00000000000E+00  0.30175745013E+04  0.30175745013E+04  0.00000000000E+00 0. -1.
          1   -1    0    0  501    0 -0.00000000000E+00 -0.00000000000E+00 -0.92103708288E+01  0.92103708288E+01  0.00000000000E+00 0. -1.
         25    2    1    2    0    0  0.66882946955E+01 -0.10184307762E+03  0.12316678115E+04  0.12421964043E+04  0.12501825204E+03 0.  0.
          2    1    1    2  501    0 -0.20657016375E+02  0.12143102009E+03  0.10054339443E+04  0.10129509472E+04  0.00000000000E+00 0. -1.
          1    1    1    2  502    0  0.13968721679E+02 -0.19587942466E+02  0.77126237467E+03  0.77163752064E+03  0.00000000000E+00 0. -1.
         22    1    3    3    0    0 -0.24829965551E+02 -0.11779527515E+03  0.79018390967E+03  0.79930148576E+03  0.00000000000E+00 0. -1.
         22    1    3    3    0    0  0.31518260247E+02  0.15952197534E+02  0.44148390181E+03  0.44289491857E+03  0.00000000000E+00 0. -1.
</event>
<event>
 7    1  0.6253338E-006  0.1205650E+03  0.7818608E-02  0.1443006E+00
          2   -1    0    0  502    0  0.00000000000E+00  0.00000000000E+00  0.34420212163E+03  0.34420212163E+03  0.00000000000E+00 0. -1.
          1   -1    0    0  501    0 -0.00000000000E+00 -0.00000000000E+00 -0.19053028387E+04  0.19053028387E+04  0.00000000000E+00 0. -1.
         25    2    1    2    0    0 -0.11123044649E+03 -0.67002974101E+02  0.20603345493E+03  0.27374493842E+03  0.12499958400E+03 0.  0.
          2    1    1    2  501    0  0.11141542260E+03  0.45905132911E+02 -0.18684191071E+04  0.18723008939E+04  0.00000000000E+00 0. -1.
          1    1    1    2  502    0 -0.18497611513E+00  0.21097841189E+02  0.10128493501E+03  0.10345912806E+03  0.00000000000E+00 0. -1.
         22    1    3    3    0    0 -0.80328365110E+02  0.24088626245E+02  0.10219933907E+03  0.13220292381E+03  0.00000000000E+00 0.  1.
         22    1    3    3    0    0 -0.30902081377E+02 -0.91091600346E+02  0.10383411586E+03  0.14154201462E+03  0.00000000000E+00 0.  1.
</event>
<event>
 7    1  0.6253338E-006  0.9764200E+02  0.7818608E-02  0.1419277E+00
          2   -1    0    0  502    0  0.00000000000E+00  0.00000000000E+00  0.72460258202E+03  0.72460258202E+03  0.00000000000E+00 0. -1.
          1   -1    0    0  501    0 -0.00000000000E+00 -0.00000000000E+00 -0.40918665953E+03  0.40918665953E+03  0.00000000000E+00 0. -1.
         25    2    1    2    0    0  0.24220209256E+02  0.80633581057E+02  0.37653825252E+03  0.40557942986E+03  0.12500090153E+03 0.  0.
          2    1    1    2  501    0  0.17408367456E+01 -0.97897245617E+02 -0.38783975376E+03  0.40000821968E+03  0.00000000000E+00 0. -1.
          1    1    1    2  502    0 -0.25961046001E+02  0.17263664560E+02  0.32671742373E+03  0.32820159200E+03  0.00000000000E+00 0. -1.
         22    1    3    3    0    0 -0.79700316943E+01 -0.14341813211E+02  0.21377023442E+03  0.21439897886E+03  0.00000000000E+00 0. -1.
         22    1    3    3    0    0  0.32190240950E+02  0.94975394268E+02  0.16276801811E+03  0.19118045101E+03  0.00000000000E+00 0. -1.
</event>
<event>
 7    1  0.6253338E-006  0.1249120E+03  0.7818608E-02  0.1261556E+00
          2   -1    0    0  502    0  0.00000000000E+00  0.00000000000E+00  0.98840192338E+03  0.98840192338E+03  0.00000000000E+00 0. -1.
          1   -1    0    0  501    0 -0.00000000000E+00 -0.00000000000E+00 -0.15560780915E+03  0.15560780915E+03  0.00000000000E+00 0. -1.
         25    2    1    2    0    0  0.13066210106E+03 -0.14332734862E+03  0.63415587139E+03  0.67482871282E+03  0.12499923567E+03 0.  0.
          2    1    1    2  501    0 -0.57722109953E+02  0.76627173182E+02 -0.10949879140E+03  0.14558005003E+03  0.00000000000E+00 0. -1.
          1    1    1    2  502    0 -0.72939991103E+02  0.66700175440E+02  0.30813703425E+03  0.32360096968E+03  0.00000000000E+00 0. -1.
         22    1    3    3    0    0  0.57128522004E+02 -0.24102537501E+01  0.29212408660E+03  0.29766753152E+03  0.00000000000E+00 0. -1.
         22    1    3    3    0    0  0.73533579052E+02 -0.14091709487E+03  0.34203178479E+03  0.37716118130E+03  0.00000000000E+00 0. -1.
</event>
<event>
 7    1  0.6253338E-006  0.1081640E+03  0.7818608E-02  0.1421860E+00
          2   -1    0    0  502    0  0.00000000000E+00  0.00000000000E+00  0.53776114024E+03  0.53776114024E+03  0.00000000000E+00 0. -1.
          1   -1    0    0  501    0 -0.00000000000E+00 -0.00000000000E+00 -0.86405914301E+03  0.86405914301E+03  0.00000000000E+00 0. -1.
         25    2    1    2    0    0  0.36654339424E+02  0.10102160943E+03 -0.16053078113E+02  0.16563049746E+03  0.12500741658E+03 0.  0.
          2    1    1    2  501    0  0.24951188645E+02 -0.11777556238E+02 -0.76661564126E+03  0.76711199578E+03  0.00000000000E+00 0. -1.
          1    1    1    2  502    0 -0.61605528069E+02 -0.89244053192E+02  0.45637071660E+03  0.46907779002E+03  0.00000000000E+00 0. -1.
         22    1    3    3    0    0  0.43699478496E+02 -0.16109979322E+02 -0.12546940255E+02  0.48234858395E+02  0.00000000000E+00 0. -1.
         22    1    3    3    0    0 -0.70451390722E+01  0.11713158875E+03 -0.35061378580E+01  0.11739563906E+03  0.00000000000E+00 0. -1.
</event>
<event>
 7    1  0.6253338E-006  0.6249100E+02  0.7818608E-02  0.1513443E+00
          2   -1    0    0  502    0  0.00000000000E+00  0.00000000000E+00  0.35638067174E+03  0.35638067174E+03  0.00000000000E+00 0. -1.
          1   -1    0    0  501    0 -0.00000000000E+00 -0.00000000000E+00 -0.43096910216E+03  0.43096910216E+03  0.00000000000E+00 0. -1.
         25    2    1    2    0    0 -0.36344788356E+02  0.19494248332E+02  0.10587481255E+03  0.16893044687E+03  0.12500820209E+03 0.  0.
          2    1    1    2  501    0 -0.23047636088E+02  0.89176604051E+01 -0.39409670633E+03  0.39487077904E+03  0.00000000000E+00 0. -1.
          1    1    1    2  502    0  0.59392424444E+02 -0.28411908737E+02  0.21363346336E+03  0.22354854799E+03  0.00000000000E+00 0. -1.
         22    1    3    3    0    0 -0.13192413263E+02 -0.35858878165E+02  0.10186670579E+03  0.10879671254E+03  0.00000000000E+00 0. -1.
         22    1    3    3    0    0 -0.23152375093E+02  0.55353126497E+02  0.40081067658E+01  0.60133734337E+02  0.00000000000E+00 0. -1.
</event>
<event>
 7    1  0.6253338E-006  0.3070002E+02  0.7818608E-02  0.1635670E+00
          2   -1    0    0  502    0  0.00000000000E+00  0.00000000000E+00  0.18269533944E+03  0.18269533944E+03  0.00000000000E+00 0. -1.
          1   -1    0    0  501    0 -0.00000000000E+00 -0.00000000000E+00 -0.37766117425E+03  0.37766117425E+03  0.00000000000E+00 0. -1.
         25    2    1    2    0    0  0.93159126952E+01  0.64494868059E+01 -0.23339217519E+03  0.26500093281E+03  0.12500081936E+03 0.  0.
          2    1    1    2  501    0 -0.17958794459E+02 -0.28298163481E+02 -0.12542621510E+03  0.12982696095E+03  0.00000000000E+00 0. -1.
          1    1    1    2  502    0  0.86428817639E+01  0.21848676675E+02  0.16385255548E+03  0.16552861993E+03  0.00000000000E+00 0. -1.
         22    1    3    3    0    0 -0.55006518859E+02  0.20230223557E+02 -0.12773843126E+03  0.14054211427E+03  0.00000000000E+00 0.  1.
         22    1    3    3    0    0  0.64322431555E+02 -0.13780736751E+02 -0.10565374393E+03  0.12445881854E+03  0.00000000000E+00 0.  1.
</event>
<event>
 7    1  0.6253338E-006  0.6979639E+02  0.7818608E-02  0.1428558E+00
          2   -1    0    0  502    0  0.00000000000E+00  0.00000000000E+00  0.18882664798E+04  0.18882664798E+04  0.00000000000E+00 0. -1.
          1   -1    0    0  501    0 -0.00000000000E+00 -0.00000000000E+00 -0.61803392960E+03  0.61803392960E+03  0.00000000000E+00 0. -1.
         25    2    1    2    0    0  0.49117752188E+02  0.55093527045E+02  0.42974969995E+03  0.45360493034E+03  0.12499911168E+03 0.  0.
          2    1    1    2  501    0  0.18566782787E+02 -0.36136329014E+02 -0.60457031525E+03  0.60593384605E+03  0.00000000000E+00 0. -1.
          1    1    1    2  502    0 -0.67684534974E+02 -0.18957198031E+02  0.14450531655E+04  0.14467616330E+04  0.00000000000E+00 0. -1.
         22    1    3    3    0    0 -0.36295422846E+02 -0.90320728914E+01  0.89996348614E+02  0.97459113602E+02  0.00000000000E+00 0. -1.
         22    1    3    3    0    0  0.85413175033E+02  0.64125599936E+02  0.33975335133E+03  0.35614581674E+03  0.00000000000E+00 0. -1.
</event>
<event>
 7    1  0.6253338E-006  0.2013546E+03  0.7818608E-02  0.1289609E+00
          2   -1    0    0  502    0  0.00000000000E+00  0.00000000000E+00  0.14928601549E+04  0.14928601549E+04  0.00000000000E+00 0. -1.
          1   -1    0    0  501    0 -0.00000000000E+00 -0.00000000000E+00 -0.16629079808E+04  0.16629079808E+04  0.00000000000E+00 0. -1.
         25    2    1    2    0    0  0.66464302349E+02 -0.23220024397E+03  0.14817084398E+03  0.30970082375E+03  0.12500217775E+03 0.  0.
          2    1    1    2  501    0 -0.21051076096E+01  0.45434726027E+02 -0.15740937808E+04  0.15747507665E+04  0.00000000000E+00 0. -1.
          1    1    1    2  502    0 -0.64359194740E+02  0.18676551794E+03  0.12558751109E+04  0.12713165455E+04  0.00000000000E+00 0. -1.
         22    1    3    3    0    0  0.34000714665E+01 -0.93355078964E+01  0.61661339084E+02  0.62456648416E+02  0.00000000000E+00 0.  1.
         22    1    3    3    0    0  0.63064230883E+02 -0.22286473607E+03  0.86509504896E+02  0.24724417534E+03  0.00000000000E+00 0.  1.
</event>
<event>
 7    1  0.6253338E-006  0.2351814E+03  0.7818608E-02  0.1326046E+00
          2   -1    0    0  502    0  0.00000000000E+00  0.00000000000E+00  0.84409273340E+03  0.84409273340E+03  0.00000000000E+00 0. -1.
          1   -1    0    0  501    0 -0.00000000000E+00 -0.00000000000E+00 -0.55290868173E+03  0.55290868173E+03  0.00000000000E+00 0. -1.
         25    2    1    2    0    0  0.20550567448E+03 -0.45732772053E+02 -0.40123714471E+02  0.24811284022E+03  0.12500400127E+03 0.  0.
          2    1    1    2  501    0  0.27427957219E+02 -0.53500764888E+01 -0.38906678939E+03  0.39006907435E+03  0.00000000000E+00 0. -1.
          1    1    1    2  502    0 -0.23293363170E+03  0.51082848542E+02  0.72037455552E+03  0.75881950057E+03  0.00000000000E+00 0. -1.
         22    1    3    3    0    0  0.56081761483E+02 -0.70598031072E+02  0.42686638119E+01  0.90263322856E+02  0.00000000000E+00 0. -1.
         22    1    3    3    0    0  0.14942391300E+03  0.24865259019E+02 -0.44392378283E+02  0.15784951736E+03  0.00000000000E+00 0. -1.
</event>
<event>
 7    1  0.6253338E-006  0.2397201E+03  0.7818608E-02  0.1192814E+00
          2   -1    0    0  502    0  0.00000000000E+00  0.00000000000E+00  0.30142129187E+03  0.30142129187E+03  0.00000000000E+00 0. -1.
          1   -1    0    0  501    0 -0.00000000000E+00 -0.00000000000E+00 -0.14089904689E+04  0.14089904689E+04  0.00000000000E+00 0. -1.
         25    2    1    2    0    0  0.31213119777E+03 -0.22961306235E+02 -0.22066948517E+03  0.40283076348E+03  0.12499798444E+03 0.  0.
          2    1    1    2  501    0 -0.94441051725E+02 -0.38664169864E+02 -0.10331527523E+04  0.10381804466E+04  0.00000000000E+00 0. -1.
          1    1    1    2  502    0 -0.21769014605E+03  0.61625476099E+02  0.14625306043E+03  0.26940055062E+03  0.00000000000E+00 0. -1.
         22    1    3    3    0    0  0.17770217619E+03  0.16227033698E+02 -0.18768625144E+03  0.25897395434E+03  0.00000000000E+00 0.  1.
         22    1    3    3    0    0  0.13442902158E+03 -0.39188339932E+02 -0.32983233736E+02  0.14385680915E+03  0.00000000000E+00 0.  1.
</event>
<event>
 7    1  0.6253338E-006  0.6825983E+02  0.7818608E-02  0.1418322E+00
          2   -1    0    0  502    0  0.00000000000E+00  0.00000000000E+00  0.48534580595E+03  0.48534580595E+03  0.00000000000E+00 0. -1.
          1   -1    0    0  501    0 -0.00000000000E+00 -0.00000000000E+00 -0.23867017234E+03  0.23867017234E+03  0.00000000000E+00 0. -1.
         25    2    1    2    0    0  0.18550593357E+02 -0.17967803497E+02 -0.13702003434E+03  0.18726280015E+03  0.12500360009E+03 0.  0.
          2    1    1    2  501    0  0.42903555552E+02 -0.13329024477E+02 -0.67078779404E+02  0.80733763809E+02  0.00000000000E+00 0. -1.
          1    1    1    2  502    0 -0.61454148908E+02  0.31296827975E+02  0.45077444735E+03  0.45601941433E+03  0.00000000000E+00 0. -1.
         22    1    3    3    0    0  0.18632150021E+01  0.33664050332E+02  0.60450470533E+01  0.34253210781E+02  0.00000000000E+00 0.  1.
         22    1    3    3    0    0  0.16687378355E+02 -0.51631853829E+02 -0.14306508139E+03  0.15300958937E+03  0.00000000000E+00 0.  1.
</event>
<event>
 7    1  0.6253338E-006  0.1928734E+03  0.7818608E-02  0.1307235E+00
          2   -1    0    0  502    0  0.00000000000E+00  0.00000000000E+00  0.78594287055E+02  0.78594287055E+02  0.00000000000E+00 0. -1.
          1   -1    0    0  501    0 -0.00000000000E+00 -0.00000000000E+00 -0.23018556124E+04  0.23018556124E+04  0.00000000000E+00 0. -1.
         25    2    1    2    0    0 -0.12261172180E+02 -0.16873128630E+03 -0.33386902554E+03  0.39460515439E+03  0.12499647328E+03 0.  0.
          2    1    1    2  501    0  0.10722270241E+02 -0.38895453537E+02 -0.17127902224E+04  0.17132653529E+04  0.00000000000E+00 0. -1.
          1    1    1    2  502    0  0.15389019395E+01  0.20762673983E+03 -0.17660207741E+03  0.27257939221E+03  0.00000000000E+00 0. -1.
         22    1    3    3    0    0  0.63420817288E+01 -0.16060613606E+03 -0.33765108592E+03  0.37395562405E+03  0.00000000000E+00 0. -1.
         22    1    3    3    0    0 -0.18603253909E+02 -0.81251502339E+01  0.37820603718E+01  0.20649530333E+02  0.00000000000E+00 0. -1.
</event>
<event>
 7    1  0.6253338E-006  0.9244936E+02  0.7818608E-02  0.1352054E+00
          2   -1    0    0  502    0  0.00000000000E+00  0.00000000000E+00  0.61568317207E+03  0.61568317207E+03  0.00000000000E+00 0. -1.
          1   -1    0    0  501    0 -0.00000000000E+00 -0.00000000000E+00 -0.50027493219E+03  0.50027493219E+03  0.00000000000E+00 0. -1.
         25    2    1    2    0    0  0.63592014425E+02 -0.17970535837E+02  0.32852530001E+03  0.35765961720E+03  0.12499857826E+03 0.  0.
          2    1    1    2  501    0 -0.56021426567E+02  0.74192083449E+02 -0.47823077716E+03  0.48718327322E+03  0.00000000000E+00 0. -1.
          1    1    1    2  502    0 -0.75705878580E+01 -0.56221547612E+02  0.26511371703E+03  0.27111521383E+03  0.00000000000E+00 0. -1.
         22    1    3    3    0    0  0.59230490967E+02  0.47317389215E+02  0.18445669766E+03  0.19942783079E+03  0.00000000000E+00 0. -1.
         22    1    3    3    0    0  0.43615234578E+01 -0.65287925052E+02  0.14406860235E+03  0.15823178640E+03  0.00000000000E+00 0. -1.
</event>
<event>
 7    1  0.6253338E-006  0.1062721E+03  0.7818608E-02  0.1285318E+00
          2   -1    0    0  502    0  0.00000000000E+00  0.00000000000E+00  0.31992056598E+03  0.31992056598E+03  0.00000000000E+00 0. -1.
          1   -1    0    0  501    0 -0.00000000000E+00 -0.00000000000E+00 -0.12182384482E+04  0.12182384482E+04  0.00000000000E+00 0. -1.
         25    2    1    2    0    0  0.10472391322E+03  0.52989141948E+02 -0.40357589256E+03  0.43848968355E+03  0.12499901744E+03 0.  0.
          2    1    1    2  501    0 -0.74787236072E+02  0.49575054640E+02 -0.78513454185E+03  0.79024494021E+03  0.00000000000E+00 0. -1.
          1    1    1    2  502    0 -0.29936677144E+02 -0.10256419659E+03  0.29039255215E+03  0.30942439045E+03  0.00000000000E+00 0. -1.
         22    1    3    3    0    0  0.78937253430E+01  0.61565223382E+02 -0.24282261955E+03  0.25063003051E+03  0.00000000000E+00 0.  1.
         22    1    3    3    0    0  0.96830187872E+02 -0.85760814346E+01 -0.16075327302E+03  0.18785965304E+03  0.00000000000E+00 0.  1.
</event>
<event>
 7    1  0.6253338E-006  0.7855811E+02  0.7818608E-02  0.1360039E+00
          2   -1    0    0  502    0  0.00000000000E+00  0.00000000000E+00  0.18711374939E+04  0.18711374939E+04  0.00000000000E+00 0. -1.
          1   -1    0    0  501    0 -0.00000000000E+00 -0.00000000000E+00 -0.86479044975E+03  0.86479044975E+03  0.00000000000E+00 0. -1.
         25    2    1    2    0    0  0.68068563940E+02  0.11701056552E+03  0.26840765504E+02  0.18620811092E+03  0.12501292748E+03 0.  0.
          2    1    1    2  501    0 -0.22649365284E+02 -0.74218419835E+02 -0.78263576547E+03  0.78647320932E+03  0.00000000000E+00 0. -1.
          1    1    1    2  502    0 -0.45419198656E+02 -0.42792145689E+02  0.17621420441E+04  0.17632466234E+04  0.00000000000E+00 0. -1.
         22    1    3    3    0    0  0.15750484341E+02  0.75078238898E+02  0.72129583101E+02  0.10529718169E+03  0.00000000000E+00 0. -1.
         22    1    3    3    0    0  0.52318079599E+02  0.41932326626E+02 -0.45288817597E+02  0.80910929228E+02  0.00000000000E+00 0. -1.
</event>
<event>
 7    1  0.6253338E-006  0.1456161E+03  0.7818608E-02  0.1401953E+00
          2   -1    0    0  502    0  0.00000000000E+00  0.00000000000E+00  0.77483521391E+03  0.77483521391E+03  0.00000000000E+00 0. -1.
          1   -1    0    0  501    0 -0.00000000000E+00 -0.00000000000E+00 -0.21874256613E+03  0.21874256613E+03  0.00000000000E+00 0. -1.
         25    2    1    2    0    0  0.91241321893E+02  0.85590886966E+02  0.16622979359E+03  0.24271073261E+03  0.12500150677E+03 0.  0.
          2    1    1    2  501    0 -0.10544469884E+03 -0.10484817741E+03 -0.14956649418E+03  0.21090723316E+03  0.00000000000E+00 0. -1.
          1    1    1    2  502    0  0.14203376944E+02  0.19257290447E+02  0.53942934836E+03  0.53995981427E+03  0.00000000000E+00 0. -1.
         22    1    3    3    0    0  0.46865309525E+02  0.54299713077E+02  0.42286588631E+01  0.71851914608E+02  0.00000000000E+00 0.  1.
         22    1    3    3    0    0  0.44376012368E+02  0.31291173889E+02  0.16200113473E+03  0.17085881800E+03  0.00000000000E+00 0.  1.
</event>
<event>
 7    1  0.6253338E-006  0.1990594E+03  0.7818608E-02  0.1303853E+00
          2   -1    0    0  502    0  0.00000000000E+00  0.00000000000E+00  0.31672719845E+03  0.31672719845E+03  0.00000000000E+00 0. -1.
          1   -1    0    0  501    0 -0.00000000000E+00 -0.00000000000E+00 -0.34579544065E+03  0.34579544065E+03  0.00000000000E+00 0. -1.
         25    2    1    2    0    0 -0.20334018800E+02  0.17490159075E+03 -0.93088592529E+02  0.23515064017E+03  0.12500519486E+03 0.  0.
          2    1    1    2  501    0  0.26298933741E+02  0.30561898769E+02 -0.13522241197E+03  0.14110550759E+03  0.00000000000E+00 0. -1.
          1    1    1    2  502    0 -0.59649149408E+01 -0.20546348952E+03  0.19924276230E+03  0.28626649134E+03  0.00000000000E+00 0. -1.
         22    1    3    3    0    0 -0.32078481095E+02  0.19213086106E+03 -0.87647791249E+02  0.21360110494E+03  0.00000000000E+00 0.  1.
         22    1    3    3    0    0  0.11744462295E+02 -0.17229270306E+02 -0.54408012798E+01  0.21549535226E+02  0.00000000000E+00 0.  1.
</event>
<event>
 7    1  0.6253338E-006  0.6492673E+02  0.7818608E-02  0.1519656E+00
          2   -1    0    0  502    0  0.00000000000E+00  0.00000000000E+00  0.16921236989E+04  0.16921236989E+04  0.00000000000E+00 0. -1.
          1   -1    0    0  501    0 -0.00000000000E+00 -0.00000000000E+00 -0.10734179540E+04  0.10734179540E+04  0.00000000000E+00 0. -1.
         25    2    1    2    0    0  0.70011291938E+02  0.33964306002E+02 -0.21342930728E+03  0.25929173115E+03  0.12499991022E+03 0.  0.
          2    1    1    2  501    0 -0.63199803333E+02 -0.12191706600E+02 -0.83574198704E+03  0.83821687036E+03  0.00000000000E+00 0. -1.
          1    1    1    2  502    0 -0.68114886047E+01 -0.21772599402E+02  0.16678770392E+04  0.16680330513E+04  0.00000000000E+00 0. -1.
         22    1    3    3    0    0  0.63049448039E+02 -0.26082359571E+02 -0.17456849901E+03  0.18742914188E+03  0.00000000000E+00 0.  1.
         22    1    3    3    0    0  0.69618438992E+01  0.60046665573E+02 -0.38860808266E+02  0.71862589266E+02  0.00000000000E+00 0.  1.
</event>
<event>
 7    1  0.1301144E-005  0.7586554E+02  0.7818608E-02  0.1344515E+00
          2   -1    0    0  502    0  0.00000000000E+00  0.00000000000E+00  0.12975093736E+04  0.12975093736E+04  0.00000000000E+00 0. -1.
          1   -1    0    0  501    0 -0.00000000000E+00 -0.00000000000E+00 -0.10084669595E+04  0.10084669595E+04  0.00000000000E+00 0. -1.
         25    2    1    2    0    0 -0.80440293571E+02 -0.15343334103E+02 -0.16559444308E+03  0.22305239216E+03  0.12499916536E+03 0.  0.
          2    1    1    2  501    0  0.31829434101E+02  0.70784614513E+02 -0.81121861386E+03  0.81492282702E+03  0.00000000000E+00 0. -1.
          1    1    1    2  502    0  0.48610859470E+02 -0.55441280410E+02  0.12658554710E+04  0.12680011139E+04  0.00000000000E+00 0. -1.
         22    1    3    3    0    0 -0.10966346428E+03 -0.32032722539E+02 -0.11356161109E+03  0.16108510243E+03  0.00000000000E+00 0.  1.
         22    1    3    3    0    0  0.29223170707E+02  0.16689388436E+02 -0.52032831982E+02  0.61967289731E+02  0.00000000000E+00 0.  1.
</event>
<event>
 7    1  0.6253338E-006  0.7773873E+02  0.7818608E-02  0.1444223E+00
          2   -1    0    0  502    0  0.00000000000E+00  0.00000000000E+00  0.91420107734E+03  0.91420107734E+03  0.00000000000E+00 0. -1.
          1   -1    0    0  501    0 -0.00000000000E+00 -0.00000000000E+00 -0.20169222339E+03  0.20169222339E+03  0.00000000000E+00 0. -1.
         25    2    1    2    0    0 -0.29388483332E+02 -0.39893323470E+02  0.60124251317E+02  0.14729731988E+03  0.12500565842E+03 0.  0.
          2    1    1    2  501    0  0.56885250869E+02  0.57081605772E+02 -0.14748696392E+03  0.16806738533E+03  0.00000000000E+00 0. -1.
          1    1    1    2  502    0 -0.27496767537E+02 -0.17188282302E+02  0.79987156656E+03  0.80052859553E+03  0.00000000000E+00 0. -1.
         22    1    3    3    0    0  0.40669637648E+02 -0.49006121080E+02  0.25203294048E+02  0.68489600383E+02  0.00000000000E+00 0.  1.
         22    1    3    3    0    0 -0.70058120980E+02  0.91127976098E+01  0.34920957269E+02  0.78807719495E+02  0.00000000000E+00 0.  1.
</event>
<event>
 7    1  0.6253338E-006  0.8152663E+02  0.7818608E-02  0.1434279E+00
          2   -1    0    0  502    0  0.00000000000E+00  0.00000000000E+00  0.21042827828E+02  0.21042827828E+02  0.00000000000E+00 0. -1.
          1   -1    0    0  501    0 -0.00000000000E+00 -0.00000000000E+00 -0.10370537285E+04  0.10370537285E+04  0.00000000000E+00 0. -1.
         25    2    1    2    0    0 -0.62067180159E+02 -0.45022322209E+02 -0.49631958044E+03  0.51753014844E+03  0.12499993707E+03 0.  0.
          2    1    1    2  501    0 -0.20812232539E+02  0.26005507321E+02 -0.34155728163E+03  0.34317752268E+03  0.00000000000E+00 0. -1.
          1    1    1    2  502    0  0.82879412698E+02  0.19016814888E+02 -0.17813403863E+03  0.19738888524E+03  0.00000000000E+00 0. -1.
         22    1    3    3    0    0  0.38652260074E+02 -0.92521700313E+01 -0.13108759008E+03  0.13698013042E+03  0.00000000000E+00 0. -1.
         22    1    3    3    0    0 -0.10071944023E+03 -0.35770152178E+02 -0.36523199036E+03  0.38055001802E+03  0.00000000000E+00 0. -1.
</event>
<event>
 7    1  0.6253338E-006  0.9083714E+02  0.7818608E-02  0.1374734E+00
          2   -1    0    0  502    0  0.00000000000E+00  0.00000000000E+00  0.10260083104E+04  0.10260083104E+04  0.00000000000E+00 0. -1.
          1   -1    0    0  501    0 -0.00000000000E+00 -0.00000000000E+00 -0.16010693656E+04  0.16010693656E+04  0.00000000000E+00 0. -1.
         25    2    1    2    0    0 -0.31510754171E+02  0.10143806578E+03  0.19788928227E+03  0.25703573064E+03  0.12499835988E+03 0.  0.
          2    1    1    2  501    0 -0.31105142174E+02 -0.36245919389E+02 -0.15685734522E+04  0.15693004721E+04  0.00000000000E+00 0. -1.
          1    1    1    2  502    0  0.62615896346E+02 -0.65192146391E+02  0.79562311473E+03  0.80074147334E+03  0.00000000000E+00 0. -1.
         22    1    3    3    0    0  0.44193562432E+02  0.10799187383E+02  0.46789772808E+02  0.65260832419E+02  0.00000000000E+00 0.  1.
         22    1    3    3    0    0 -0.75704316603E+02  0.90638878397E+02  0.15109950946E+03  0.19177489822E+03  0.00000000000E+00 0.  1.
</event>
<event>
 7    1  0.6253338E-006  0.8945643E+02  0.7818608E-02  0.1361595E+00
          2   -1    0    0  502    0  0.00000000000E+00  0.00000000000E+00  0.41912853875E+03  0.41912853875E+03  0.00000000000E+00 0. -1.
          1   -1    0    0  501    0 -0.00000000000E+00 -0.00000000000E+00 -0.53589564031E+03  0.53589564031E+03  0.00000000000E+00 0. -1.
         25    2    1    2    0    0  0.14798708041E+02  0.86801008867E+02 -0.93522315706E+02  0.17923219849E+03  0.12499736214E+03 0.  0.
          2    1    1    2  501    0  0.48928184792E+02 -0.23058072046E+02 -0.39223784341E+03  0.39594970357E+03  0.00000000000E+00 0. -1.
          1    1    1    2  502    0 -0.63726892833E+02 -0.63742936821E+02  0.36899305756E+03  0.37984227700E+03  0.00000000000E+00 0. -1.
         22    1    3    3    0    0  0.53256861656E+02  0.55219641808E+02 -0.10314456786E+03  0.12854689430E+03  0.00000000000E+00 0. -1.
         22    1    3    3    0    0 -0.38458153616E+02  0.31581367059E+02  0.96222521536E+01  0.50685304195E+02  0.00000000000E+00 0. -1.
</event>
<event>
 7    1  0.6253338E-006  0.6673177E+02  0.7818608E-02  0.1475903E+00
          2   -1    0    0  502    0  0.00000000000E+00  0.00000000000E+00  0.18067053849E+03  0.18067053849E+03  0.00000000000E+00 0. -1.
          1   -1    0    0  501    0 -0.00000000000E+00 -0.00000000000E+00 -0.34091914113E+03  0.34091914113E+03  0.00000000000E+00 0. -1.
         25    2    1    2    0    0  0.90363371348E+02 -0.16312405921E+02  0.29054766392E+02  0.15780240682E+03  0.12500314668E+03 0.  0.
          2    1    1    2  501    0 -0.61293148386E+02  0.23764759786E+02 -0.26989693387E+03  0.27778763248E+03  0.00000000000E+00 0. -1.
          1    1    1    2  502    0 -0.29070222962E+02 -0.74523538649E+01  0.80593564835E+02  0.85999640314E+02  0.00000000000E+00 0. -1.
         22    1    3    3    0    0 -0.71291473266E+01  0.34747095576E+02  0.31909246727E+02  0.47711481001E+02  0.00000000000E+00 0. -1.
         22    1    3    3    0    0  0.97492518674E+02 -0.51059501497E+02 -0.28544803354E+01  0.11009092582E+03  0.00000000000E+00 0. -1.
</event>
<event>
 7    1  0.6253338E-006  0.9809164E+02  0.7818608E-02  0.1286601E+00
          2   -1    0    0  502    0  0.00000000000E+00  0.00000000000E+00  0.20220220285E+03  0.20220220285E+03  0.00000000000E+00 0. -1.
          1   -1    0    0  501    0 -0.00000000000E+00 -0.00000000000E+00 -0.57621908000E+03  0.57621908000E+03  0.00000000000E+00 0. -1.
         25    2    1    2    0    0 -0.66310056884E+02  0.13906668634E+02 -0.90846801320E+02  0.16872389655E+03  0.12499677149E+03 0.  0.
          2    1    1    2  501    0  0.26378816003E+02 -0.10350280004E+03 -0.42446125564E+03  0.43769399024E+03  0.00000000000E+00 0. -1.
          1    1    1    2  502    0  0.39931240881E+02  0.89596131408E+02  0.14129117982E+03  0.17200339606E+03  0.00000000000E+00 0. -1.
         22    1    3    3    0    0  0.11827143503E+02 -0.90591029205E+01 -0.85845005333E+02  0.87128144763E+02  0.00000000000E+00 0. -1.
         22    1    3    3    0    0 -0.78137200387E+02  0.22965771555E+02 -0.50017959862E+01  0.81595751792E+02  0.00000000000E+00 0. -1.
</event>
<event>
 7    1  0.6253338E-006  0.2776685E+03  0.7818608E-02  0.1257419E+00
          2   -1    0    0  502    0  0.00000000000E+00  0.00000000000E+00  0.69827400169E+03  0.69827400169E+03  0.00000000000E+00 0. -1.
          1   -1    0    0  501    0 -0.00000000000E+00 -0.00000000000E+00 -0.51319967214E+03  0.51319967214E+03  0.00000000000E+00 0. -1.
         25    2    1    2    0    0  0.23202401046E+03  0.14546064114E+03  0.46938154816E+03  0.55761533381E+03  0.12498753218E+03 0.  0.
          2    1    1    2  501    0 -0.12037846455E+02  0.43308141271E+02 -0.35308573693E+03  0.35593544705E+03  0.00000000000E+00 0. -1.
          1    1    1    2  502    0 -0.21998616400E+03 -0.18876878241E+03  0.68778518322E+02  0.29792289296E+03  0.00000000000E+00 0. -1.
         22    1    3    3    0    0  0.20325810723E+02  0.16488874723E+02 -0.69441259719E+00  0.26182127110E+02  0.00000000000E+00 0.  1.
         22    1    3    3    0    0  0.21169819974E+03  0.12897176642E+03  0.47007596076E+03  0.53143320670E+03  0.00000000000E+00 0.  1.
</event>
<event>
 7    1  0.6253338E-006  0.7523046E+02  0.7818608E-02  0.1453056E+00
          2   -1    0    0  502    0  0.00000000000E+00  0.00000000000E+00  0.15941866230E+04  0.15941866230E+04  0.00000000000E+00 0. -1.
          1   -1    0    0  501    0 -0.00000000000E+00 -0.00000000000E+00 -0.55399446436E+02  0.55399446436E+02  0.00000000000E+00 0. -1.
         25    2    1    2    0    0  0.80892282918E+02 -0.19260424784E+02  0.81283206093E+03  0.82658018613E+03  0.12499727772E+03 0.  0.
          2    1    1    2  501    0 -0.61162889654E+02  0.43679258469E+02 -0.18892922354E+02  0.77496575449E+02  0.00000000000E+00 0. -1.
          1    1    1    2  502    0 -0.19729393264E+02 -0.24418833685E+02  0.74484803794E+03  0.74550930780E+03  0.00000000000E+00 0. -1.
         22    1    3    3    0    0  0.10484568863E+03 -0.35629282529E+02  0.73903751329E+03  0.74728743483E+03  0.00000000000E+00 0. -1.
         22    1    3    3    0    0 -0.23953405709E+02  0.16368857745E+02  0.73794547637E+02  0.79292751307E+02  0.00000000000E+00 0. -1.
</event>
<event>
 7    1  0.6253338E-006  0.6499665E+02  0.7818608E-02  0.1409384E+00
          2   -1    0    0  502    0  0.00000000000E+00  0.00000000000E+00  0.43525342162E+03  0.43525342162E+03  0.00000000000E+00 0. -1.
          1   -1    0    0  501    0 -0.00000000000E+00 -0.00000000000E+00 -0.89319523127E+02  0.89319523127E+02  0.00000000000E+00 0. -1.
         25    2    1    2    0    0  0.18458038122E+02 -0.22759565433E+02  0.18406223441E+03  0.22441700477E+03  0.12500155562E+03 0.  0.
          2    1    1    2  501    0 -0.67762962827E+02  0.11517298358E+02 -0.48285655136E+02  0.83999832050E+02  0.00000000000E+00 0. -1.
          1    1    1    2  502    0  0.49304924705E+02  0.11242267076E+02  0.21015731922E+03  0.21615610792E+03  0.00000000000E+00 0. -1.
         22    1    3    3    0    0 -0.51814886702E+02 -0.26105509342E+02  0.85071403672E+02  0.10297292763E+03  0.00000000000E+00 0.  1.
         22    1    3    3    0    0  0.70272924824E+02  0.33459439084E+01  0.98990830733E+02  0.12144407714E+03  0.00000000000E+00 0.  1.
</event>
<event>
 7    1  0.6253338E-006  0.4117338E+02  0.7818608E-02  0.1515031E+00
          2   -1    0    0  502    0  0.00000000000E+00  0.00000000000E+00  0.26904098655E+04  0.26904098655E+04  0.00000000000E+00 0. -1.
          1   -1    0    0  501    0 -0.00000000000E+00 -0.00000000000E+00 -0.35242830233E+02  0.35242830233E+02  0.00000000000E+00 0. -1.
         25    2    1    2    0    0  0.13482867427E+02 -0.97104776328E+01  0.74962089480E+03  0.76015269254E+03  0.12499819587E+03 0.  0.
          2    1    1    2  501    0  0.25519042421E+02  0.26940930410E+02 -0.18165347555E+02  0.41316039370E+02  0.00000000000E+00 0. -1.
          1    1    1    2  502    0 -0.39001909848E+02 -0.17230452777E+02  0.19237114880E+04  0.19241839638E+04  0.00000000000E+00 0. -1.
         22    1    3    3    0    0  0.57582690381E+02 -0.39278763426E+02  0.33726625973E+03  0.34439384059E+03  0.00000000000E+00 0. -1.
         22    1    3    3    0    0 -0.44099822954E+02  0.29568285793E+02  0.41235463507E+03  0.41575885195E+03  0.00000000000E+00 0. -1.
</event>
<event>
 7    1  0.6253338E-006  0.1016707E+03  0.7818608E-02  0.1298735E+00
          2   -1    0    0  502    0  0.00000000000E+00  0.00000000000E+00  0.24222723136E+03  0.24222723136E+03  0.00000000000E+00 0. -1.
          1   -1    0    0  501    0 -0.00000000000E+00 -0.00000000000E+00 -0.17474607535E+04  0.17474607535E+04  0.00000000000E+00 0. -1.
         25    2    1    2    0    0  0.45789808017E+02  0.16955242540E+03 -0.31204624529E+02  0.21781442826E+03  0.12499866036E+03 0.  0.
          2    1    1    2  501    0 -0.18495329671E+02 -0.80652906174E+02 -0.16072646030E+04  0.16093932001E+04  0.00000000000E+00 0. -1.
          1    1    1    2  502    0 -0.27294478346E+02 -0.88899519224E+02  0.13323570537E+03  0.16248035651E+03  0.00000000000E+00 0. -1.
         22    1    3    3    0    0  0.73864549780E+02  0.64125735347E+02  0.15681498884E+02  0.99065589663E+02  0.00000000000E+00 0. -1.
         22    1    3    3    0    0 -0.28074741763E+02  0.10542669005E+03 -0.46886123413E+02  0.11874883860E+03  0.00000000000E+00 0. -1.
</event>
<event>
 7    1  0.6253338E-006  0.3121827E+02  0.7818608E-02  0.1602479E+00
          2   -1    0    0  502    0  0.00000000000E+00  0.00000000000E+00  0.34309708413E+03  0.34309708413E+03  0.00000000000E+00 0. -1.
          1   -1    0    0  501    0 -0.00000000000E+00 -0.00000000000E+00 -0.10311712235E+04  0.10311712235E+04  0.00000000000E+00 0. -1.
         25    2    1    2    0    0 -0.24356115139E+02 -0.44819124283E+01  0.89136410774E+02  0.15550835637E+03  0.12499696513E+03 0.  0.
          2    1    1    2  501    0  0.20759598332E+02 -0.23364894501E+02 -0.99684658480E+03  0.99733644917E+03  0.00000000000E+00 0. -1.
          1    1    1    2  502    0  0.35965168066E+01  0.27846806929E+02  0.21963603462E+03  0.22142350212E+03  0.00000000000E+00 0. -1.
         22    1    3    3    0    0 -0.49135253563E+02  0.33238033179E+01  0.11107621060E+03  0.12150409611E+03  0.00000000000E+00 0. -1.
         22    1    3    3    0    0  0.24779138424E+02 -0.78057157461E+01 -0.21939799824E+02  0.34004260257E+02  0.00000000000E+00 0. -1.
</event>
<event>
 7    1  0.6253338E-006  0.2916332E+03  0.7818608E-02  0.1249479E+00
          2   -1    0    0  502    0  0.00000000000E+00  0.00000000000E+00  0.77697039270E+03  0.77697039270E+03  0.00000000000E+00 0. -1.
          1   -1    0    0  501    0 -0.00000000000E+00 -0.00000000000E+00 -0.34935746214E+03  0.34935746214E+03  0.00000000000E+00 0. -1.
         25    2    1    2    0    0 -0.31245903728E+03 -0.96663945162E+01 -0.91200314023E+02  0.34880735239E+03  0.12499993055E+03 0.  0.
          2    1    1    2  501    0  0.25059924454E+02  0.38943308201E+02 -0.91353753372E+02  0.10242113709E+03  0.00000000000E+00 0. -1.
          1    1    1    2  502    0  0.28739911283E+03 -0.29276913685E+02  0.61016699796E+03  0.67509936537E+03  0.00000000000E+00 0. -1.
         22    1    3    3    0    0 -0.30862151461E+03  0.19473333873E+01 -0.10891350001E+03  0.32728150249E+03  0.00000000000E+00 0.  1.
         22    1    3    3    0    0 -0.38375226730E+01 -0.11613727904E+02  0.17713185985E+02  0.21525849898E+02  0.00000000000E+00 0.  1.
</event>
<event>
 7    1  0.6253338E-006  0.4570533E+02  0.7818608E-02  0.1511911E+00
          2   -1    0    0  502    0  0.00000000000E+00  0.00000000000E+00  0.11451521691E+04  0.11451521691E+04  0.00000000000E+00 0. -1.
          1   -1    0    0  501    0 -0.00000000000E+00 -0.00000000000E+00 -0.10257953920E+04  0.10257953920E+04  0.00000000000E+00 0. -1.
         25    2    1    2    0    0  0.14720491530E+02 -0.10241839329E+02 -0.29229797751E+02  0.12962097796E+03  0.12500251480E+03 0.  0.
          2    1    1    2  501    0 -0.12564850443E+02  0.44313817271E+02 -0.94554313837E+03  0.94666436312E+03  0.00000000000E+00 0. -1.
          1    1    1    2  502    0 -0.21556410870E+01 -0.34071977942E+02  0.10941297133E+04  0.10946622200E+04  0.00000000000E+00 0. -1.
         22    1    3    3    0    0 -0.17465397822E+02  0.20146196449E+02  0.39627986164E+02  0.47762816499E+02  0.00000000000E+00 0. -1.
         22    1    3    3    0    0  0.32185889352E+02 -0.30388035778E+02 -0.68857783915E+02  0.81858161460E+02  0.00000000000E+00 0. -1.
</event>
<event>
 7    1  0.6253338E-006  0.1832856E+03  0.7818608E-02  0.1333072E+00
          2   -1    0    0  502    0  0.00000000000E+00  0.00000000000E+00  0.15510377526E+03  0.15510377526E+03  0.00000000000E+00 0. -1.
          1   -1    0    0  501    0 -0.00000000000E+00 -0.00000000000E+00 -0.60440638664E+03  0.60440638664E+03  0.00000000000E+00 0. -1.
         25    2    1    2    0    0 -0.14765230989E+02 -0.16950588480E+03 -0.23001447033E+03  0.31221727792E+03  0.12499085984E+03 0.  0.
          2    1    1    2  501    0  0.28785408669E+02 -0.17536961471E+02 -0.25426718681E+03  0.25649161206E+03  0.00000000000E+00 0. -1.
          1    1    1    2  502    0 -0.14020177680E+02  0.18704284627E+03  0.34979045758E+02  0.19080127192E+03  0.00000000000E+00 0. -1.
         22    1    3    3    0    0  0.44255852740E+02 -0.13647856445E+03 -0.15805137804E+03  0.21346010671E+03  0.00000000000E+00 0. -1.
         22    1    3    3    0    0 -0.59021083729E+02 -0.33027320348E+02 -0.71963092289E+02  0.98757171211E+02  0.00000000000E+00 0. -1.
</event>
<event>
 7    1  0.6253338E-006  0.4364063E+02  0.7818608E-02  0.1568411E+00
          2   -1    0    0  502    0  0.00000000000E+00  0.00000000000E+00  0.13995477627E+04  0.13995477627E+04  0.00000000000E+00 0. -1.
          1   -1    0    0  501    0 -0.00000000000E+00 -0.00000000000E+00 -0.15659993470E+03  0.15659993470E+03  0.00000000000E+00 0. -1.
         25    2    1    2    0    0  0.22766071262E+02  0.14996600434E+02  0.22124371794E+03  0.25556905535E+03  0.12499426907E+03 0.  0.
          2    1    1    2  501    0 -0.19241371714E+02 -0.39495834216E+02 -0.13584107217E+03  0.14276886283E+03  0.00000000000E+00 0. -1.
          1    1    1    2  502    0 -0.35246995476E+01  0.24499233782E+02  0.11575451822E+04  0.11578097792E+04  0.00000000000E+00 0. -1.
         22    1    3    3    0    0  0.17208708003E+02 -0.16640594690E+02  0.22214865833E+03  0.22343472295E+03  0.00000000000E+00 0.  1.
         22    1    3    3    0    0  0.55573632585E+01  0.31637195124E+02 -0.90494039201E+00  0.32134332400E+02  0.00000000000E+00 0.  1.
</event>
<event>
 7    1  0.6253338E-006  0.1537707E+03  0.7818608E-02  0.1332928E+00
          2   -1    0    0  502    0  0.00000000000E+00  0.00000000000E+00  0.11597956233E+04  0.11597956233E+04  0.00000000000E+00 0. -1.
          1   -1    0    0  501    0 -0.00000000000E+00 -0.00000000000E+00 -0.13130433751E+04  0.13130433751E+04  0.00000000000E+00 0. -1.
         25    2    1    2    0    0  0.66154555284E+02 -0.93842007089E+02  0.26249865598E+03  0.31258836863E+03  0.12499278513E+03 0.  0.
          2    1    1    2  501    0 -0.82047728552E+02  0.13079625465E+03 -0.12829033310E+04  0.12921611535E+04  0.00000000000E+00 0. -1.
          1    1    1    2  502    0  0.15893173268E+02 -0.36954247557E+02  0.86715692322E+03  0.86808947629E+03  0.00000000000E+00 0. -1.
         22    1    3    3    0    0  0.16754227262E+02  0.25679168148E+02  0.16877258050E+02  0.34999509242E+02  0.00000000000E+00 0. -1.
         22    1    3    3    0    0  0.49400328022E+02 -0.11952117524E+03  0.24562139793E+03  0.27758885939E+03  0.00000000000E+00 0. -1.
</event>
<event>
 7    1  0.6253338E-006  0.7241855E+02  0.7818608E-02  0.1404286E+00
          2   -1    0    0  502    0  0.00000000000E+00  0.00000000000E+00  0.11206072194E+03  0.11206072194E+03  0.00000000000E+00 0. -1.
          1   -1    0    0  501    0 -0.00000000000E+00 -0.00000000000E+00 -0.16208394373E+04  0.16208394373E+04  0.00000000000E+00 0. -1.
         25    2    1    2    0    0  0.82718219786E+02  0.59065283387E+02 -0.67279769601E+03  0.69181796368E+03  0.12499737404E+03 0.  0.
          2    1    1    2  501    0 -0.11922544681E+02 -0.45708783318E+02 -0.92520092586E+03  0.92640606278E+03  0.00000000000E+00 0. -1.
          1    1    1    2  502    0 -0.70795675104E+02 -0.13356500068E+02  0.89219906527E+02  0.11467613278E+03  0.00000000000E+00 0. -1.
         22    1    3    3    0    0  0.15785047194E+02 -0.16797289535E+01 -0.46429348510E+03  0.46456477429E+03  0.00000000000E+00 0. -1.
         22    1    3    3    0    0  0.66933172592E+02  0.60745012340E+02 -0.20850421091E+03  0.22725318938E+03  0.00000000000E+00 0. -1.
</event>
<event>
 7    1  0.6253338E-006  0.8879936E+02  0.7818608E-02  0.1421653E+00
          2   -1    0    0  502    0  0.00000000000E+00  0.00000000000E+00  0.26277894898E+03  0.26277894898E+03  0.00000000000E+00 0. -1.
          1   -1    0    0  501    0 -0.00000000000E+00 -0.00000000000E+00 -0.98932993328E+02  0.98932993328E+02  0.00000000000E+00 0. -1.
         25    2    1    2    0    0 -0.69000917797E+02 -0.19155414237E+02  0.73482037096E+02  0.16171743546E+03  0.12499945041E+03 0.  0.
          2    1    1    2  501    0  0.81937970943E+02  0.50231530091E+02 -0.75991780292E+01  0.96409466363E+02  0.00000000000E+00 0. -1.
          1    1    1    2  502    0 -0.12937053147E+02 -0.31076115854E+02  0.97963096588E+02  0.10358504049E+03  0.00000000000E+00 0. -1.
         22    1    3    3    0    0 -0.57924837709E+02 -0.30094932113E+02 -0.18959733904E+02  0.67973989674E+02  0.00000000000E+00 0.  1.
         22    1    3    3    0    0 -0.11076080087E+02  0.10939517876E+02  0.92441771000E+02  0.93743445782E+02  0.00000000000E+00 0.  1.
</event>
<event>
 7    1  0.6253338E-006  0.5948565E+02  0.7818608E-02  0.1410174E+00
          2   -1    0    0  502    0  0.00000000000E+00  0.00000000000E+00  0.24092583967E+03  0.24092583967E+03  0.00000000000E+00 0. -1.
          1   -1    0    0  501    0 -0.00000000000E+00 -0.00000000000E+00 -0.75786771974E+03  0.75786771974E+03  0.00000000000E+00 0. -1.
         25    2    1    2    0    0 -0.38765429444E+02  0.10663525362E+03  0.17866007181E+02  0.16975792466E+03  0.12499889175E+03 0.  0.
          2    1    1    2  501    0  0.16817158879E+02 -0.56296277454E+02 -0.67547686958E+03  0.67802735124E+03  0.00000000000E+00 0. -1.
          1    1    1    2  502    0  0.21948270565E+02 -0.50338976166E+02  0.14066898232E+03  0.15100828351E+03  0.00000000000E+00 0. -1.
         22    1    3    3    0    0  0.26181885039E+02 -0.13495854402E+02  0.15250136909E+02  0.33169200563E+02  0.00000000000E+00 0.  1.
         22    1    3    3    0    0 -0.64947314483E+02  0.12013110802E+03  0.26158702729E+01  0.13658872410E+03  0.00000000000E+00 0.  1.
</event>
<event>
 7    1  0.6253338E-006  0.8935146E+02  0.7818608E-02  0.1332882E+00
          2   -1    0    0  502    0  0.00000000000E+00  0.00000000000E+00  0.18413861282E+04  0.18413861282E+04  0.00000000000E+00 0. -1.
          1   -1    0    0  501    0 -0.00000000000E+00 -0.00000000000E+00 -0.89046623953E+02  0.89046623953E+02  0.00000000000E+00 0. -1.
         25    2    1    2    0    0  0.86195666481E+02  0.12419278978E+03  0.19982292809E+03  0.28001337259E+03  0.12499897714E+03 0.  0.
          2    1    1    2  501    0 -0.54730618807E+02 -0.42439538420E+02 -0.22613345070E+02  0.72855462606E+02  0.00000000000E+00 0. -1.
          1    1    1    2  502    0 -0.31465047674E+02 -0.81753251360E+02  0.15751299212E+04  0.15775639169E+04  0.00000000000E+00 0. -1.
         22    1    3    3    0    0  0.84088312198E+02  0.10025361029E+03  0.70808780889E+02  0.14878008628E+03  0.00000000000E+00 0. -1.
         22    1    3    3    0    0  0.21073542838E+01  0.23939179492E+02  0.12901414720E+03  0.13123328630E+03  0.00000000000E+00 0. -1.
</event>
<event>
 7    1  0.6253338E-006  0.1022744E+03  0.7818608E-02  0.1351930E+00
          2   -1    0    0  502    0  0.00000000000E+00  0.00000000000E+00  0.25604604399E+03  0.25604604399E+03  0.00000000000E+00 0. -1.
          1   -1    0    0  501    0 -0.00000000000E+00 -0.00000000000E+00 -0.74882870747E+03  0.74882870747E+03  0.00000000000E+00 0. -1.
         25    2    1    2    0    0 -0.12628036670E+03 -0.23014642461E+02 -0.14651335817E+03  0.23144411159E+03  0.12499523145E+03 0.  0.
          2    1    1    2  501    0  0.27215947643E+02  0.43525018393E+02 -0.54659995534E+03  0.54900514224E+03  0.00000000000E+00 0. -1.
          1    1    1    2  502    0  0.99064419062E+02 -0.20510375932E+02  0.20033065003E+03  0.22442549763E+03  0.00000000000E+00 0. -1.
         22    1    3    3    0    0 -0.45097966889E+02  0.38579096288E+02 -0.10659113047E+03  0.12199935403E+03  0.00000000000E+00 0. -1.
         22    1    3    3    0    0 -0.81182399816E+02 -0.61593738749E+02 -0.39922227696E+02  0.10944475756E+03  0.00000000000E+00 0. -1.
</event>
<event>
 7    1  0.6253338E-006  0.4835968E+02  0.7818608E-02  0.1507861E+00
          2   -1    0    0  502    0  0.00000000000E+00  0.00000000000E+00  0.95369105794E+03  0.95369105794E+03  0.00000000000E+00 0. -1.
          1   -1    0    0  501    0 -0.00000000000E+00 -0.00000000000E+00 -0.95861214503E+02  0.95861214503E+02  0.00000000000E+00 0. -1.
         25    2    1    2    0    0 -0.48583180499E+02 -0.48395730834E+02  0.43620436540E+03  0.45891564061E+03  0.12500737822E+03 0.  0.
          2    1    1    2  501    0  0.45638794146E+02  0.15362308378E+02 -0.77049580844E+02  0.90859990964E+02  0.00000000000E+00 0. -1.
          1    1    1    2  502    0  0.29443863533E+01  0.33033422456E+02  0.49867505888E+03  0.49977664087E+03  0.00000000000E+00 0. -1.
         22    1    3    3    0    0 -0.13981599012E+02 -0.59127656917E+02  0.40931361642E+03  0.41379850351E+03  0.00000000000E+00 0. -1.
         22    1    3    3    0    0 -0.34601581487E+02  0.10731926083E+02  0.26890748983E+02  0.45117137096E+02  0.00000000000E+00 0. -1.
</event>
<event>
 7    1  0.6253338E-006  0.9267270E+02  0.7818608E-02  0.1396436E+00
          2   -1    0    0  502    0  0.00000000000E+00  0.00000000000E+00  0.48566132558E+03  0.48566132558E+03  0.00000000000E+00 0. -1.
          1   -1    0    0  501    0 -0.00000000000E+00 -0.00000000000E+00 -0.38217013929E+03  0.38217013929E+03  0.00000000000E+00 0. -1.
         25    2    1    2    0    0 -0.99695200341E+02  0.13350388590E+02  0.91098403035E+02  0.18450243243E+03  0.12499945076E+03 0.  0.
          2    1    1    2  501    0  0.89349530495E+02  0.24542465280E+02 -0.32791853071E+03  0.34075832196E+03  0.00000000000E+00 0. -1.
          1    1    1    2  502    0  0.10345669847E+02 -0.37892853869E+02  0.34031131397E+03  0.34257071048E+03  0.00000000000E+00 0. -1.
         22    1    3    3    0    0 -0.33242186068E+02  0.42770124350E+02  0.97509983874E+02  0.11154605966E+03  0.00000000000E+00 0.  1.
         22    1    3    3    0    0 -0.66453014274E+02 -0.29419735761E+02 -0.64115808382E+01  0.72956372766E+02  0.00000000000E+00 0.  1.
</event>
<event>
 7    1  0.6253338E-006  0.1064734E+03  0.7818608E-02  0.1448173E+00
          2   -1    0    0  502    0  0.00000000000E+00  0.00000000000E+00  0.10912571822E+04  0.10912571822E+04  0.00000000000E+00 0. -1.
          1   -1    0    0  501    0 -0.00000000000E+00 -0.00000000000E+00 -0.59785417411E+03  0.59785417411E+03  0.00000000000E+00 0. -1.
         25    2    1    2    0    0 -0.11448274779E+03  0.46562937220E+02 -0.26373555506E+03  0.31694617013E+03  0.12499610031E+03 0.  0.
          2    1    1    2  501    0  0.22151153362E+02  0.61649201601E+01 -0.30442397752E+03  0.30529107082E+03  0.00000000000E+00 0. -1.
          1    1    1    2  502    0  0.92331594424E+02 -0.52727857381E+02  0.10615625407E+04  0.10668741154E+04  0.00000000000E+00 0. -1.
         22    1    3    3    0    0 -0.13577015726E+03  0.50121279552E+02 -0.25588952085E+03  0.29398150477E+03  0.00000000000E+00 0.  1.
         22    1    3    3    0    0  0.21287409472E+02 -0.35583423318E+01 -0.78460342078E+01  0.22964665357E+02  0.00000000000E+00 0.  1.
</event>
<event>
 7    1  0.6253338E-006  0.4032719E+02  0.7818608E-02  0.1538950E+00
          2   -1    0    0  502    0  0.00000000000E+00  0.00000000000E+00  0.23845360621E+03  0.23845360621E+03  0.00000000000E+00 0. -1.
          1   -1    0    0  501    0 -0.00000000000E+00 -0.00000000000E+00 -0.16920665299E+04  0.16920665299E+04  0.00000000000E+00 0. -1.
         25    2    1    2    0    0 -0.58556610651E+02 -0.23638051110E+02 -0.67503576438E+02  0.15546315236E+03  0.12499769917E+03 0.  0.
          2    1    1    2  501    0  0.31758043338E+02 -0.60847973050E+01 -0.15783569102E+04  0.15786881054E+04  0.00000000000E+00 0. -1.
          1    1    1    2  502    0  0.26798567313E+02  0.29722848416E+02  0.19224756296E+03  0.19636887837E+03  0.00000000000E+00 0. -1.
         22    1    3    3    0    0 -0.25308949011E+02 -0.74150834612E+02 -0.27871884041E+02  0.83160874777E+02  0.00000000000E+00 0. -1.
         22    1    3    3    0    0 -0.33247661640E+02  0.50512783501E+02 -0.39631692397E+02  0.72302277584E+02  0.00000000000E+00 0. -1.
</event>
<event>
 7    1  0.6253338E-006  0.2929500E+03  0.7818608E-02  0.1227634E+00
          2   -1    0    0  502    0  0.00000000000E+00  0.00000000000E+00  0.36733808972E+03  0.36733808972E+03  0.00000000000E+00 0. -1.
          1   -1    0    0  501    0 -0.00000000000E+00 -0.00000000000E+00 -0.25064058295E+04  0.25064058295E+04  0.00000000000E+00 0. -1.
         25    2    1    2    0    0  0.27574486759E+03  0.83812608599E+02 -0.33706112990E+03  0.46075460795E+03  0.12499927236E+03 0.  0.
          2    1    1    2  501    0  0.17471634493E+02 -0.54867913394E+02 -0.20359517703E+04  0.20367659062E+04  0.00000000000E+00 0. -1.
          1    1    1    2  502    0 -0.29321650209E+03 -0.28944695205E+02  0.23394516035E+03  0.37622340508E+03  0.00000000000E+00 0. -1.
         22    1    3    3    0    0  0.13006535882E+03  0.94821037794E+02 -0.22492785158E+03  0.27658735544E+03  0.00000000000E+00 0. -1.
         22    1    3    3    0    0  0.14567950877E+03 -0.11008429195E+02 -0.11213327833E+03  0.18416725251E+03  0.00000000000E+00 0. -1.
</event>
<event>
 7    1  0.6253338E-006  0.6708952E+02  0.7818608E-02  0.1450949E+00
          2   -1    0    0  502    0  0.00000000000E+00  0.00000000000E+00  0.13620548228E+04  0.13620548228E+04  0.00000000000E+00 0. -1.
          1   -1    0    0  501    0 -0.00000000000E+00 -0.00000000000E+00 -0.16201090310E+03  0.16201090310E+03  0.00000000000E+00 0. -1.
         25    2    1    2    0    0 -0.33125461612E+02 -0.25223761484E+02 -0.54280960639E+02  0.14247985769E+03  0.12498220998E+03 0.  0.
          2    1    1    2  501    0  0.40353618291E+01 -0.35523218080E+02 -0.57675639729E+02  0.67857664166E+02  0.00000000000E+00 0. -1.
          1    1    1    2  502    0  0.29090099783E+02  0.60746979564E+02  0.13120005201E+04  0.13137282041E+04  0.00000000000E+00 0. -1.
         22    1    3    3    0    0 -0.35914264125E+02 -0.69406715424E+02 -0.59055258532E+02  0.97952284679E+02  0.00000000000E+00 0.  1.
         22    1    3    3    0    0  0.27888025122E+01  0.44182953940E+02  0.47742978933E+01  0.44527573016E+02  0.00000000000E+00 0.  1.
</event>
<event>
 7    1  0.6253338E-006  0.7794252E+02  0.7818608E-02  0.1444693E+00
          2   -1    0    0  502    0  0.00000000000E+00  0.00000000000E+00  0.28038469384E+02  0.28038469384E+02  0.00000000000E+00 0. -1.
          1   -1    0    0  501    0 -0.00000000000E+00 -0.00000000000E+00 -0.12083817911E+04  0.12083817911E+04  0.00000000000E+00 0. -1.
         25    2    1    2    0    0  0.20978731184E+02  0.55406693601E+02 -0.27132334827E+03  0.30455122965E+03  0.12500033325E+03 0.  0.
          2    1    1    2  501    0 -0.23916867291E+00  0.32228664023E+02 -0.73697625574E+03  0.73768065279E+03  0.00000000000E+00 0. -1.
          1    1    1    2  502    0 -0.20739562511E+02 -0.87635357624E+02 -0.17204371771E+03  0.19418837803E+03  0.00000000000E+00 0. -1.
         22    1    3    3    0    0  0.23459181218E+02  0.94950705787E+02 -0.17659931341E+03  0.20187443427E+03  0.00000000000E+00 0. -1.
         22    1    3    3    0    0 -0.24804500335E+01 -0.39544012186E+02 -0.94724034855E+02  0.10267679539E+03  0.00000000000E+00 0. -1.
</event>
<event>
 7    1  0.6253338E-006  0.1073717E+03  0.7818608E-02  0.1275978E+00
          2   -1    0    0  502    0  0.00000000000E+00  0.00000000000E+00  0.20355672860E+04  0.20355672860E+04  0.00000000000E+00 0. -1.
          1   -1    0    0  501    0 -0.00000000000E+00 -0.00000000000E+00 -0.48599621657E+03  0.48599621657E+03  0.00000000000E+00 0. -1.
         25    2    1    2    0    0 -0.10970644813E+03  0.15533916062E+03  0.13298064945E+04  0.13491391867E+04  0.12500189010E+03 0.  0.
          2    1    1    2  501    0  0.27722740710E+02 -0.10339786224E+03 -0.46685932114E+03  0.47897525406E+03  0.00000000000E+00 0. -1.
          1    1    1    2  502    0  0.81983707417E+02 -0.51941298381E+02  0.68662389602E+03  0.69344906183E+03  0.00000000000E+00 0. -1.
         22    1    3    3    0    0 -0.10617140443E+03  0.71441154839E+02  0.54353581838E+03  0.55839716295E+03  0.00000000000E+00 0. -1.
         22    1    3    3    0    0 -0.35350436964E+01  0.83898005782E+02  0.78627067616E+03  0.79074202373E+03  0.00000000000E+00 0. -1.
</event>
<event>
 7    1  0.6253338E-006  0.6656490E+02  0.7818608E-02  0.1489862E+00
          2   -1    0    0  502    0  0.00000000000E+00  0.00000000000E+00  0.50198105612E+03  0.50198105612E+03  0.00000000000E+00 0. -1.
          1   -1    0    0  501    0 -0.00000000000E+00 -0.00000000000E+00 -0.94247153781E+03  0.94247153781E+03  0.00000000000E+00 0. -1.
         25    2    1    2    0    0 -0.43401479485E+02 -0.67934093876E+01 -0.10020139232E+03  0.16611582312E+03  0.12499723531E+03 0.  0.
          2    1    1    2  501    0 -0.23166495064E+02  0.14388705407E+02 -0.80668860710E+03  0.80714944723E+03  0.00000000000E+00 0. -1.
          1    1    1    2  502    0  0.66567974549E+02 -0.75952960196E+01  0.46639951773E+03  0.47118732357E+03  0.00000000000E+00 0. -1.
         22    1    3    3    0    0 -0.18966070637E+02  0.37541618383E+02  0.11392883083E+02  0.43576171598E+02  0.00000000000E+00 0.  1.
         22    1    3    3    0    0 -0.24435408848E+02 -0.44335027771E+02 -0.11159427540E+03  0.12253965152E+03  0.00000000000E+00 0.  1.
</event>
<event>
 7    1  0.6253338E-006  0.5829112E+02  0.7818608E-02  0.1460763E+00
          2   -1    0    0  502    0  0.00000000000E+00  0.00000000000E+00  0.12612819751E+04  0.12612819751E+04  0.00000000000E+00 0. -1.
          1   -1    0    0  501    0 -0.00000000000E+00 -0.00000000000E+00 -0.18661039669E+02  0.18661039669E+02  0.00000000000E+00 0. -1.
         25    2    1    2    0    0 -0.11832605889E+00 -0.74849816563E+02  0.74521741192E+03  0.75932646154E+03  0.12500070046E+03 0.  0.
          2    1    1    2  501    0 -0.28831240672E+02  0.49772604358E+02  0.66129246798E+02  0.87644907812E+02  0.00000000000E+00 0. -1.
          1    1    1    2  502    0  0.28949566731E+02  0.25077212205E+02  0.43127427674E+03  0.43297164544E+03  0.00000000000E+00 0. -1.
         22    1    3    3    0    0  0.83819834368E+00  0.34803818408E+02  0.14065105922E+03  0.14489557899E+03  0.00000000000E+00 0. -1.
         22    1    3    3    0    0 -0.95652440257E+00 -0.10965363497E+03  0.60456635271E+03  0.61443088255E+03  0.00000000000E+00 0. -1.
</event>
<event>
 7    1  0.6253338E-006  0.1117441E+03  0.7818608E-02  0.1311257E+00
          2   -1    0    0  502    0  0.00000000000E+00  0.00000000000E+00  0.18963689366E+04  0.18963689366E+04  0.00000000000E+00 0. -1.
          1   -1    0    0  501    0 -0.00000000000E+00 -0.00000000000E+00 -0.62477392809E+03  0.62477392809E+03  0.00000000000E+00 0. -1.
         25    2    1    2    0    0 -0.10306304445E+03  0.19764086448E+02  0.26431393755E+03  0.31064721508E+03  0.12500889731E+03 0.  0.
          2    1    1    2  501    0  0.10174019720E+03  0.47362827470E+02 -0.59566482459E+03  0.60614428019E+03  0.00000000000E+00 0. -1.
          1    1    1    2  502    0  0.13228472482E+01 -0.67126913918E+02  0.16029458955E+04  0.16043513694E+04  0.00000000000E+00 0. -1.
         22    1    3    3    0    0  0.11965560406E+02  0.43547557058E+02  0.61959241081E+02  0.76671454381E+02  0.00000000000E+00 0.  1.
         22    1    3    3    0    0 -0.11502860485E+03 -0.23783470610E+02  0.20235469647E+03  0.23397576070E+03  0.00000000000E+00 0.  1.
</event>
<event>
 7    1  0.6253338E-006  0.1069561E+03  0.7818608E-02  0.1404695E+00
          2   -1    0    0  502    0  0.00000000000E+00  0.00000000000E+00  0.14712343479E+04  0.14712343479E+04  0.00000000000E+00 0. -1.
          1   -1    0    0  501    0 -0.00000000000E+00 -0.00000000000E+00 -0.67457263633E+03  0.67457263633E+03  0.00000000000E+00 0. -1.
         25    2    1    2    0    0 -0.16868764796E+02  0.78663649145E+02 -0.73817363474E+01  0.14883711824E+03  0.12500189123E+03 0.  0.
          2    1    1    2  501    0  0.38920345048E+02 -0.10168894716E+03 -0.59131054899E+03  0.60125169486E+03  0.00000000000E+00 0. -1.
          1    1    1    2  502    0 -0.22051580252E+02  0.23025298018E+02  0.13953539969E+04  0.13957181711E+04  0.00000000000E+00 0. -1.
         22    1    3    3    0    0 -0.63817735659E+02  0.21231753315E+02 -0.26409065051E+02  0.72255999407E+02  0.00000000000E+00 0.  1.
         22    1    3    3    0    0  0.46948970863E+02  0.57431895829E+02  0.19027328703E+02  0.76581118830E+02  0.00000000000E+00 0.  1.
</event>
<event>
 7    1  0.6253338E-006  0.1047990E+03  0.7818608E-02  0.1279422E+00
          2   -1    0    0  502    0  0.00000000000E+00  0.00000000000E+00  0.85572014292E+03  0.85572014292E+03  0.00000000000E+00 0. -1.
          1   -1    0    0  501    0 -0.00000000000E+00 -0.00000000000E+00 -0.50346960994E+03  0.50346960994E+03  0.00000000000E+00 0. -1.
         25    2    1    2    0    0 -0.13315950218E+02 -0.18297969362E+03  0.73179612968E+02  0.23375037368E+03  0.12500039454E+03 0.  0.
          2    1    1    2  501    0 -0.30652405535E+02  0.97395762156E+02 -0.41365134754E+03  0.42606682782E+03  0.00000000000E+00 0. -1.
          1    1    1    2  502    0  0.43968355753E+02  0.85583931466E+02  0.69272226755E+03  0.69937255136E+03  0.00000000000E+00 0. -1.
         22    1    3    3    0    0 -0.18466686720E+02 -0.18170350102E+03  0.23912410955E+02  0.18419821986E+03  0.00000000000E+00 0. -1.
         22    1    3    3    0    0  0.51507365025E+01 -0.12761925964E+01  0.49267202013E+02  0.49552153821E+02  0.00000000000E+00 0. -1.
</event>
<event>
 7    1  0.6253338E-006  0.1186771E+03  0.7818608E-02  0.1371829E+00
          2   -1    0    0  502    0  0.00000000000E+00  0.00000000000E+00  0.82419840740E+02  0.82419840740E+02  0.00000000000E+00 0. -1.
          1   -1    0    0  501    0 -0.00000000000E+00 -0.00000000000E+00 -0.18970716011E+04  0.18970716011E+04  0.00000000000E+00 0. -1.
         25    2    1    2    0    0  0.87097344638E+01  0.13381348557E+03 -0.24408707713E+03  0.30526140047E+03  0.12499645194E+03 0.  0.
          2    1    1    2  501    0  0.28645847499E+02 -0.24113301740E+02 -0.15571161430E+04  0.15575662807E+04  0.00000000000E+00 0. -1.
          1    1    1    2  502    0 -0.37355581962E+02 -0.10970018383E+03 -0.13448540280E+02  0.11666376075E+03  0.00000000000E+00 0. -1.
         22    1    3    3    0    0  0.32211228742E+02  0.73353530068E+02 -0.22315597764E+03  0.23710102064E+03  0.00000000000E+00 0. -1.
         22    1    3    3    0    0 -0.23501494278E+02  0.60459955506E+02 -0.20931099495E+02  0.68160379834E+02  0.00000000000E+00 0. -1.
</event>
<event>
 7    1  0.6253338E-006  0.1249292E+03  0.7818608E-02  0.1407152E+00
          2   -1    0    0  502    0  0.00000000000E+00  0.00000000000E+00  0.67330087793E+03  0.67330087793E+03  0.00000000000E+00 0. -1.
          1   -1    0    0  501    0 -0.00000000000E+00 -0.00000000000E+00 -0.58193072808E+02  0.58193072808E+02  0.00000000000E+00 0. -1.
         25    2    1    2    0    0 -0.71923978949E+02 -0.10577752484E+03  0.20383879216E+03  0.27117842522E+03  0.12500216640E+03 0.  0.
          2    1    1    2  501    0  0.46748681837E+02  0.11488972584E+03  0.13725797572E+03  0.18499956826E+03  0.00000000000E+00 0. -1.
          1    1    1    2  502    0  0.25175297112E+02 -0.91122010058E+01  0.27401103725E+03  0.27531595727E+03  0.00000000000E+00 0. -1.
         22    1    3    3    0    0 -0.85932600994E+02 -0.12702596677E+03  0.17285720353E+03  0.23108358003E+03  0.00000000000E+00 0.  1.
         22    1    3    3    0    0  0.14008622045E+02  0.21248441936E+02  0.30981588636E+02  0.40094845188E+02  0.00000000000E+00 0.  1.
</event>
<event>
 7    1  0.6253338E-006  0.6392660E+02  0.7818608E-02  0.1482775E+00
          2   -1    0    0  502    0  0.00000000000E+00  0.00000000000E+00  0.32955888789E+03  0.32955888789E+03  0.00000000000E+00 0. -1.
          1   -1    0    0  501    0 -0.00000000000E+00 -0.00000000000E+00 -0.14300058844E+03  0.14300058844E+03  0.00000000000E+00 0. -1.
         25    2    1    2    0    0 -0.88419514082E+02 -0.21519041552E+02  0.66024672459E+02  0.16812498693E+03  0.12500269692E+03 0.  0.
          2    1    1    2  501    0  0.58754959165E+02  0.18274652596E+02 -0.80429946759E+02  0.10126739105E+03  0.00000000000E+00 0. -1.
          1    1    1    2  502    0  0.29664554917E+02  0.32443889554E+01  0.20096357375E+03  0.20316709835E+03  0.00000000000E+00 0. -1.
         22    1    3    3    0    0 -0.59584117600E+02 -0.53563598394E+02 -0.99864206180E+01  0.80740663484E+02  0.00000000000E+00 0.  1.
         22    1    3    3    0    0 -0.28835396482E+02  0.32044556843E+02  0.76011093077E+02  0.87384323447E+02  0.00000000000E+00 0.  1.
</event>
<event>
 7    1  0.6253338E-006  0.1576597E+03  0.7818608E-02  0.1232496E+00
          2   -1    0    0  502    0  0.00000000000E+00  0.00000000000E+00  0.73849151699E+03  0.73849151699E+03  0.00000000000E+00 0. -1.
          1   -1    0    0  501    0 -0.00000000000E+00 -0.00000000000E+00 -0.70047370056E+03  0.70047370056E+03  0.00000000000E+00 0. -1.
         25    2    1    2    0    0  0.31008568240E+02 -0.19184414551E+03  0.11034802128E+03  0.25606157112E+03  0.12500053974E+03 0.  0.
          2    1    1    2  501    0  0.59537935347E+02  0.14541288215E+03 -0.61296079053E+03  0.63278005876E+03  0.00000000000E+00 0. -1.
          1    1    1    2  502    0 -0.90546503587E+02  0.46431263360E+02  0.54063058568E+03  0.55012358766E+03  0.00000000000E+00 0. -1.
         22    1    3    3    0    0  0.45352252196E+01 -0.99358049093E+02 -0.12264029413E+02  0.10021475243E+03  0.00000000000E+00 0. -1.
         22    1    3    3    0    0  0.26473343021E+02 -0.92486096415E+02  0.12261205069E+03  0.15584681869E+03  0.00000000000E+00 0. -1.
</event>
<event>
 7    1  0.6253338E-006  0.4601705E+02  0.7818608E-02  0.1529847E+00
          2   -1    0    0  502    0  0.00000000000E+00  0.00000000000E+00  0.42675604797E+02  0.42675604797E+02  0.00000000000E+00 0. -1.
          1   -1    0    0  501    0 -0.00000000000E+00 -0.00000000000E+00 -0.18381202242E+04  0.18381202242E+04  0.00000000000E+00 0. -1.
         25    2    1    2    0    0 -0.40290499780E+02  0.36557380387E+02 -0.50538947157E+03  0.52345376364E+03  0.12500223306E+03 0.  0.
          2    1    1    2  501    0  0.45503727340E+02 -0.69319203558E+01 -0.13164912619E+04  0.13172956705E+04  0.00000000000E+00 0. -1.
          1    1    1    2  502    0 -0.52132275601E+01 -0.29625460031E+02  0.26436114023E+02  0.40046394947E+02  0.00000000000E+00 0. -1.
         22    1    3    3    0    0 -0.34973814350E+02  0.42819992758E+02 -0.51069200980E+03  0.51367601496E+03  0.00000000000E+00 0.  1.
         22    1    3    3    0    0 -0.53166854299E+01 -0.62626123710E+01  0.53025382321E+01  0.97777486864E+01  0.00000000000E+00 0.  1.
</event>
<event>
 7    1  0.6253338E-006  0.5065825E+02  0.7818608E-02  0.1544512E+00
          2   -1    0    0  502    0  0.00000000000E+00  0.00000000000E+00  0.93481252713E+02  0.93481252713E+02  0.00000000000E+00 0. -1.
          1   -1    0    0  501    0 -0.00000000000E+00 -0.00000000000E+00 -0.13129834818E+04  0.13129834818E+04  0.00000000000E+00 0. -1.
         25    2    1    2    0    0  0.74640141586E+02 -0.59861545580E-01 -0.78129755070E+03  0.79474668818E+03  0.12500112527E+03 0.  0.
          2    1    1    2  501    0 -0.24404639953E+02  0.45658848582E+01 -0.51730779751E+03  0.51790326425E+03  0.00000000000E+00 0. -1.
          1    1    1    2  502    0 -0.50235501633E+02 -0.45060233126E+01  0.79103119159E+02  0.93814782050E+02  0.00000000000E+00 0. -1.
         22    1    3    3    0    0  0.54720975011E+02  0.32205922871E+02 -0.15777526963E+03  0.17007246185E+03  0.00000000000E+00 0. -1.
         22    1    3    3    0    0  0.19919166575E+02 -0.32265784416E+02 -0.62352228108E+03  0.62467422633E+03  0.00000000000E+00 0. -1.
</event>
<event>
 7    1  0.6253338E-006  0.5912086E+02  0.7818608E-02  0.1472231E+00
          2   -1    0    0  502    0  0.00000000000E+00  0.00000000000E+00  0.40563663760E+03  0.40563663760E+03  0.00000000000E+00 0. -1.
          1   -1    0    0  501    0 -0.00000000000E+00 -0.00000000000E+00 -0.35218168658E+03  0.35218168658E+03  0.00000000000E+00 0. -1.
         25    2    1    2    0    0  0.49010239597E+02  0.78133657220E+02 -0.20287179240E+03  0.25551471899E+03  0.12499574190E+03 0.  0.
          2    1    1    2  501    0 -0.11587231346E+02 -0.32783675404E+02 -0.11819045196E+03  0.12319909187E+03  0.00000000000E+00 0. -1.
          1    1    1    2  502    0 -0.37423008251E+02 -0.45349981816E+02  0.37451719537E+03  0.37910451333E+03  0.00000000000E+00 0. -1.
         22    1    3    3    0    0  0.58523106316E+02  0.20096349408E+02 -0.18340973249E+03  0.19356638966E+03  0.00000000000E+00 0. -1.
         22    1    3    3    0    0 -0.95128667189E+01  0.58037307813E+02 -0.19462059908E+02  0.61948329334E+02  0.00000000000E+00 0. -1.
</event>
<event>
 7    1  0.6805984E-006  0.1153199E+03  0.7818608E-02  0.1271029E+00
          2   -1    0    0  502    0  0.00000000000E+00  0.00000000000E+00  0.17005561535E+04  0.17005561535E+04  0.00000000000E+00 0. -1.
          1   -1    0    0  501    0 -0.00000000000E+00 -0.00000000000E+00 -0.49114051780E+03  0.49114051780E+03  0.00000000000E+00 0. -1.
         25    2    1    2    0    0 -0.20570258681E+02  0.81109713502E+01 -0.89958654654E+02  0.15558418566E+03  0.12499982352E+03 0.  0.
          2    1    1    2  501    0 -0.21778244106E+01 -0.12116497289E+03 -0.35634227417E+03  0.37638478973E+03  0.00000000000E+00 0. -1.
          1    1    1    2  502    0  0.22748083092E+02  0.11305400154E+03  0.16557165645E+04  0.16597276959E+04  0.00000000000E+00 0. -1.
         22    1    3    3    0    0 -0.33445103887E+02 -0.46247799962E+02 -0.80877967310E+02  0.98988279971E+02  0.00000000000E+00 0. -1.
         22    1    3    3    0    0  0.12874845206E+02  0.54358771313E+02 -0.90806873438E+01  0.56595905685E+02  0.00000000000E+00 0. -1.
</event>
<event>
 7    1  0.6253338E-006  0.6406607E+02  0.7818608E-02  0.1503481E+00
          2   -1    0    0  502    0  0.00000000000E+00  0.00000000000E+00  0.65936029794E+02  0.65936029794E+02  0.00000000000E+00 0. -1.
          1   -1    0    0  501    0 -0.00000000000E+00 -0.00000000000E+00 -0.17877164902E+04  0.17877164902E+04  0.00000000000E+00 0. -1.
         25    2    1    2    0    0  0.51863918159E+02  0.69726616958E+02 -0.41453841103E+03  0.44160735363E+03  0.12499317361E+03 0.  0.
          2    1    1    2  501    0 -0.77979574759E+01 -0.24585542477E+02 -0.13404887739E+04  0.13407368906E+04  0.00000000000E+00 0. -1.
          1    1    1    2  502    0 -0.44065960683E+02 -0.45141074481E+02  0.33246724497E+02  0.71308275719E+02  0.00000000000E+00 0. -1.
         22    1    3    3    0    0 -0.16952814526E+02  0.31711724298E+02 -0.23995390638E+02  0.43229736874E+02  0.00000000000E+00 0.  1.
         22    1    3    3    0    0  0.68816732685E+02  0.38014892660E+02 -0.39054302039E+03  0.39837761676E+03  0.00000000000E+00 0.  1.
</event>
<event>
 7    1  0.6253338E-006  0.3784238E+02  0.7818608E-02  0.1533671E+00
          2   -1    0    0  502    0  0.00000000000E+00  0.00000000000E+00  0.24112850780E+04  0.24112850780E+04  0.00000000000E+00 0. -1.
          1   -1    0    0  501    0 -0.00000000000E+00 -0.00000000000E+00 -0.56346506876E+03  0.56346506876E+03  0.00000000000E+00 0. -1.
         25    2    1    2    0    0 -0.51895412731E+02 -0.32355074605E+02 -0.36271130364E+03  0.38849083859E+03  0.12500262863E+03 0.  0.
          2    1    1    2  501    0  0.14060874595E+02  0.32781231173E+02 -0.18602018072E+03  0.18940914694E+03  0.00000000000E+00 0. -1.
          1    1    1    2  502    0  0.37834538136E+02 -0.42615656731E+00  0.23965514936E+04  0.23968501613E+04  0.00000000000E+00 0. -1.
         22    1    3    3    0    0 -0.82432759604E+02 -0.50184166469E+02 -0.20112237837E+03  0.22307806145E+03  0.00000000000E+00 0.  1.
         22    1    3    3    0    0  0.30537346872E+02  0.17829091863E+02 -0.16158892528E+03  0.16541277714E+03  0.00000000000E+00 0.  1.
</event>
<event>
 7    1  0.6253338E-006  0.7823587E+02  0.7818608E-02  0.1485974E+00
          2   -1    0    0  502    0  0.00000000000E+00  0.00000000000E+00  0.98358312301E+03  0.98358312301E+03  0.00000000000E+00 0. -1.
          1   -1    0    0  501    0 -0.00000000000E+00 -0.00000000000E+00 -0.16746385072E+04  0.16746385072E+04  0.00000000000E+00 0. -1.
         25    2    1    2    0    0 -0.13903316293E+02  0.56504049582E+02 -0.43667972881E+03  0.45793017050E+03  0.12499938269E+03 0.  0.
          2    1    1    2  501    0  0.10493776600E+02 -0.80100914080E+02 -0.12258577796E+04  0.12285168178E+04  0.00000000000E+00 0. -1.
          1    1    1    2  502    0  0.34095396929E+01  0.23596864498E+02  0.97148212423E+03  0.97177464191E+03  0.00000000000E+00 0. -1.
         22    1    3    3    0    0 -0.57001953639E+02  0.28477453594E+02 -0.36010173156E+03  0.36569583694E+03  0.00000000000E+00 0. -1.
         22    1    3    3    0    0  0.43098637347E+02  0.28026595988E+02 -0.76577997252E+02  0.92234333558E+02  0.00000000000E+00 0. -1.
</event>
<event>
 7    1  0.6253338E-006  0.2266524E+03  0.7818608E-02  0.1365672E+00
          2   -1    0    0  502    0  0.00000000000E+00  0.00000000000E+00  0.29348988039E+04  0.29348988039E+04  0.00000000000E+00 0. -1.
          1   -1    0    0  501    0 -0.00000000000E+00 -0.00000000000E+00 -0.12087161845E+04  0.12087161845E+04  0.00000000000E+00 0. -1.
         25    2    1    2    0    0  0.22643969269E+03  0.66795636618E+02  0.47402119567E+03  0.54411187425E+03  0.12500018503E+03 0.  0.
          2    1    1    2  501    0 -0.60799563538E+01 -0.19716977206E+02 -0.11683468392E+04  0.11685290162E+04  0.00000000000E+00 0. -1.
          1    1    1    2  502    0 -0.22035973634E+03 -0.47078659411E+02  0.24205082630E+04  0.24309740979E+04  0.00000000000E+00 0. -1.
         22    1    3    3    0    0  0.84522685132E+02  0.82087853693E+02  0.27516941108E+03  0.29933376826E+03  0.00000000000E+00 0. -1.
         22    1    3    3    0    0  0.14191700756E+03 -0.15292217075E+02  0.19885178459E+03  0.24477810599E+03  0.00000000000E+00 0. -1.
</event>
<event>
 7    1  0.6253338E-006  0.7589641E+02  0.7818608E-02  0.1358603E+00
          2   -1    0    0  502    0  0.00000000000E+00  0.00000000000E+00  0.14621804302E+03  0.14621804302E+03  0.00000000000E+00 0. -1.
          1   -1    0    0  501    0 -0.00000000000E+00 -0.00000000000E+00 -0.34925466275E+04  0.34925466275E+04  0.00000000000E+00 0. -1.
         25    2    1    2    0    0  0.56509716039E+02 -0.26950559034E+02 -0.54027086601E+03  0.55806217177E+03  0.12498439209E+03 0.  0.
          2    1    1    2  501    0 -0.43684384144E+02 -0.48638093180E+02 -0.29322859564E+04  0.29330146470E+04  0.00000000000E+00 0. -1.
          1    1    1    2  502    0 -0.12825331895E+02  0.75588652214E+02  0.12622823796E+03  0.14768785170E+03  0.00000000000E+00 0. -1.
         22    1    3    3    0    0  0.71366346241E+02 -0.32810980799E+02 -0.53573117094E+03  0.54145877346E+03  0.00000000000E+00 0.  1.
         22    1    3    3    0    0 -0.14856630203E+02  0.58604217656E+01 -0.45396950677E+01  0.16603398314E+02  0.00000000000E+00 0.  1.
</event>
<event>
 7    1  0.6253338E-006  0.1340954E+03  0.7818608E-02  0.1310269E+00
          2   -1    0    0  502    0  0.00000000000E+00  0.00000000000E+00  0.20614260896E+04  0.20614260896E+04  0.00000000000E+00 0. -1.
          1   -1    0    0  501    0 -0.00000000000E+00 -0.00000000000E+00 -0.27583495444E+03  0.27583495444E+03  0.00000000000E+00 0. -1.
         25    2    1    2    0    0 -0.25778395328E+02  0.13537827270E+03  0.12350233896E+04  0.12489598745E+04  0.12500477180E+03 0.  0.
          2    1    1    2  501    0  0.76378635371E+02 -0.11034835799E+03 -0.25106537295E+03  0.28468276651E+03  0.00000000000E+00 0. -1.
          1    1    1    2  502    0 -0.50600240043E+02 -0.25029914715E+02  0.80163311854E+03  0.80361840301E+03  0.00000000000E+00 0. -1.
         22    1    3    3    0    0 -0.37477967111E+02  0.52951591700E+02  0.94499463175E+03  0.94721873034E+03  0.00000000000E+00 0.  1.
         22    1    3    3    0    0  0.11699571783E+02  0.82426681001E+02  0.29002875783E+03  0.30174114418E+03  0.00000000000E+00 0.  1.
</event>
<event>
 7    1  0.6253338E-006  0.9773808E+02  0.7818608E-02  0.1450065E+00
          2   -1    0    0  502    0  0.00000000000E+00  0.00000000000E+00  0.65229607285E+03  0.65229607285E+03  0.00000000000E+00 0. -1.
          1   -1    0    0  501    0 -0.00000000000E+00 -0.00000000000E+00 -0.81235404894E+03  0.81235404894E+03  0.00000000000E+00 0. -1.
         25    2    1    2    0    0 -0.77185170686E+02  0.23315831255E+02  0.63735583055E+02  0.16183218362E+03  0.12500501009E+03 0.  0.
          2    1    1    2  501    0  0.86788168778E+02 -0.46073666884E+02 -0.75985795440E+03  0.76618475571E+03  0.00000000000E+00 0. -1.
          1    1    1    2  502    0 -0.96029980927E+01  0.22757835628E+02  0.53606439525E+03  0.53663318245E+03  0.00000000000E+00 0. -1.
         22    1    3    3    0    0 -0.19820473802E+02 -0.50830094641E+02  0.29558521161E+02  0.62050430105E+02  0.00000000000E+00 0. -1.
         22    1    3    3    0    0 -0.57364696883E+02  0.74145925896E+02  0.34177061893E+02  0.99781753518E+02  0.00000000000E+00 0. -1.
</event>
<event>
 7    1  0.6253338E-006  0.5957421E+02  0.7818608E-02  0.1444797E+00
          2   -1    0    0  502    0  0.00000000000E+00  0.00000000000E+00  0.29997748306E+03  0.29997748306E+03  0.00000000000E+00 0. -1.
          1   -1    0    0  501    0 -0.00000000000E+00 -0.00000000000E+00 -0.17200599266E+04  0.17200599266E+04  0.00000000000E+00 0. -1.
         25    2    1    2    0    0 -0.38646500223E+02 -0.23531588596E+02 -0.13198297898E+03  0.18732921318E+03  0.12500175891E+03 0.  0.
          2    1    1    2  501    0  0.23825424757E+02 -0.34751279291E+02 -0.15567949883E+04  0.15573650625E+04  0.00000000000E+00 0. -1.
          1    1    1    2  502    0  0.14821075466E+02  0.58282867888E+02  0.26869552373E+03  0.27534313400E+03  0.00000000000E+00 0. -1.
         22    1    3    3    0    0  0.32073743847E+02  0.23390657345E+02 -0.14213480109E+02  0.42164806560E+02  0.00000000000E+00 0. -1.
         22    1    3    3    0    0 -0.70720244070E+02 -0.46922245941E+02 -0.11776949887E+03  0.14516440662E+03  0.00000000000E+00 0. -1.
</event>
<event>
 7    1  0.6253338E-006  0.1623471E+03  0.7818608E-02  0.1198639E+00
          2   -1    0    0  502    0  0.00000000000E+00  0.00000000000E+00  0.24454654743E+04  0.24454654743E+04  0.00000000000E+00 0. -1.
          1   -1    0    0  501    0 -0.00000000000E+00 -0.00000000000E+00 -0.11039362685E+04  0.11039362685E+04  0.00000000000E+00 0. -1.
         25    2    1    2    0    0 -0.34492807074E+02 -0.10834852118E+03 -0.85897867858E+01  0.16919733182E+03  0.12499918751E+03 0.  0.
          2    1    1    2  501    0 -0.12541853490E+03  0.65262580230E+02 -0.10072001466E+04  0.10170747999E+04  0.00000000000E+00 0. -1.
          1    1    1    2  502    0  0.15991134197E+03  0.43085940950E+02  0.23573191391E+04  0.23631296111E+04  0.00000000000E+00 0. -1.
         22    1    3    3    0    0  0.39754052271E+02 -0.17897657595E+02  0.21149614235E+02  0.48456341191E+02  0.00000000000E+00 0. -1.
         22    1    3    3    0    0 -0.74246859345E+02 -0.90450863586E+02 -0.29739401021E+02  0.12074099063E+03  0.00000000000E+00 0. -1.
</event>
<event>
 7    1  0.6253338E-006  0.1669296E+03  0.7818608E-02  0.1270223E+00
          2   -1    0    0  502    0  0.00000000000E+00  0.00000000000E+00  0.14547836703E+04  0.14547836703E+04  0.00000000000E+00 0. -1.
          1   -1    0    0  501    0 -0.00000000000E+00 -0.00000000000E+00 -0.37501685443E+03  0.37501685443E+03  0.00000000000E+00 0. -1.
         25    2    1    2    0    0  0.16055157563E+03  0.21650582398E+02  0.10049304004E+03  0.22796755683E+03  0.12499919885E+03 0.  0.
          2    1    1    2  501    0 -0.15642071820E+02  0.64098754273E+02 -0.30221295796E+03  0.30933153196E+03  0.00000000000E+00 0. -1.
          1    1    1    2  502    0 -0.14490950381E+03 -0.85749336671E+02  0.12814867338E+04  0.12925014360E+04  0.00000000000E+00 0. -1.
         22    1    3    3    0    0  0.98346796726E+01  0.18746822718E+02  0.71359228555E+02  0.74433216955E+02  0.00000000000E+00 0.  1.
         22    1    3    3    0    0  0.15071689596E+03  0.29037596796E+01  0.29133811480E+02  0.15353433987E+03  0.00000000000E+00 0.  1.
</event>
<event>
 7    1  0.6253338E-006  0.8777025E+02  0.7818608E-02  0.1369470E+00
          2   -1    0    0  502    0  0.00000000000E+00  0.00000000000E+00  0.21976049772E+04  0.21976049772E+04  0.00000000000E+00 0. -1.
          1   -1    0    0  501    0 -0.00000000000E+00 -0.00000000000E+00 -0.34899590131E+03  0.34899590131E+03  0.00000000000E+00 0. -1.
         25    2    1    2    0    0  0.11200700933E+03 -0.54844916185E+02 -0.14468202934E+03  0.22827432341E+03  0.12499096824E+03 0.  0.
          2    1    1    2  501    0 -0.50994516898E+02 -0.80536270615E+01 -0.15750289752E+03  0.16574819574E+03  0.00000000000E+00 0. -1.
          1    1    1    2  502    0 -0.61012492435E+02  0.62898543246E+02  0.21507940028E+04  0.21525783594E+04  0.00000000000E+00 0. -1.
         22    1    3    3    0    0  0.13342267246E+02  0.37154175757E+02 -0.48803636246E+02  0.62771361163E+02  0.00000000000E+00 0.  1.
         22    1    3    3    0    0  0.98664742088E+02 -0.91999091942E+02 -0.95878393091E+02  0.16550296224E+03  0.00000000000E+00 0.  1.
</event>
<event>
 7    1  0.6253338E-006  0.9580439E+02  0.7818608E-02  0.1302412E+00
          2   -1    0    0  502    0  0.00000000000E+00  0.00000000000E+00  0.43052573445E+03  0.43052573445E+03  0.00000000000E+00 0. -1.
          1   -1    0    0  501    0 -0.00000000000E+00 -0.00000000000E+00 -0.17681917814E+03  0.17681917814E+03  0.00000000000E+00 0. -1.
         25    2    1    2    0    0  0.50270756056E+02 -0.81681772056E+01  0.96222768654E+02  0.16576389801E+03  0.12499992257E+03 0.  0.
          2    1    1    2  501    0  0.19896391904E+02 -0.82524560556E+02 -0.11674407017E+03  0.14434454415E+03  0.00000000000E+00 0. -1.
          1    1    1    2  502    0 -0.70167147960E+02  0.90692737761E+02  0.27422785784E+03  0.29723647042E+03  0.00000000000E+00 0. -1.
         22    1    3    3    0    0 -0.37176184878E+01  0.37310684104E+01 -0.28687112694E+02  0.29166624649E+02  0.00000000000E+00 0. -1.
         22    1    3    3    0    0  0.53988374544E+02 -0.11899245616E+02  0.12490988135E+03  0.13659727336E+03  0.00000000000E+00 0. -1.
</event>
<event>
 7    1  0.6253338E-006  0.6805274E+02  0.7818608E-02  0.1400649E+00
          2   -1    0    0  502    0  0.00000000000E+00  0.00000000000E+00  0.17972652407E+03  0.17972652407E+03  0.00000000000E+00 0. -1.
          1   -1    0    0  501    0 -0.00000000000E+00 -0.00000000000E+00 -0.55542101901E+03  0.55542101901E+03  0.00000000000E+00 0. -1.
         25    2    1    2    0    0 -0.16787116033E+02 -0.77757974361E+01 -0.84759914770E+01  0.12664401795E+03  0.12499837823E+03 0.  0.
          2    1    1    2  501    0  0.65181177472E+02  0.26056810252E+02 -0.47964060988E+03  0.48475009841E+03  0.00000000000E+00 0. -1.
          1    1    1    2  502    0 -0.48394061439E+02 -0.18281012815E+02  0.11242210642E+03  0.12375342672E+03  0.00000000000E+00 0. -1.
         22    1    3    3    0    0 -0.17760390039E+02 -0.28892682148E+02  0.52279110617E+02  0.62316321642E+02  0.00000000000E+00 0.  1.
         22    1    3    3    0    0  0.97327400622E+00  0.21116884712E+02 -0.60755102094E+02  0.64327696311E+02  0.00000000000E+00 0.  1.
</event>
<event>
 7    1  0.6253338E-006  0.4431102E+02  0.7818608E-02  0.1504561E+00
          2   -1    0    0  502    0  0.00000000000E+00  0.00000000000E+00  0.84890663796E+03  0.84890663796E+03  0.00000000000E+00 0. -1.
          1   -1    0    0  501    0 -0.00000000000E+00 -0.00000000000E+00 -0.44255768518E+03  0.44255768518E+03  0.00000000000E+00 0. -1.
         25    2    1    2    0    0 -0.49530902016E+02  0.30539073006E+02  0.26694534221E+03  0.30045064684E+03  0.12499932091E+03 0.  0.
          2    1    1    2  501    0  0.14310703210E+02 -0.41933698060E+02 -0.42404338396E+03  0.42635199394E+03  0.00000000000E+00 0. -1.
          1    1    1    2  502    0  0.35220198806E+02  0.11394625053E+02  0.56344699452E+03  0.56466168236E+03  0.00000000000E+00 0. -1.
         22    1    3    3    0    0  0.11753500135E+02 -0.19036970960E+02  0.18644868380E+03  0.18778621547E+03  0.00000000000E+00 0. -1.
         22    1    3    3    0    0 -0.61284402152E+02  0.49576043966E+02  0.80496658408E+02  0.11266443138E+03  0.00000000000E+00 0. -1.
</event>
<event>
 7    1  0.6253338E-006  0.8327820E+02  0.7818608E-02  0.1325289E+00
          2   -1    0    0  502    0  0.00000000000E+00  0.00000000000E+00  0.18565403000E+04  0.18565403000E+04  0.00000000000E+00 0. -1.
          1   -1    0    0  501    0 -0.00000000000E+00 -0.00000000000E+00 -0.57520055325E+03  0.57520055325E+03  0.00000000000E+00 0. -1.
         25    2    1    2    0    0  0.11075303162E+03  0.10468621173E+03  0.46657173748E+03  0.50649750031E+03  0.12500037865E+03 0.  0.
          2    1    1    2  501    0 -0.39689836946E+02 -0.68824377457E+02 -0.55123105050E+03  0.55692705907E+03  0.00000000000E+00 0. -1.
          1    1    1    2  502    0 -0.71063194670E+02 -0.35861834271E+02  0.13659990598E+04  0.13683162939E+04  0.00000000000E+00 0. -1.
         22    1    3    3    0    0  0.58453043959E+02  0.32349887169E+02  0.58573679697E+02  0.88849026450E+02  0.00000000000E+00 0. -1.
         22    1    3    3    0    0  0.52299987657E+02  0.72336324559E+02  0.40799805778E+03  0.41764847386E+03  0.00000000000E+00 0. -1.
</event>
<event>
 7    1  0.6253338E-006  0.2535306E+03  0.7818608E-02  0.1328890E+00
          2   -1    0    0  502    0  0.00000000000E+00  0.00000000000E+00  0.98417883031E+03  0.98417883031E+03  0.00000000000E+00 0. -1.
          1   -1    0    0  501    0 -0.00000000000E+00 -0.00000000000E+00 -0.62213938231E+03  0.62213938231E+03  0.00000000000E+00 0. -1.
         25    2    1    2    0    0 -0.17826607199E+03  0.20323036195E+03  0.50743210115E+03  0.58838382912E+03  0.12500728238E+03 0.  0.
          2    1    1    2  501    0  0.17941859923E+03 -0.17797717736E+03 -0.55380414587E+03  0.60874127624E+03  0.00000000000E+00 0. -1.
          1    1    1    2  502    0 -0.11525272398E+01 -0.25253184585E+02  0.40841149272E+03  0.40919310727E+03  0.00000000000E+00 0. -1.
         22    1    3    3    0    0 -0.14224449694E+03  0.68609011661E+02  0.28743174659E+03  0.32795990966E+03  0.00000000000E+00 0. -1.
         22    1    3    3    0    0 -0.36021575046E+02  0.13462135029E+03  0.22000035456E+03  0.26042391946E+03  0.00000000000E+00 0. -1.
</event>
<event>
 7    1  0.6253338E-006  0.7815117E+02  0.7818608E-02  0.1370595E+00
          2   -1    0    0  502    0  0.00000000000E+00  0.00000000000E+00  0.20529936253E+04  0.20529936253E+04  0.00000000000E+00 0. -1.
          1   -1    0    0  501    0 -0.00000000000E+00 -0.00000000000E+00 -0.13311037466E+03  0.13311037466E+03  0.00000000000E+00 0. -1.
         25    2    1    2    0    0  0.66960106868E+02  0.24444657786E+02  0.15069184894E+04  0.15137732095E+04  0.12499919521E+03 0.  0.
          2    1    1    2  501    0 -0.13965140150E+02  0.55719918258E+02 -0.11879661096E+03  0.13195593660E+03  0.00000000000E+00 0. -1.
          1    1    1    2  502    0 -0.52994966717E+02 -0.80164576044E+02  0.53176137223E+03  0.54037485392E+03  0.00000000000E+00 0. -1.
         22    1    3    3    0    0 -0.23476384183E+02  0.40977006870E+02  0.71009199721E+03  0.71166066367E+03  0.00000000000E+00 0.  1.
         22    1    3    3    0    0  0.90436491050E+02 -0.16532349084E+02  0.79682649218E+03  0.80211254579E+03  0.00000000000E+00 0.  1.
</event>
<event>
 7    1  0.6253338E-006  0.6232490E+02  0.7818608E-02  0.1458801E+00
          2   -1    0    0  502    0  0.00000000000E+00  0.00000000000E+00  0.20176158741E+04  0.20176158741E+04  0.00000000000E+00 0. -1.
          1   -1    0    0  501    0 -0.00000000000E+00 -0.00000000000E+00 -0.76139923353E+02  0.76139923353E+02  0.00000000000E+00 0. -1.
         25    2    1    2    0    0  0.55425512567E+02 -0.10328779128E+02  0.96784195033E+02  0.16785429085E+03  0.12501684457E+03 0.  0.
          2    1    1    2  501    0 -0.59835814325E+02 -0.25738801146E+02 -0.14190051962E+02  0.66664594314E+02  0.00000000000E+00 0. -1.
          1    1    1    2  502    0  0.44103017584E+01  0.36067580273E+02  0.18588818077E+04  0.18592369123E+04  0.00000000000E+00 0. -1.
         22    1    3    3    0    0  0.10629681794E+01  0.30263700580E+02  0.95296591485E+02  0.99992308818E+02  0.00000000000E+00 0.  1.
         22    1    3    3    0    0  0.54362544387E+02 -0.40592479708E+02  0.14876035482E+01  0.67861982033E+02  0.00000000000E+00 0.  1.
</event>
<event>
 7    1  0.6253338E-006  0.1003849E+03  0.7818608E-02  0.1342480E+00
          2   -1    0    0  502    0  0.00000000000E+00  0.00000000000E+00  0.36600544104E+03  0.36600544104E+03  0.00000000000E+00 0. -1.
          1   -1    0    0  501    0 -0.00000000000E+00 -0.00000000000E+00 -0.31907481493E+04  0.31907481493E+04  0.00000000000E+00 0. -1.
         25    2    1    2    0    0 -0.62975981332E+02  0.13966463386E+03 -0.15756004495E+03  0.25283125081E+03  0.12500515767E+03 0.  0.
          2    1    1    2  501    0  0.27125138129E+02 -0.95724241365E+02 -0.29821909025E+04  0.29838501106E+04  0.00000000000E+00 0. -1.
          1    1    1    2  502    0  0.35850843203E+02 -0.43940392497E+02  0.31500823913E+03  0.32007222899E+03  0.00000000000E+00 0. -1.
         22    1    3    3    0    0 -0.26915042505E+02  0.84699870217E+02 -0.16425085048E+03  0.18675339196E+03  0.00000000000E+00 0. -1.
         22    1    3    3    0    0 -0.36060938827E+02  0.54964763646E+02  0.66908055213E+01  0.66077858850E+02  0.00000000000E+00 0. -1.
</event>
<event>
 7    1  0.6253338E-006  0.9157738E+02  0.7818608E-02  0.1430223E+00
          2   -1    0    0  502    0  0.00000000000E+00  0.00000000000E+00  0.48513241256E+03  0.48513241256E+03  0.00000000000E+00 0. -1.
          1   -1    0    0  501    0 -0.00000000000E+00 -0.00000000000E+00 -0.47177079799E+03  0.47177079799E+03  0.00000000000E+00 0. -1.
         25    2    1    2    0    0  0.40852502279E+02  0.49670438790E+02 -0.18995734251E+03  0.23632271299E+03  0.12501421227E+03 0.  0.
          2    1    1    2  501    0  0.53418769333E+01  0.30105346393E+02 -0.25310249101E+03  0.25494261803E+03  0.00000000000E+00 0. -1.
          1    1    1    2  502    0 -0.46194379212E+02 -0.79775785183E+02  0.45642144810E+03  0.46563787953E+03  0.00000000000E+00 0. -1.
         22    1    3    3    0    0  0.79968378361E+02  0.35242714203E+01 -0.10516521965E+03  0.13216310170E+03  0.00000000000E+00 0.  1.
         22    1    3    3    0    0 -0.39115876083E+02  0.46146167370E+02 -0.84792122857E+02  0.10415961129E+03  0.00000000000E+00 0.  1.
</event>
<event>
 7    1  0.6253338E-006  0.2907281E+02  0.7818608E-02  0.1610503E+00
          2   -1    0    0  502    0  0.00000000000E+00  0.00000000000E+00  0.13599416798E+04  0.13599416798E+04  0.00000000000E+00 0. -1.
          1   -1    0    0  501    0 -0.00000000000E+00 -0.00000000000E+00 -0.78429292940E+03  0.78429292940E+03  0.00000000000E+00 0. -1.
         25    2    1    2    0    0 -0.36088100384E+01  0.53809619202E+00  0.72975978041E+03  0.74039695341E+03  0.12499999382E+03 0.  0.
          2    1    1    2  501    0  0.87264980286E+01  0.27743267103E+02 -0.77837214145E+03  0.77891529143E+03  0.00000000000E+00 0. -1.
          1    1    1    2  502    0 -0.51176879902E+01 -0.28281363295E+02  0.62426111142E+03  0.62492236436E+03  0.00000000000E+00 0. -1.
         22    1    3    3    0    0  0.26330893985E+02  0.40453107295E+02  0.13182159670E+03  0.14038056569E+03  0.00000000000E+00 0.  1.
         22    1    3    3    0    0 -0.29939704023E+02 -0.39915011103E+02  0.59793818372E+03  0.60001638772E+03  0.00000000000E+00 0.  1.
</event>
<event>
 7    1  0.6253338E-006  0.3381676E+02  0.7818608E-02  0.1602813E+00
          2   -1    0    0  502    0  0.00000000000E+00  0.00000000000E+00  0.92719326843E+03  0.92719326843E+03  0.00000000000E+00 0. -1.
          1   -1    0    0  501    0 -0.00000000000E+00 -0.00000000000E+00 -0.32555617046E+03  0.32555617046E+03  0.00000000000E+00 0. -1.
         25    2    1    2    0    0 -0.14379727258E+02 -0.11838715762E+02 -0.14743329006E+03  0.19418503474E+03  0.12499728377E+03 0.  0.
          2    1    1    2  501    0  0.13593574819E+02 -0.22009136054E+02 -0.15334623578E+03  0.15551287848E+03  0.00000000000E+00 0. -1.
          1    1    1    2  502    0  0.78615243839E+00  0.33847851815E+02  0.90241662380E+03  0.90305152567E+03  0.00000000000E+00 0. -1.
         22    1    3    3    0    0  0.31012920124E+02 -0.55133158017E+02 -0.81660201044E+02  0.10329498905E+03  0.00000000000E+00 0.  1.
         22    1    3    3    0    0 -0.45392647382E+02  0.43294442256E+02 -0.65773089018E+02  0.90890045690E+02  0.00000000000E+00 0.  1.
</event>
<event>
 7    1  0.6253338E-006  0.5493421E+02  0.7818608E-02  0.1489411E+00
          2   -1    0    0  502    0  0.00000000000E+00  0.00000000000E+00  0.43253377815E+02  0.43253377815E+02  0.00000000000E+00 0. -1.
          1   -1    0    0  501    0 -0.00000000000E+00 -0.00000000000E+00 -0.18387534603E+04  0.18387534603E+04  0.00000000000E+00 0. -1.
         25    2    1    2    0    0  0.15988479609E+02  0.15921081321E+02 -0.66006567757E+02  0.14314489477E+03  0.12499792639E+03 0.  0.
          2    1    1    2  501    0 -0.44391290451E+02 -0.33013657113E+02 -0.16687098635E+04  0.16696266340E+04  0.00000000000E+00 0. -1.
          1    1    1    2  502    0  0.28402810842E+02  0.17092575791E+02 -0.60783651181E+02  0.69235309358E+02  0.00000000000E+00 0. -1.
         22    1    3    3    0    0  0.44953126445E+02  0.34404110350E+02 -0.86323019895E+02  0.10322833986E+03  0.00000000000E+00 0.  1.
         22    1    3    3    0    0 -0.28964646836E+02 -0.18483029028E+02  0.20316452139E+02  0.39916554910E+02  0.00000000000E+00 0.  1.
</event>
<event>
 7    1  0.6253338E-006  0.4616425E+02  0.7818608E-02  0.1477162E+00
          2   -1    0    0  502    0  0.00000000000E+00  0.00000000000E+00  0.19666591743E+03  0.19666591743E+03  0.00000000000E+00 0. -1.
          1   -1    0    0  501    0 -0.00000000000E+00 -0.00000000000E+00 -0.26525800936E+04  0.26525800936E+04  0.00000000000E+00 0. -1.
         25    2    1    2    0    0  0.42007544740E+02  0.38554036935E+02 -0.84521039604E+03  0.85630512511E+03  0.12500722432E+03 0.  0.
          2    1    1    2  501    0 -0.46343023953E+02  0.42216933032E+01 -0.17990995769E+04  0.17997013047E+04  0.00000000000E+00 0. -1.
          1    1    1    2  502    0  0.43354792139E+01 -0.42775730238E+02  0.18839579681E+03  0.19323958118E+03  0.00000000000E+00 0. -1.
         22    1    3    3    0    0  0.22240441067E+02 -0.24222972219E+02 -0.60670513343E+02  0.69009425380E+02  0.00000000000E+00 0. -1.
         22    1    3    3    0    0  0.19767103672E+02  0.62777009154E+02 -0.78453988270E+03  0.78729569973E+03  0.00000000000E+00 0. -1.
</event>
<event>
 7    1  0.6253338E-006  0.1365229E+03  0.7818608E-02  0.1239809E+00
          2   -1    0    0  502    0  0.00000000000E+00  0.00000000000E+00  0.19361623208E+04  0.19361623208E+04  0.00000000000E+00 0. -1.
          1   -1    0    0  501    0 -0.00000000000E+00 -0.00000000000E+00 -0.15722026171E+03  0.15722026171E+03  0.00000000000E+00 0. -1.
         25    2    1    2    0    0  0.70347338047E+02  0.19217440003E+03  0.83416538397E+02  0.25389403017E+03  0.12499644667E+03 0.  0.
          2    1    1    2  501    0  0.10820159160E+02 -0.11934873655E+03 -0.19141569340E+02  0.12135730895E+03  0.00000000000E+00 0. -1.
          1    1    1    2  502    0 -0.81167497207E+02 -0.72825663483E+02  0.17146670900E+04  0.17181312434E+04  0.00000000000E+00 0. -1.
         22    1    3    3    0    0  0.97866567366E+02  0.13349181368E+03  0.26490180306E+02  0.16762952896E+03  0.00000000000E+00 0.  1.
         22    1    3    3    0    0 -0.27519229319E+02  0.58682586353E+02  0.56926358092E+02  0.86264501210E+02  0.00000000000E+00 0.  1.
</event>
<event>
 7    1  0.6253338E-006  0.5932615E+02  0.7818608E-02  0.1414107E+00
          2   -1    0    0  502    0  0.00000000000E+00  0.00000000000E+00  0.29769054102E+04  0.29769054102E+04  0.00000000000E+00 0. -1.
          1   -1    0    0  501    0 -0.00000000000E+00 -0.00000000000E+00 -0.56371776265E+03  0.56371776265E+03  0.00000000000E+00 0. -1.
         25    2    1    2    0    0 -0.63258569336E+02  0.88915807684E+02  0.14771879532E+04  0.14864783217E+04  0.12500353674E+03 0.  0.
          2    1    1    2  501    0  0.44816550366E+02 -0.38796790845E+02 -0.55702260488E+03  0.56016773962E+03  0.00000000000E+00 0. -1.
          1    1    1    2  502    0  0.18442018970E+02 -0.50119016839E+02  0.14930222992E+04  0.14939771116E+04  0.00000000000E+00 0. -1.
         22    1    3    3    0    0  0.61642829046E+01  0.86530647464E+02  0.56176856508E+03  0.56842719151E+03  0.00000000000E+00 0. -1.
         22    1    3    3    0    0 -0.69422852241E+02  0.23851602205E+01  0.91541938816E+03  0.91805113017E+03  0.00000000000E+00 0. -1.
</event>
<event>
 7    1  0.6253338E-006  0.3704224E+02  0.7818608E-02  0.1618113E+00
          2   -1    0    0  502    0  0.00000000000E+00  0.00000000000E+00  0.51871798424E+03  0.51871798424E+03  0.00000000000E+00 0. -1.
          1   -1    0    0  501    0 -0.00000000000E+00 -0.00000000000E+00 -0.48303409747E+03  0.48303409747E+03  0.00000000000E+00 0. -1.
         25    2    1    2    0    0 -0.66091854105E+01 -0.33498994993E+02  0.39650206598E+03  0.41714139680E+03  0.12500877008E+03 0.  0.
          2    1    1    2  501    0  0.21335475005E+02 -0.31431563976E+01 -0.46897462648E+03  0.46947021440E+03  0.00000000000E+00 0. -1.
          1    1    1    2  502    0 -0.14726289594E+02  0.36642151390E+02  0.10815644727E+03  0.11514047051E+03  0.00000000000E+00 0. -1.
         22    1    3    3    0    0 -0.13235716610E+02  0.15580348606E+02  0.34530830652E+03  0.34591293415E+03  0.00000000000E+00 0. -1.
         22    1    3    3    0    0  0.66265312000E+01 -0.49079343599E+02  0.51193759457E+02  0.71228462648E+02  0.00000000000E+00 0. -1.
</event>
<event>
 7    1  0.6253338E-006  0.2493298E+02  0.7818608E-02  0.1683439E+00
          2   -1    0    0  502    0  0.00000000000E+00  0.00000000000E+00  0.57102030278E+03  0.57102030278E+03  0.00000000000E+00 0. -1.
          1   -1    0    0  501    0 -0.00000000000E+00 -0.00000000000E+00 -0.76408707996E+02  0.76408707996E+02  0.00000000000E+00 0. -1.
         25    2    1    2    0    0 -0.30996669495E+01 -0.26172599328E+01  0.17233469124E+03  0.21293394531E+03  0.12500064510E+03 0.  0.
          2    1    1    2  501    0  0.55129636000E+01  0.24645926875E+02 -0.52923643883E+02  0.58640656213E+02  0.00000000000E+00 0. -1.
          1    1    1    2  502    0 -0.24132966505E+01 -0.22028666942E+02  0.37520054742E+03  0.37585440925E+03  0.00000000000E+00 0. -1.
         22    1    3    3    0    0  0.17738945516E+02  0.48787397426E+02  0.29503453077E+02  0.59710418514E+02  0.00000000000E+00 0. -1.
         22    1    3    3    0    0 -0.20838612465E+02 -0.51404657359E+02  0.14283123817E+03  0.15322352680E+03  0.00000000000E+00 0. -1.
</event>
<event>
 7    1  0.6253338E-006  0.4853823E+02  0.7818608E-02  0.1570069E+00
          2   -1    0    0  502    0  0.00000000000E+00  0.00000000000E+00  0.37399856734E+02  0.37399856734E+02  0.00000000000E+00 0. -1.
          1   -1    0    0  501    0 -0.00000000000E+00 -0.00000000000E+00 -0.42307922102E+03  0.42307922102E+03  0.00000000000E+00 0. -1.
         25    2    1    2    0    0  0.12697537772E+02 -0.28266965253E+02 -0.16607588814E+03  0.21016231298E+03  0.12500699334E+03 0.  0.
          2    1    1    2  501    0  0.79167503187E+01 -0.20552095719E+02 -0.18658218110E+03  0.18787755022E+03  0.00000000000E+00 0. -1.
          1    1    1    2  502    0 -0.20614288091E+02  0.48819060971E+02 -0.33021295049E+02  0.62439214556E+02  0.00000000000E+00 0. -1.
         22    1    3    3    0    0  0.56900049198E+02  0.15405904006E+02 -0.11689025027E+03  0.13091328461E+03  0.00000000000E+00 0.  1.
         22    1    3    3    0    0 -0.44202511426E+02 -0.43672869259E+02 -0.49185637864E+02  0.79249028371E+02  0.00000000000E+00 0.  1.
</event>
<event>
 7    1  0.6253338E-006  0.5014146E+02  0.7818608E-02  0.1553133E+00
          2   -1    0    0  502    0  0.00000000000E+00  0.00000000000E+00  0.14548096013E+03  0.14548096013E+03  0.00000000000E+00 0. -1.
          1   -1    0    0  501    0 -0.00000000000E+00 -0.00000000000E+00 -0.98872578684E+02  0.98872578684E+02  0.00000000000E+00 0. -1.
         25    2    1    2    0    0 -0.48911519516E+02 -0.24087873613E+02  0.56478319299E+02  0.14760645449E+03  0.12500120983E+03 0.  0.
          2    1    1    2  501    0  0.30908369677E+02  0.39548520101E+02 -0.35757916552E+02  0.61628251269E+02  0.00000000000E+00 0. -1.
          1    1    1    2  502    0  0.18003149839E+02 -0.15460646488E+02  0.25887978700E+02  0.35118833055E+02  0.00000000000E+00 0. -1.
         22    1    3    3    0    0  0.19790629056E+02 -0.36712922559E+02 -0.18062923685E+02  0.45450818401E+02  0.00000000000E+00 0.  1.
         22    1    3    3    0    0 -0.68702148573E+02  0.12625048946E+02  0.74541242984E+02  0.10215563609E+03  0.00000000000E+00 0.  1.
</event>
<event>
 7    1  0.6253338E-006  0.6620514E+02  0.7818608E-02  0.1480902E+00
          2   -1    0    0  502    0  0.00000000000E+00  0.00000000000E+00  0.41748458214E+03  0.41748458214E+03  0.00000000000E+00 0. -1.
          1   -1    0    0  501    0 -0.00000000000E+00 -0.00000000000E+00 -0.32221136780E+03  0.32221136780E+03  0.00000000000E+00 0. -1.
         25    2    1    2    0    0 -0.87935485680E+02 -0.26371407902E+02  0.85961667932E+02  0.17732287787E+03  0.12500357541E+03 0.  0.
          2    1    1    2  501    0  0.64946404339E+02  0.83719680816E+01 -0.27188755759E+03  0.27966224139E+03  0.00000000000E+00 0. -1.
          1    1    1    2  502    0  0.22989081341E+02  0.17999439820E+02  0.28119910400E+03  0.28271083069E+03  0.00000000000E+00 0. -1.
         22    1    3    3    0    0 -0.95298889263E+02  0.28364817215E+02  0.48845424740E+02  0.11078048866E+03  0.00000000000E+00 0.  1.
         22    1    3    3    0    0  0.73634035830E+01 -0.54736225117E+02  0.37116243192E+02  0.66542389205E+02  0.00000000000E+00 0.  1.
</event>
<event>
 7    1  0.6253338E-006  0.4013562E+02  0.7818608E-02  0.1573938E+00
          2   -1    0    0  502    0  0.00000000000E+00  0.00000000000E+00  0.77780638550E+03  0.77780638550E+03  0.00000000000E+00 0. -1.
          1   -1    0    0  501    0 -0.00000000000E+00 -0.00000000000E+00 -0.62836036547E+02  0.62836036547E+02  0.00000000000E+00 0. -1.
         25    2    1    2    0    0  0.63362623398E+02  0.93453833716E+01  0.34595532749E+03  0.37337945590E+03  0.12499988494E+03 0.  0.
          2    1    1    2  501    0 -0.37566624199E+02 -0.12594468361E+02 -0.40654938204E+02  0.56768793253E+02  0.00000000000E+00 0. -1.
          1    1    1    2  502    0 -0.25795999199E+02  0.32490849896E+01  0.40966995966E+03  0.41049417289E+03  0.00000000000E+00 0. -1.
         22    1    3    3    0    0 -0.15631539821E+02  0.41750047728E+02  0.19422284371E+03  0.19927349182E+03  0.00000000000E+00 0.  1.
         22    1    3    3    0    0  0.78994163219E+02 -0.32404664356E+02  0.15173248378E+03  0.17410596408E+03  0.00000000000E+00 0.  1.
</event>
<event>
 7    1  0.6253338E-006  0.7265069E+02  0.7818608E-02  0.1360359E+00
          2   -1    0    0  502    0  0.00000000000E+00  0.00000000000E+00  0.13384529105E+04  0.13384529105E+04  0.00000000000E+00 0. -1.
          1   -1    0    0  501    0 -0.00000000000E+00 -0.00000000000E+00 -0.15552502280E+04  0.15552502280E+04  0.00000000000E+00 0. -1.
         25    2    1    2    0    0  0.92197217780E+02  0.26940885474E+02 -0.32988209215E+02  0.16105699435E+03  0.12499998082E+03 0.  0.
          2    1    1    2  501    0 -0.64140320705E+02  0.34226728943E+02 -0.14564319192E+04  0.14582453102E+04  0.00000000000E+00 0. -1.
          1    1    1    2  502    0 -0.28056897075E+02 -0.61167614416E+02  0.12726228109E+04  0.12744008339E+04  0.00000000000E+00 0. -1.
         22    1    3    3    0    0  0.55020325970E+02 -0.48596170981E+02 -0.17258793839E+02  0.75410145661E+02  0.00000000000E+00 0. -1.
         22    1    3    3    0    0  0.37176891810E+02  0.75537056455E+02 -0.15729415376E+02  0.85646848690E+02  0.00000000000E+00 0. -1.
</event>
<event>
 7    1  0.6253338E-006  0.7551982E+02  0.7818608E-02  0.1462695E+00
          2   -1    0    0  502    0  0.00000000000E+00  0.00000000000E+00  0.10390786710E+04  0.10390786710E+04  0.00000000000E+00 0. -1.
          1   -1    0    0  501    0 -0.00000000000E+00 -0.00000000000E+00 -0.64851858164E+03  0.64851858164E+03  0.00000000000E+00 0. -1.
         25    2    1    2    0    0 -0.74899528437E+02 -0.47744281383E+02 -0.12459762469E+03  0.19757457011E+03  0.12498674694E+03 0.  0.
          2    1    1    2  501    0  0.72412849846E+02  0.18698570063E+02 -0.48434997985E+03  0.49008995126E+03  0.00000000000E+00 0. -1.
          1    1    1    2  502    0  0.24866785904E+01  0.29045711319E+02  0.99950769389E+03  0.99993273127E+03  0.00000000000E+00 0. -1.
         22    1    3    3    0    0  0.32893998389E+02 -0.19465614126E+02 -0.14385223858E+02  0.40839440847E+02  0.00000000000E+00 0. -1.
         22    1    3    3    0    0 -0.10779352683E+03 -0.28278667257E+02 -0.11021240083E+03  0.15673512926E+03  0.00000000000E+00 0. -1.
</event>
<event>
 7    1  0.6253338E-006  0.8493464E+02  0.7818608E-02  0.1339426E+00
          2   -1    0    0  502    0  0.00000000000E+00  0.00000000000E+00  0.52132752646E+03  0.52132752646E+03  0.00000000000E+00 0. -1.
          1   -1    0    0  501    0 -0.00000000000E+00 -0.00000000000E+00 -0.19197696212E+03  0.19197696212E+03  0.00000000000E+00 0. -1.
         25    2    1    2    0    0 -0.95948930679E+01 -0.43722097602E+02  0.35851038731E+02  0.13752284203E+03  0.12499420510E+03 0.  0.
          2    1    1    2  501    0 -0.48012366217E+02  0.81374197245E+02 -0.12217622573E+03  0.15444732895E+03  0.00000000000E+00 0. -1.
          1    1    1    2  502    0  0.57607259285E+02 -0.37652099642E+02  0.41567575134E+03  0.42133431760E+03  0.00000000000E+00 0. -1.
         22    1    3    3    0    0 -0.18366263850E+02  0.36829497444E+02  0.38633775031E+02  0.56447321486E+02  0.00000000000E+00 0. -1.
         22    1    3    3    0    0  0.87713707817E+01 -0.80551595047E+02 -0.27827362995E+01  0.81075520543E+02  0.00000000000E+00 0. -1.
</event>
<event>
 7    1  0.6253338E-006  0.3548690E+02  0.7818608E-02  0.1562651E+00
          2   -1    0    0  502    0  0.00000000000E+00  0.00000000000E+00  0.44166784314E+02  0.44166784314E+02  0.00000000000E+00 0. -1.
          1   -1    0    0  501    0 -0.00000000000E+00 -0.00000000000E+00 -0.22665200268E+04  0.22665200268E+04  0.00000000000E+00 0. -1.
         25    2    1    2    0    0 -0.10914886009E+02 -0.89164494125E+01 -0.40759738453E+03  0.42656720022E+03  0.12500124246E+03 0.  0.
          2    1    1    2  501    0 -0.61081222239E+01  0.35494331990E+02 -0.18420443265E+04  0.18423963899E+04  0.00000000000E+00 0. -1.
          1    1    1    2  502    0  0.17023008233E+02 -0.26577882577E+02  0.27288468565E+02  0.41723220971E+02  0.00000000000E+00 0. -1.
         22    1    3    3    0    0 -0.65293903534E+02 -0.17771671406E+02 -0.17739185918E+03  0.18986046941E+03  0.00000000000E+00 0. -1.
         22    1    3    3    0    0  0.54379017524E+02  0.88552219931E+01 -0.23020552536E+03  0.23670673080E+03  0.00000000000E+00 0. -1.
</event>
<event>
 7    1  0.6253338E-006  0.6605446E+02  0.7818608E-02  0.1495747E+00
          2   -1    0    0  502    0  0.00000000000E+00  0.00000000000E+00  0.80748550316E+03  0.80748550316E+03  0.00000000000E+00 0. -1.
          1   -1    0    0  501    0 -0.00000000000E+00 -0.00000000000E+00 -0.43704904836E+02  0.43704904836E+02  0.00000000000E+00 0. -1.
         25    2    1    2    0    0  0.73513598727E+02  0.31474523780E+02  0.51662557477E+03  0.53751447881E+03  0.12499974232E+03 0.  0.
          2    1    1    2  501    0 -0.25262434512E+02  0.76053771655E+01 -0.23900985272E+02  0.35599009203E+02  0.00000000000E+00 0. -1.
          1    1    1    2  502    0 -0.48251164215E+02 -0.39079900945E+02  0.27105600882E+03  0.27807691998E+03  0.00000000000E+00 0. -1.
         22    1    3    3    0    0 -0.29377267448E+02 -0.14313300299E+02  0.76067120611E+02  0.82789499613E+02  0.00000000000E+00 0. -1.
         22    1    3    3    0    0  0.10289086617E+03  0.45787824079E+02  0.44055845416E+03  0.45472497920E+03  0.00000000000E+00 0. -1.
</event>
<event>
 7    1  0.6253338E-006  0.1304888E+03  0.7818608E-02  0.1296210E+00
          2   -1    0    0  502    0  0.00000000000E+00  0.00000000000E+00  0.26554940418E+04  0.26554940418E+04  0.00000000000E+00 0. -1.
          1   -1    0    0  501    0 -0.00000000000E+00 -0.00000000000E+00 -0.27679901362E+03  0.27679901362E+03  0.00000000000E+00 0. -1.
         25    2    1    2    0    0 -0.73985067722E+02 -0.99492270312E+02  0.57179501726E+02  0.18511587321E+03  0.12500355595E+03 0.  0.
          2    1    1    2  501    0  0.12238831506E+03  0.54630000188E+02 -0.19125403701E+03  0.23354109544E+03  0.00000000000E+00 0. -1.
          1    1    1    2  502    0 -0.48403247340E+02  0.44862270124E+02  0.25127695634E+04  0.25136360867E+04  0.00000000000E+00 0. -1.
         22    1    3    3    0    0 -0.10844958878E+03 -0.62875721638E+02  0.46534105020E+02  0.13371646349E+03  0.00000000000E+00 0. -1.
         22    1    3    3    0    0  0.34464521061E+02 -0.36616548674E+02  0.10645396706E+02  0.51399409722E+02  0.00000000000E+00 0. -1.
</event>
<event>
 7    1  0.6253338E-006  0.1337328E+03  0.7818608E-02  0.1308170E+00
          2   -1    0    0  502    0  0.00000000000E+00  0.00000000000E+00  0.13496778596E+04  0.13496778596E+04  0.00000000000E+00 0. -1.
          1   -1    0    0  501    0 -0.00000000000E+00 -0.00000000000E+00 -0.14442639368E+04  0.14442639368E+04  0.00000000000E+00 0. -1.
         25    2    1    2    0    0 -0.14853938680E+03 -0.11342967780E+03  0.34643960576E+03  0.41301111982E+03  0.12501017327E+03 0.  0.
          2    1    1    2  501    0  0.11590580910E+03  0.65850405148E+02 -0.14069668963E+04  0.14132679434E+04  0.00000000000E+00 0. -1.
          1    1    1    2  502    0  0.32633577701E+02  0.47579272648E+02  0.96594121340E+03  0.96766273325E+03  0.00000000000E+00 0. -1.
         22    1    3    3    0    0 -0.64593165790E+02 -0.11792049738E+03  0.25836660808E+03  0.29125731740E+03  0.00000000000E+00 0. -1.
         22    1    3    3    0    0 -0.83946221014E+02  0.44908195883E+01  0.88072997678E+02  0.12175380242E+03  0.00000000000E+00 0. -1.
</event>
<event>
 7    1  0.6253338E-006  0.7397802E+02  0.7818608E-02  0.1409180E+00
          2   -1    0    0  502    0  0.00000000000E+00  0.00000000000E+00  0.21963414021E+03  0.21963414021E+03  0.00000000000E+00 0. -1.
          1   -1    0    0  501    0 -0.00000000000E+00 -0.00000000000E+00 -0.29170894520E+04  0.29170894520E+04  0.00000000000E+00 0. -1.
         25    2    1    2    0    0  0.37515144720E+02 -0.92609554653E+02 -0.36910268049E+03  0.40230046678E+03  0.12499984452E+03 0.  0.
          2    1    1    2  501    0  0.15689934535E+02  0.41644052236E+02 -0.25245014213E+04  0.25248936270E+04  0.00000000000E+00 0. -1.
          1    1    1    2  502    0 -0.53205079254E+02  0.50965502417E+02  0.19614879004E+03  0.20952949847E+03  0.00000000000E+00 0. -1.
         22    1    3    3    0    0  0.17526992582E+02 -0.57915804378E+02 -0.44184852863E+02  0.74924876298E+02  0.00000000000E+00 0.  1.
         22    1    3    3    0    0  0.19988152137E+02 -0.34693750275E+02 -0.32491782762E+03  0.32737559048E+03  0.00000000000E+00 0.  1.
</event>
<event>
 7    1  0.6253338E-006  0.7555539E+02  0.7818608E-02  0.1441851E+00
          2   -1    0    0  502    0  0.00000000000E+00  0.00000000000E+00  0.29861372218E+03  0.29861372218E+03  0.00000000000E+00 0. -1.
          1   -1    0    0  501    0 -0.00000000000E+00 -0.00000000000E+00 -0.21604327440E+03  0.21604327440E+03  0.00000000000E+00 0. -1.
         25    2    1    2    0    0 -0.37449249436E+02  0.36665370558E+02  0.93934017865E+02  0.16491144225E+03  0.12500155355E+03 0.  0.
          2    1    1    2  501    0  0.32229099585E+02 -0.70219887309E+02 -0.17041374725E+03  0.18711064290E+03  0.00000000000E+00 0. -1.
          1    1    1    2  502    0  0.52201498507E+01  0.33554516751E+02  0.15905017717E+03  0.16263491143E+03  0.00000000000E+00 0. -1.
         22    1    3    3    0    0 -0.71194259886E+02  0.76777300626E+00  0.16423846135E+02  0.73068152009E+02  0.00000000000E+00 0. -1.
         22    1    3    3    0    0  0.33745010450E+02  0.35897597552E+02  0.77510171730E+02  0.91843290239E+02  0.00000000000E+00 0. -1.
</event>
<event>
 7    1  0.6253338E-006  0.1567662E+03  0.7818608E-02  0.1289323E+00
          2   -1    0    0  502    0  0.00000000000E+00  0.00000000000E+00  0.50180654034E+03  0.50180654034E+03  0.00000000000E+00 0. -1.
          1   -1    0    0  501    0 -0.00000000000E+00 -0.00000000000E+00 -0.42733268493E+03  0.42733268493E+03  0.00000000000E+00 0. -1.
         25    2    1    2    0    0  0.29124949049E+02  0.10234619347E+03 -0.14615133852E+03  0.21979119986E+03  0.12499980724E+03 0.  0.
          2    1    1    2  501    0 -0.11577298680E+02  0.57421688407E+02 -0.22663596901E+03  0.23408363163E+03  0.00000000000E+00 0. -1.
          1    1    1    2  502    0 -0.17547650369E+02 -0.15976788188E+03  0.44726116295E+03  0.47526439378E+03  0.00000000000E+00 0. -1.
         22    1    3    3    0    0  0.70376451709E+02  0.99879111279E+02 -0.10042381689E+03  0.15815696261E+03  0.00000000000E+00 0.  1.
         22    1    3    3    0    0 -0.41251502660E+02  0.24670821913E+01 -0.45727521635E+02  0.61634237248E+02  0.00000000000E+00 0.  1.
</event>
<event>
 7    1  0.6253338E-006  0.1359914E+03  0.7818608E-02  0.1389615E+00
          2   -1    0    0  502    0  0.00000000000E+00  0.00000000000E+00  0.58027290645E+03  0.58027290645E+03  0.00000000000E+00 0. -1.
          1   -1    0    0  501    0 -0.00000000000E+00 -0.00000000000E+00 -0.25767820765E+04  0.25767820765E+04  0.00000000000E+00 0. -1.
         25    2    1    2    0    0  0.15736393241E+03 -0.45807646825E+02 -0.12556487144E+04  0.12724545191E+04  0.12500024567E+03 0.  0.
          2    1    1    2  501    0 -0.27819070624E+02  0.50220656285E+01 -0.13045115674E+04  0.13048178230E+04  0.00000000000E+00 0. -1.
          1    1    1    2  502    0 -0.12954486179E+03  0.40785581196E+02  0.56365111174E+03  0.57978264084E+03  0.00000000000E+00 0. -1.
         22    1    3    3    0    0  0.60999991990E+02 -0.52649469320E+02 -0.90995751791E+03  0.91351828118E+03  0.00000000000E+00 0.  1.
         22    1    3    3    0    0  0.96363940424E+02  0.68418224951E+01 -0.34569119650E+03  0.35893623792E+03  0.00000000000E+00 0.  1.
</event>
<event>
 7    1  0.6253338E-006  0.9561372E+02  0.7818608E-02  0.1394150E+00
          2   -1    0    0  502    0  0.00000000000E+00  0.00000000000E+00  0.56290653414E+03  0.56290653414E+03  0.00000000000E+00 0. -1.
          1   -1    0    0  501    0 -0.00000000000E+00 -0.00000000000E+00 -0.25600259297E+03  0.25600259297E+03  0.00000000000E+00 0. -1.
         25    2    1    2    0    0 -0.96526787803E+02 -0.62931137989E+02 -0.27180902380E+01  0.17002535229E+03  0.12499393391E+03 0.  0.
          2    1    1    2  501    0  0.37169103317E+02 -0.11033192326E+02 -0.16263791210E+03  0.16719558614E+03  0.00000000000E+00 0. -1.
          1    1    1    2  502    0  0.59357684486E+02  0.73964330315E+02  0.47225994350E+03  0.48168818867E+03  0.00000000000E+00 0. -1.
         22    1    3    3    0    0 -0.26189979130E+02 -0.57845507089E+02 -0.53574655091E+02  0.83079849334E+02  0.00000000000E+00 0.  1.
         22    1    3    3    0    0 -0.70336808673E+02 -0.50856308997E+01  0.50856564853E+02  0.86945502958E+02  0.00000000000E+00 0.  1.
</event>
<event>
 7    1  0.6253338E-006  0.1136735E+03  0.7818608E-02  0.1423165E+00
          2   -1    0    0  502    0  0.00000000000E+00  0.00000000000E+00  0.67683214439E+03  0.67683214439E+03  0.00000000000E+00 0. -1.
          1   -1    0    0  501    0 -0.00000000000E+00 -0.00000000000E+00 -0.91428658009E+03  0.91428658009E+03  0.00000000000E+00 0. -1.
         25    2    1    2    0    0 -0.27848291162E+02 -0.13461473860E+03  0.38367169131E+02  0.18972220122E+03  0.12500327516E+03 0.  0.
          2    1    1    2  501    0  0.94811339872E+01  0.24201674971E+02 -0.83283897108E+03  0.83324448076E+03  0.00000000000E+00 0. -1.
          1    1    1    2  502    0  0.18367157174E+02  0.11041306363E+03  0.55701736626E+03  0.56815204250E+03  0.00000000000E+00 0. -1.
         22    1    3    3    0    0 -0.47573971889E+02 -0.14590514483E+03  0.53379250602E+02  0.16248365605E+03  0.00000000000E+00 0. -1.
         22    1    3    3    0    0  0.19725680727E+02  0.11290406228E+02 -0.15012081471E+02  0.27238545171E+02  0.00000000000E+00 0. -1.
</event>
<event>
 7    1  0.6253338E-006  0.1052026E+03  0.7818608E-02  0.1361846E+00
          2   -1    0    0  502    0  0.00000000000E+00  0.00000000000E+00  0.11993045027E+04  0.11993045027E+04  0.00000000000E+00 0. -1.
          1   -1    0    0  501    0 -0.00000000000E+00 -0.00000000000E+00 -0.22291174346E+03  0.22291174346E+03  0.00000000000E+00 0. -1.
         25    2    1    2    0    0 -0.11020498125E+03  0.64479215456E+02  0.63635063691E+03  0.66096129069E+03  0.12499995028E+03 0.  0.
          2    1    1    2  501    0  0.67209274355E+02 -0.80538015852E+02 -0.19650400562E+03  0.22274937213E+03  0.00000000000E+00 0. -1.
          1    1    1    2  502    0  0.42995706896E+02  0.16058800396E+02  0.53654612798E+03  0.53850558338E+03  0.00000000000E+00 0. -1.
         22    1    3    3    0    0 -0.37517370219E+02 -0.70617117013E+01  0.42049594835E+03  0.42222537041E+03  0.00000000000E+00 0. -1.
         22    1    3    3    0    0 -0.72687611031E+02  0.71540927157E+02  0.21585468856E+03  0.23873592028E+03  0.00000000000E+00 0. -1.
</event>
<event>
 7    1  0.6253338E-006  0.6979637E+02  0.7818608E-02  0.1469685E+00
          2   -1    0    0  502    0  0.00000000000E+00  0.00000000000E+00  0.36995309150E+04  0.36995309150E+04  0.00000000000E+00 0. -1.
          1   -1    0    0  501    0 -0.00000000000E+00 -0.00000000000E+00 -0.18582583772E+04  0.18582583772E+04  0.00000000000E+00 0. -1.
         25    2    1    2    0    0 -0.48759759638E+02 -0.12351520864E+02  0.31143925819E+03  0.33933530300E+03  0.12499584829E+03 0.  0.
          2    1    1    2  501    0 -0.21062939979E+02  0.21354347443E+02 -0.18438211436E+04  0.18440650924E+04  0.00000000000E+00 0. -1.
          1    1    1    2  502    0  0.69822699617E+02 -0.90028265789E+01  0.33736544231E+04  0.33743888968E+04  0.00000000000E+00 0. -1.
         22    1    3    3    0    0 -0.90735020574E+02 -0.83250908155E+01  0.23483167562E+03  0.25188899732E+03  0.00000000000E+00 0. -1.
         22    1    3    3    0    0  0.41975260936E+02 -0.40264300488E+01  0.76607582574E+02  0.87446305682E+02  0.00000000000E+00 0. -1.
</event>
<event>
 7    1  0.6253338E-006  0.1413671E+03  0.7818608E-02  0.1241429E+00
          2   -1    0    0  502    0  0.00000000000E+00  0.00000000000E+00  0.68192361852E+03  0.68192361852E+03  0.00000000000E+00 0. -1.
          1   -1    0    0  501    0 -0.00000000000E+00 -0.00000000000E+00 -0.13997640104E+04  0.13997640104E+04  0.00000000000E+00 0. -1.
         25    2    1    2    0    0 -0.77157502864E+02  0.14294704183E+02 -0.18945042366E+02  0.14878363454E+03  0.12498014427E+03 0.  0.
          2    1    1    2  501    0 -0.53177595623E+02 -0.88906258247E+02 -0.13046773501E+04  0.13087838504E+04  0.00000000000E+00 0. -1.
          1    1    1    2  502    0  0.13033509849E+03  0.74611554064E+02  0.60578200054E+03  0.62412014394E+03  0.00000000000E+00 0. -1.
         22    1    3    3    0    0 -0.22694602176E+02  0.78608141212E+00  0.52931779181E+02  0.57597188639E+02  0.00000000000E+00 0. -1.
         22    1    3    3    0    0 -0.54462900688E+02  0.13508622771E+02 -0.71876821547E+02  0.91186445902E+02  0.00000000000E+00 0. -1.
</event>
<event>
 7    1  0.6253338E-006  0.3154980E+03  0.7818608E-02  0.1280352E+00
          2   -1    0    0  502    0  0.00000000000E+00  0.00000000000E+00  0.65527802132E+03  0.65527802132E+03  0.00000000000E+00 0. -1.
          1   -1    0    0  501    0 -0.00000000000E+00 -0.00000000000E+00 -0.10393012932E+04  0.10393012932E+04  0.00000000000E+00 0. -1.
         25    2    1    2    0    0  0.29649506034E+03 -0.13444294516E+03 -0.31913350891E+03  0.47271067032E+03  0.12499982006E+03 0.  0.
          2    1    1    2  501    0 -0.23302151703E+02 -0.21460750605E+02 -0.60017251579E+03  0.60100798896E+03  0.00000000000E+00 0. -1.
          1    1    1    2  502    0 -0.27319290864E+03  0.15590369577E+03  0.53528275286E+03  0.62086065521E+03  0.00000000000E+00 0. -1.
         22    1    3    3    0    0  0.20262629148E+03 -0.67469933641E+02 -0.12654572556E+03  0.24824066266E+03  0.00000000000E+00 0.  1.
         22    1    3    3    0    0  0.93868768863E+02 -0.66973011519E+02 -0.19258778335E+03  0.22447000766E+03  0.00000000000E+00 0.  1.
</event>
<event>
 7    1  0.6253338E-006  0.1484029E+03  0.7818608E-02  0.1264873E+00
          2   -1    0    0  502    0  0.00000000000E+00  0.00000000000E+00  0.71418775570E+03  0.71418775570E+03  0.00000000000E+00 0. -1.
          1   -1    0    0  501    0 -0.00000000000E+00 -0.00000000000E+00 -0.10453343512E+03  0.10453343512E+03  0.00000000000E+00 0. -1.
         25    2    1    2    0    0  0.83166278860E+02  0.14565825321E+03  0.13505538971E+03  0.24899634104E+03  0.12500505146E+03 0.  0.
          2    1    1    2  501    0 -0.50238868070E+01 -0.14344715107E+03  0.73843681932E+02  0.16141627535E+03  0.00000000000E+00 0. -1.
          1    1    1    2  502    0 -0.78142392053E+02 -0.22111021471E+01  0.40075524893E+03  0.40830857443E+03  0.00000000000E+00 0. -1.
         22    1    3    3    0    0  0.74881534868E+02  0.14706870391E+03  0.63311583685E+02  0.17676199977E+03  0.00000000000E+00 0.  1.
         22    1    3    3    0    0  0.82847439919E+01 -0.14104507007E+01  0.71743806028E+02  0.72234341262E+02  0.00000000000E+00 0.  1.
</event>
<event>
 7    1  0.6253338E-006  0.1564463E+03  0.7818608E-02  0.1248686E+00
          2   -1    0    0  502    0  0.00000000000E+00  0.00000000000E+00  0.23942106496E+03  0.23942106496E+03  0.00000000000E+00 0. -1.
          1   -1    0    0  501    0 -0.00000000000E+00 -0.00000000000E+00 -0.16762222687E+04  0.16762222687E+04  0.00000000000E+00 0. -1.
         25    2    1    2    0    0  0.17116910959E+03 -0.38123366617E+02 -0.27990496815E+03  0.35316293831E+03  0.12500005857E+03 0.  0.
          2    1    1    2  501    0 -0.55247383818E+02 -0.67224702271E+02 -0.13278025736E+04  0.13306506335E+04  0.00000000000E+00 0. -1.
          1    1    1    2  502    0 -0.11592172577E+03  0.10534806889E+03  0.17090633798E+03  0.23182976187E+03  0.00000000000E+00 0. -1.
         22    1    3    3    0    0  0.88535098700E+02  0.40712782106E+02 -0.96761777210E+02  0.13732747670E+03  0.00000000000E+00 0.  1.
         22    1    3    3    0    0  0.82634010887E+02 -0.78836148723E+02 -0.18314319094E+03  0.21583546161E+03  0.00000000000E+00 0.  1.
</event>
<event>
 7    1  0.6253338E-006  0.1020480E+03  0.7818608E-02  0.1383871E+00
          2   -1    0    0  502    0  0.00000000000E+00  0.00000000000E+00  0.32129316193E+04  0.32129316193E+04  0.00000000000E+00 0. -1.
          1   -1    0    0  501    0 -0.00000000000E+00 -0.00000000000E+00 -0.71548108686E+03  0.71548108686E+03  0.00000000000E+00 0. -1.
         25    2    1    2    0    0  0.48416339697E+02 -0.67108818011E+02  0.25169247771E+04  0.25213849678E+04  0.12499634713E+03 0.  0.
          2    1    1    2  501    0 -0.25107388926E+02  0.98948724863E+02 -0.70903131539E+03  0.71634254189E+03  0.00000000000E+00 0. -1.
          1    1    1    2  502    0 -0.23308950772E+02 -0.31839906852E+02  0.68955707071E+03  0.69068519647E+03  0.00000000000E+00 0. -1.
         22    1    3    3    0    0  0.29902899566E+02 -0.10416623962E+03  0.18629095784E+04  0.18660591862E+04  0.00000000000E+00 0.  1.
         22    1    3    3    0    0  0.18513440131E+02  0.37057421605E+02  0.65401519863E+03  0.65532578158E+03  0.00000000000E+00 0.  1.
</event>
<event>
 7    1  0.6253338E-006  0.7918044E+02  0.7818608E-02  0.1454049E+00
          2   -1    0    0  502    0  0.00000000000E+00  0.00000000000E+00  0.73399122325E+03  0.73399122325E+03  0.00000000000E+00 0. -1.
          1   -1    0    0  501    0 -0.00000000000E+00 -0.00000000000E+00 -0.98705764972E+03  0.98705764972E+03  0.00000000000E+00 0. -1.
         25    2    1    2    0    0 -0.73162300149E+02 -0.62399691370E+01 -0.42470631458E+02  0.15106855916E+03  0.12500518251E+03 0.  0.
          2    1    1    2  501    0  0.76069254471E+02 -0.23227724942E+02 -0.88818765860E+03  0.89174176507E+03  0.00000000000E+00 0. -1.
          1    1    1    2  502    0 -0.29069543226E+01  0.29467694079E+02  0.67759186359E+03  0.67823854873E+03  0.00000000000E+00 0. -1.
         22    1    3    3    0    0 -0.99958779856E+02 -0.22990529476E+02 -0.59032169490E+01  0.10273835742E+03  0.00000000000E+00 0. -1.
         22    1    3    3    0    0  0.26796479707E+02  0.16750560339E+02 -0.36567414509E+02  0.48330201740E+02  0.00000000000E+00 0. -1.
</event>
<event>
 7    1  0.6253338E-006  0.4369449E+02  0.7818608E-02  0.1485177E+00
          2   -1    0    0  502    0  0.00000000000E+00  0.00000000000E+00  0.12079250784E+04  0.12079250784E+04  0.00000000000E+00 0. -1.
          1   -1    0    0  501    0 -0.00000000000E+00 -0.00000000000E+00 -0.40045514589E+02  0.40045514589E+02  0.00000000000E+00 0. -1.
         25    2    1    2    0    0  0.16506717765E+02  0.32413603584E+02  0.33474408640E+03  0.35916734043E+03  0.12499784648E+03 0.  0.
          2    1    1    2  501    0  0.26205993345E+02 -0.36713899496E+02 -0.86455477478E+01  0.45928313699E+02  0.00000000000E+00 0. -1.
          1    1    1    2  502    0 -0.42712711111E+02  0.43002959114E+01  0.84178102513E+03  0.84287493883E+03  0.00000000000E+00 0. -1.
         22    1    3    3    0    0 -0.35698041778E+02 -0.31033472960E+02  0.10465401131E+03  0.11484724078E+03  0.00000000000E+00 0. -1.
         22    1    3    3    0    0  0.52204759543E+02  0.63447076544E+02  0.23009007509E+03  0.24432009965E+03  0.00000000000E+00 0. -1.
</event>
<event>
 7    1  0.6253338E-006  0.9357302E+02  0.7818608E-02  0.1314173E+00
          2   -1    0    0  502    0  0.00000000000E+00  0.00000000000E+00  0.46378437097E+03  0.46378437097E+03  0.00000000000E+00 0. -1.
          1   -1    0    0  501    0 -0.00000000000E+00 -0.00000000000E+00 -0.28914242362E+03  0.28914242362E+03  0.00000000000E+00 0. -1.
         25    2    1    2    0    0 -0.82135506782E+02 -0.53483515220E+02  0.10582948636E+02  0.15919687756E+03  0.12499967659E+03 0.  0.
          2    1    1    2  501    0  0.66525905860E+02 -0.40900980042E+02 -0.20137182918E+03  0.21598425847E+03  0.00000000000E+00 0. -1.
          1    1    1    2  502    0  0.15609600922E+02  0.94384495262E+02  0.36543082789E+03  0.37774565856E+03  0.00000000000E+00 0. -1.
         22    1    3    3    0    0  0.25667207416E+02 -0.43492329734E+02  0.57011260994E+01  0.50822151873E+02  0.00000000000E+00 0. -1.
         22    1    3    3    0    0 -0.10780271420E+03 -0.99911854854E+01  0.48818225365E+01  0.10837472568E+03  0.00000000000E+00 0. -1.
</event>
<event>
 7    1  0.6253338E-006  0.5461071E+02  0.7818608E-02  0.1442575E+00
          2   -1    0    0  502    0  0.00000000000E+00  0.00000000000E+00  0.13116812854E+04  0.13116812854E+04  0.00000000000E+00 0. -1.
          1   -1    0    0  501    0 -0.00000000000E+00 -0.00000000000E+00 -0.16634959814E+03  0.16634959814E+03  0.00000000000E+00 0. -1.
         25    2    1    2    0    0 -0.47100185739E+02  0.33180848556E+02  0.29112401590E+03  0.32202065591E+03  0.12499885595E+03 0.  0.
          2    1    1    2  501    0 -0.67347804205E+01 -0.46241435159E+02 -0.14649910909E+03  0.15377131253E+03  0.00000000000E+00 0. -1.
          1    1    1    2  502    0  0.53834966159E+02  0.13060586603E+02  0.10007067805E+04  0.10022389151E+04  0.00000000000E+00 0. -1.
         22    1    3    3    0    0 -0.59844563389E+02 -0.33051060075E+02  0.17265863818E+03  0.18570069918E+03  0.00000000000E+00 0.  1.
         22    1    3    3    0    0  0.12744377650E+02  0.66231908631E+02  0.11846537772E+03  0.13631995673E+03  0.00000000000E+00 0.  1.
</event>
<event>
 7    1  0.6253338E-006  0.2655854E+03  0.7818608E-02  0.1240501E+00
          2   -1    0    0  502    0  0.00000000000E+00  0.00000000000E+00  0.24027020476E+04  0.24027020476E+04  0.00000000000E+00 0. -1.
          1   -1    0    0  501    0 -0.00000000000E+00 -0.00000000000E+00 -0.39523074196E+03  0.39523074196E+03  0.00000000000E+00 0. -1.
         25    2    1    2    0    0  0.26584833758E+03  0.24832241731E+02  0.16324415029E+03  0.33699586162E+03  0.12500231726E+03 0.  0.
          2    1    1    2  501    0 -0.26455929818E+03  0.30816827469E+02 -0.25040013685E+03  0.36557014053E+03  0.00000000000E+00 0. -1.
          1    1    1    2  502    0 -0.12890394022E+01 -0.55649069199E+02  0.20946272922E+04  0.20953667874E+04  0.00000000000E+00 0. -1.
         22    1    3    3    0    0  0.95440906209E+02  0.69714434924E+02  0.74268358554E+02  0.13958817320E+03  0.00000000000E+00 0. -1.
         22    1    3    3    0    0  0.17040743137E+03 -0.44882193193E+02  0.88975791737E+02  0.19740768842E+03  0.00000000000E+00 0. -1.
</event>
<event>
 7    1  0.6253338E-006  0.1907932E+03  0.7818608E-02  0.1298055E+00
          2   -1    0    0  502    0  0.00000000000E+00  0.00000000000E+00  0.31495515002E+03  0.31495515002E+03  0.00000000000E+00 0. -1.
          1   -1    0    0  501    0 -0.00000000000E+00 -0.00000000000E+00 -0.11035555595E+04  0.11035555595E+04  0.00000000000E+00 0. -1.
         25    2    1    2    0    0 -0.18395743041E+03  0.91649646657E+02 -0.59512125436E+03  0.64189665558E+03  0.12498805989E+03 0.  0.
          2    1    1    2  501    0 -0.34429837685E+00 -0.44370936526E+02 -0.45280506830E+03  0.45497398654E+03  0.00000000000E+00 0. -1.
          1    1    1    2  502    0  0.18430172879E+03 -0.47278710131E+02  0.25932591321E+03  0.32164006736E+03  0.00000000000E+00 0. -1.
         22    1    3    3    0    0 -0.20021301134E+03  0.96492282101E+02 -0.56768073800E+03  0.60963713036E+03  0.00000000000E+00 0. -1.
         22    1    3    3    0    0  0.16255580927E+02 -0.48426354440E+01 -0.27440516357E+02  0.32259525218E+02  0.00000000000E+00 0. -1.
</event>
<event>
 7    1  0.6253338E-006  0.1142264E+03  0.7818608E-02  0.1288030E+00
          2   -1    0    0  502    0  0.00000000000E+00  0.00000000000E+00  0.19690608747E+04  0.19690608747E+04  0.00000000000E+00 0. -1.
          1   -1    0    0  501    0 -0.00000000000E+00 -0.00000000000E+00 -0.82363334502E+02  0.82363334502E+02  0.00000000000E+00 0. -1.
         25    2    1    2    0    0 -0.17462396948E+03  0.43339608705E+02  0.10344711340E+04  0.10574154695E+04  0.12500038268E+03 0.  0.
          2    1    1    2  501    0  0.77923214793E+02 -0.23443758110E+02 -0.43900285557E+02  0.92460111778E+02  0.00000000000E+00 0. -1.
          1    1    1    2  502    0  0.96700754689E+02 -0.19895850594E+02  0.89612669169E+03  0.90154862785E+03  0.00000000000E+00 0. -1.
         22    1    3    3    0    0 -0.22492089795E+02 -0.31553869458E+02  0.35486735349E+03  0.35697672103E+03  0.00000000000E+00 0. -1.
         22    1    3    3    0    0 -0.15213187969E+03  0.74893478163E+02  0.67960378054E+03  0.70043874851E+03  0.00000000000E+00 0. -1.
</event>
<event>
 7    1  0.6253338E-006  0.5799769E+02  0.7818608E-02  0.1480450E+00
          2   -1    0    0  502    0  0.00000000000E+00  0.00000000000E+00  0.12297039086E+04  0.12297039086E+04  0.00000000000E+00 0. -1.
          1   -1    0    0  501    0 -0.00000000000E+00 -0.00000000000E+00 -0.25527035659E+03  0.25527035659E+03  0.00000000000E+00 0. -1.
         25    2    1    2    0    0 -0.12021578449E+02 -0.65489177131E+02 -0.11096717282E+03  0.17992286549E+03  0.12500069364E+03 0.  0.
          2    1    1    2  501    0 -0.19491069050E+02  0.54313949260E+02 -0.10199372598E+03  0.11718629184E+03  0.00000000000E+00 0. -1.
          1    1    1    2  502    0  0.31512647499E+02  0.11175227871E+02  0.11873944508E+04  0.11878651079E+04  0.00000000000E+00 0. -1.
         22    1    3    3    0    0 -0.42329904164E+02 -0.71281662895E+02 -0.12169872187E+03  0.14725309897E+03  0.00000000000E+00 0. -1.
         22    1    3    3    0    0  0.30308325714E+02  0.57924857635E+01  0.10731549052E+02  0.32669766513E+02  0.00000000000E+00 0. -1.
</event>
<event>
 7    1  0.6253338E-006  0.1707059E+03  0.7818608E-02  0.1223243E+00
          2   -1    0    0  502    0  0.00000000000E+00  0.00000000000E+00  0.44313896755E+03  0.44313896755E+03  0.00000000000E+00 0. -1.
          1   -1    0    0  501    0 -0.00000000000E+00 -0.00000000000E+00 -0.14114759002E+04  0.14114759002E+04  0.00000000000E+00 0. -1.
         25    2    1    2    0    0 -0.16751834755E+03 -0.59157860529E+02 -0.88661922876E+02  0.23462628282E+03  0.12500602704E+03 0.  0.
          2    1    1    2  501    0  0.64929727249E+02 -0.80518838044E+02 -0.12272515784E+04  0.12316028537E+04  0.00000000000E+00 0. -1.
          1    1    1    2  502    0  0.10258862030E+03  0.13967669857E+03  0.34757656860E+03  0.38838573117E+03  0.00000000000E+00 0. -1.
         22    1    3    3    0    0 -0.14528209391E+03 -0.67441787345E+02 -0.11649090999E+03  0.19805406737E+03  0.00000000000E+00 0.  1.
         22    1    3    3    0    0 -0.22236253636E+02  0.82839268153E+01  0.27828987116E+02  0.36572215453E+02  0.00000000000E+00 0.  1.
</event>
<event>
 7    1  0.6253338E-006  0.6599657E+02  0.7818608E-02  0.1381868E+00
          2   -1    0    0  502    0  0.00000000000E+00  0.00000000000E+00  0.37229101643E+03  0.37229101643E+03  0.00000000000E+00 0. -1.
          1   -1    0    0  501    0 -0.00000000000E+00 -0.00000000000E+00 -0.42184866404E+03  0.42184866404E+03  0.00000000000E+00 0. -1.
         25    2    1    2    0    0 -0.23890582692E+02 -0.67399847513E+01 -0.23280646492E+03  0.26540552005E+03  0.12500021052E+03 0.  0.
          2    1    1    2  501    0 -0.16634705280E+02  0.59743437435E+02 -0.16389547365E+03  0.17523617782E+03  0.00000000000E+00 0. -1.
          1    1    1    2  502    0  0.40525287972E+02 -0.53003452684E+02  0.34714429095E+03  0.35349798260E+03  0.00000000000E+00 0. -1.
         22    1    3    3    0    0 -0.61339268586E+02  0.22000901698E+02 -0.68895128755E+02  0.94831873926E+02  0.00000000000E+00 0.  1.
         22    1    3    3    0    0  0.37448685894E+02 -0.28740886449E+02 -0.16391133616E+03  0.17057364612E+03  0.00000000000E+00 0.  1.
</event>
<event>
 7    1  0.6253338E-006  0.5371549E+02  0.7818608E-02  0.1428894E+00
          2   -1    0    0  502    0  0.00000000000E+00  0.00000000000E+00  0.29598225898E+04  0.29598225898E+04  0.00000000000E+00 0. -1.
          1   -1    0    0  501    0 -0.00000000000E+00 -0.00000000000E+00 -0.95956155234E+02  0.95956155234E+02  0.00000000000E+00 0. -1.
         25    2    1    2    0    0 -0.15659024418E+02  0.70711552840E+02  0.10932482352E+03  0.18116986518E+03  0.12500109704E+03 0.  0.
          2    1    1    2  501    0 -0.30106492658E+02 -0.44671714889E+02 -0.47651568021E+02  0.71921032711E+02  0.00000000000E+00 0. -1.
          1    1    1    2  502    0  0.45765517076E+02 -0.26039837950E+02  0.28021931791E+04  0.28026878472E+04  0.00000000000E+00 0. -1.
         22    1    3    3    0    0  0.24986185098E+02  0.73669945145E+02  0.16119099650E+02  0.79444292665E+02  0.00000000000E+00 0. -1.
         22    1    3    3    0    0 -0.40645209516E+02 -0.29583923057E+01  0.93205723870E+02  0.10172557252E+03  0.00000000000E+00 0. -1.
</event>
<event>
 7    1  0.6253338E-006  0.9693954E+02  0.7818608E-02  0.1288196E+00
          2   -1    0    0  502    0  0.00000000000E+00  0.00000000000E+00  0.52504989065E+02  0.52504989065E+02  0.00000000000E+00 0. -1.
          1   -1    0    0  501    0 -0.00000000000E+00 -0.00000000000E+00 -0.91512471482E+03  0.91512471482E+03  0.00000000000E+00 0. -1.
         25    2    1    2    0    0 -0.53050553782E+02  0.29340611470E+02 -0.40155027110E+03  0.42490353001E+03  0.12500062741E+03 0.  0.
          2    1    1    2  501    0 -0.38063742981E+02 -0.89153947587E+02 -0.41190400693E+03  0.42315740077E+03  0.00000000000E+00 0. -1.
          1    1    1    2  502    0  0.91114296763E+02  0.59813336118E+02 -0.49165447719E+02  0.11956877310E+03  0.00000000000E+00 0. -1.
         22    1    3    3    0    0 -0.77461609646E+02  0.50453450297E+02 -0.19447894069E+03  0.21533209233E+03  0.00000000000E+00 0. -1.
         22    1    3    3    0    0  0.24411055864E+02 -0.21112838827E+02 -0.20707133041E+03  0.20957143768E+03  0.00000000000E+00 0. -1.
</event>
<event>
 7    1  0.6253338E-006  0.7106894E+02  0.7818608E-02  0.1444629E+00
          2   -1    0    0  502    0  0.00000000000E+00  0.00000000000E+00  0.31322136750E+03  0.31322136750E+03  0.00000000000E+00 0. -1.
          1   -1    0    0  501    0 -0.00000000000E+00 -0.00000000000E+00 -0.10697708906E+04  0.10697708906E+04  0.00000000000E+00 0. -1.
         25    2    1    2    0    0 -0.63560098420E+02  0.30204020734E+02 -0.31013253414E+03  0.34170333597E+03  0.12500724822E+03 0.  0.
          2    1    1    2  501    0  0.71894946514E+02  0.41632491269E+01 -0.74105011193E+03  0.74454112336E+03  0.00000000000E+00 0. -1.
          1    1    1    2  502    0 -0.83348480938E+01 -0.34367269861E+02  0.29463312296E+03  0.29674779877E+03  0.00000000000E+00 0. -1.
         22    1    3    3    0    0  0.84321467298E+01  0.38660314379E+02 -0.23109889417E+03  0.23446197963E+03  0.00000000000E+00 0.  1.
         22    1    3    3    0    0 -0.71992245150E+02 -0.84562936447E+01 -0.79033639969E+02  0.10724135635E+03  0.00000000000E+00 0.  1.
</event>
<event>
 7    1  0.6253338E-006  0.1808527E+03  0.7818608E-02  0.1343971E+00
          2   -1    0    0  502    0  0.00000000000E+00  0.00000000000E+00  0.96962796107E+03  0.96962796107E+03  0.00000000000E+00 0. -1.
          1   -1    0    0  501    0 -0.00000000000E+00 -0.00000000000E+00 -0.15323900558E+04  0.15323900558E+04  0.00000000000E+00 0. -1.
         25    2    1    2    0    0  0.16949468007E+02 -0.15371211627E+03 -0.14325630842E+03  0.24507616524E+03  0.12500103086E+03 0.  0.
          2    1    1    2  501    0 -0.12757153916E+02 -0.28336570705E+02 -0.13290171488E+04  0.13293804151E+04  0.00000000000E+00 0. -1.
          1    1    1    2  502    0 -0.41923140909E+01  0.18204868698E+03  0.90951136253E+03  0.92756143650E+03  0.00000000000E+00 0. -1.
         22    1    3    3    0    0  0.46808929051E+00 -0.95485672748E+02 -0.67110669205E+01  0.95722365343E+02  0.00000000000E+00 0. -1.
         22    1    3    3    0    0  0.16481378716E+02 -0.58226443523E+02 -0.13654524150E+03  0.14935379990E+03  0.00000000000E+00 0. -1.
</event>
<event>
 7    1  0.7083553E-006  0.8929894E+02  0.7818608E-02  0.1345078E+00
          2   -1    0    0  502    0  0.00000000000E+00  0.00000000000E+00  0.25677266382E+04  0.25677266382E+04  0.00000000000E+00 0. -1.
          1   -1    0    0  501    0 -0.00000000000E+00 -0.00000000000E+00 -0.22894129010E+04  0.22894129010E+04  0.00000000000E+00 0. -1.
         25    2    1    2    0    0 -0.63493049633E+02  0.88299094251E+02 -0.19093851203E+03  0.25280674882E+03  0.12500255789E+03 0.  0.
          2    1    1    2  501    0  0.11607621312E+01 -0.89276563891E+02 -0.20661930506E+04  0.20681212185E+04  0.00000000000E+00 0. -1.
          1    1    1    2  502    0  0.62332287501E+02  0.97746963963E+00  0.25354452997E+04  0.25362115719E+04  0.00000000000E+00 0. -1.
         22    1    3    3    0    0 -0.22429354361E+02 -0.24072164682E+02 -0.74097509581E+01  0.33726094627E+02  0.00000000000E+00 0.  1.
         22    1    3    3    0    0 -0.41063695272E+02  0.11237125893E+03 -0.18352876107E+03  0.21908065420E+03  0.00000000000E+00 0.  1.
</event>
<event>
 7    1  0.6253338E-006  0.2215299E+03  0.7818608E-02  0.1293391E+00
          2   -1    0    0  502    0  0.00000000000E+00  0.00000000000E+00  0.10965041748E+04  0.10965041748E+04  0.00000000000E+00 0. -1.
          1   -1    0    0  501    0 -0.00000000000E+00 -0.00000000000E+00 -0.30081448974E+04  0.30081448974E+04  0.00000000000E+00 0. -1.
         25    2    1    2    0    0  0.19761849272E+03 -0.13781655600E+02 -0.11487544815E+04  0.11723932384E+04  0.12500417541E+03 0.  0.
          2    1    1    2  501    0 -0.23502468761E+03  0.27683729845E+02 -0.18396219769E+04  0.18547808524E+04  0.00000000000E+00 0. -1.
          1    1    1    2  502    0  0.37406194884E+02 -0.13902074245E+02  0.10767357357E+04  0.10774749815E+04  0.00000000000E+00 0. -1.
         22    1    3    3    0    0  0.10047606372E+03  0.46570870290E+01 -0.88529101203E+03  0.89098670238E+03  0.00000000000E+00 0. -1.
         22    1    3    3    0    0  0.97142429001E+02 -0.18438742629E+02 -0.26346346950E+03  0.28140653600E+03  0.00000000000E+00 0. -1.
</event>
<event>
 7    1  0.6253338E-006  0.3100593E+02  0.7818608E-02  0.1621128E+00
          2   -1    0    0  502    0  0.00000000000E+00  0.00000000000E+00  0.40242673759E+03  0.40242673759E+03  0.00000000000E+00 0. -1.
          1   -1    0    0  501    0 -0.00000000000E+00 -0.00000000000E+00 -0.27614578572E+03  0.27614578572E+03  0.00000000000E+00 0. -1.
         25    2    1    2    0    0  0.13966216335E+02 -0.52114993593E+02  0.10024931616E+02  0.13651766850E+03  0.12500218719E+03 0.  0.
          2    1    1    2  501    0 -0.14903816316E+02  0.26819872892E+02 -0.21130310522E+03  0.21351915979E+03  0.00000000000E+00 0. -1.
          1    1    1    2  502    0  0.93759998163E+00  0.25295120701E+02  0.32755912547E+03  0.32853569502E+03  0.00000000000E+00 0. -1.
         22    1    3    3    0    0  0.13638321911E+01 -0.12851931178E+02  0.65854407537E+02  0.67110618871E+02  0.00000000000E+00 0. -1.
         22    1    3    3    0    0  0.12602384144E+02 -0.39263062414E+02 -0.55829475920E+02  0.69407049626E+02  0.00000000000E+00 0. -1.
</event>
<event>
 7    1  0.6253338E-006  0.1391536E+03  0.7818608E-02  0.1383810E+00
          2   -1    0    0  502    0  0.00000000000E+00  0.00000000000E+00  0.74474600908E+03  0.74474600908E+03  0.00000000000E+00 0. -1.
          1   -1    0    0  501    0 -0.00000000000E+00 -0.00000000000E+00 -0.91857783173E+03  0.91857783173E+03  0.00000000000E+00 0. -1.
         25    2    1    2    0    0 -0.41979813360E+02  0.10230327805E+03  0.45668670649E+03  0.48622727740E+03  0.12500380782E+03 0.  0.
          2    1    1    2  501    0  0.51116946241E+02 -0.12977580397E+03 -0.89763935635E+03  0.90841131408E+03  0.00000000000E+00 0. -1.
          1    1    1    2  502    0 -0.91371328812E+01  0.27472525918E+02  0.26712082721E+03  0.26868524933E+03  0.00000000000E+00 0. -1.
         22    1    3    3    0    0  0.35531351530E+02  0.21178393109E+02  0.22537065965E+03  0.22913519046E+03  0.00000000000E+00 0.  1.
         22    1    3    3    0    0 -0.77511164890E+02  0.81124884945E+02  0.23131604684E+03  0.25709208693E+03  0.00000000000E+00 0.  1.
</event>
<event>
 7    1  0.6253338E-006  0.1135136E+03  0.7818608E-02  0.1345285E+00
          2   -1    0    0  502    0  0.00000000000E+00  0.00000000000E+00  0.18978389144E+04  0.18978389144E+04  0.00000000000E+00 0. -1.
          1   -1    0    0  501    0 -0.00000000000E+00 -0.00000000000E+00 -0.59993955305E+02  0.59993955305E+02  0.00000000000E+00 0. -1.
         25    2    1    2    0    0  0.11929360115E+03 -0.88260974405E+02  0.57601511726E+03  0.60781489308E+03  0.12499826421E+03 0.  0.
          2    1    1    2  501    0 -0.19319538505E+02  0.44980874567E+02 -0.27462564027E+02  0.56131239678E+02  0.00000000000E+00 0. -1.
          1    1    1    2  502    0 -0.99974062641E+02  0.43280099838E+02  0.12892924059E+04  0.12938867370E+04  0.00000000000E+00 0. -1.
         22    1    3    3    0    0  0.11422861443E+03 -0.54259878139E+02  0.55093396030E+03  0.56526147873E+03  0.00000000000E+00 0. -1.
         22    1    3    3    0    0  0.50649867158E+01 -0.34001096266E+02  0.25081156961E+02  0.42553414343E+02  0.00000000000E+00 0. -1.
</event>
<event>
 7    1  0.6253338E-006  0.7636153E+02  0.7818608E-02  0.1414564E+00
          2   -1    0    0  502    0  0.00000000000E+00  0.00000000000E+00  0.14309752633E+04  0.14309752633E+04  0.00000000000E+00 0. -1.
          1   -1    0    0  501    0 -0.00000000000E+00 -0.00000000000E+00 -0.16983385653E+02  0.16983385653E+02  0.00000000000E+00 0. -1.
         25    2    1    2    0    0  0.10671134546E+03  0.88795556924E+01  0.78034197195E+03  0.79751486261E+03  0.12502081881E+03 0.  0.
          2    1    1    2  501    0 -0.67161749845E+02 -0.20926480944E+02  0.15742382753E+03  0.17242644728E+03  0.00000000000E+00 0. -1.
          1    1    1    2  502    0 -0.39549595614E+02  0.12046925251E+02  0.47622607816E+03  0.47801733906E+03  0.00000000000E+00 0. -1.
         22    1    3    3    0    0 -0.11413095598E+02 -0.32819970722E+02  0.10346997271E+03  0.10914872643E+03  0.00000000000E+00 0. -1.
         22    1    3    3    0    0  0.11812444106E+03  0.41699526414E+02  0.67687199925E+03  0.68836613618E+03  0.00000000000E+00 0. -1.
</event>
<event>
 7    1  0.6253338E-006  0.6896041E+02  0.7818608E-02  0.1453127E+00
          2   -1    0    0  502    0  0.00000000000E+00  0.00000000000E+00  0.92514405623E+03  0.92514405623E+03  0.00000000000E+00 0. -1.
          1   -1    0    0  501    0 -0.00000000000E+00 -0.00000000000E+00 -0.14185743607E+03  0.14185743607E+03  0.00000000000E+00 0. -1.
         25    2    1    2    0    0  0.55529348861E+02 -0.84113454069E+02  0.67974605679E+03  0.69845465047E+03  0.12500246120E+03 0.  0.
          2    1    1    2  501    0 -0.29494787328E+02  0.61890303997E+02 -0.12225769934E+03  0.14016881699E+03  0.00000000000E+00 0. -1.
          1    1    1    2  502    0 -0.26034561533E+02  0.22223150073E+02  0.22579826270E+03  0.22837802485E+03  0.00000000000E+00 0. -1.
         22    1    3    3    0    0  0.49616127534E+02 -0.11013867270E+03  0.63472344764E+03  0.64611619878E+03  0.00000000000E+00 0. -1.
         22    1    3    3    0    0  0.59132213269E+01  0.26025218632E+02  0.45022609142E+02  0.52338451690E+02  0.00000000000E+00 0. -1.
</event>
<event>
 7    1  0.6253338E-006  0.6711625E+02  0.7818608E-02  0.1387463E+00
          2   -1    0    0  502    0  0.00000000000E+00  0.00000000000E+00  0.74086659767E+03  0.74086659767E+03  0.00000000000E+00 0. -1.
          1   -1    0    0  501    0 -0.00000000000E+00 -0.00000000000E+00 -0.25970105931E+04  0.25970105931E+04  0.00000000000E+00 0. -1.
         25    2    1    2    0    0  0.33753050435E+02  0.56389850720E+02 -0.10098880521E+02  0.14163405185E+03  0.12505652153E+03 0.  0.
          2    1    1    2  501    0  0.24172353806E+02 -0.62806074455E+02 -0.25194361866E+04  0.25203348198E+04  0.00000000000E+00 0. -1.
          1    1    1    2  502    0 -0.57925404242E+02  0.64162237346E+01  0.67339107169E+03  0.67590831909E+03  0.00000000000E+00 0. -1.
         22    1    3    3    0    0  0.77227193906E+02  0.26216508040E+02 -0.27277425021E+02  0.85996527187E+02  0.00000000000E+00 0.  1.
         22    1    3    3    0    0 -0.43474143471E+02  0.30173342680E+02  0.17178544500E+02  0.55637524659E+02  0.00000000000E+00 0.  1.
</event>
<event>
 7    1  0.6253338E-006  0.1221232E+03  0.7818608E-02  0.1437250E+00
          2   -1    0    0  502    0  0.00000000000E+00  0.00000000000E+00  0.44523691344E+03  0.44523691344E+03  0.00000000000E+00 0. -1.
          1   -1    0    0  501    0 -0.00000000000E+00 -0.00000000000E+00 -0.10761799491E+04  0.10761799491E+04  0.00000000000E+00 0. -1.
         25    2    1    2    0    0 -0.13758949551E+03  0.23483277797E+02  0.10163809499E+03  0.21316083041E+03  0.12499961463E+03 0.  0.
          2    1    1    2  501    0  0.20306319337E+02 -0.77771454785E+01 -0.10081349853E+04  0.10083694656E+04  0.00000000000E+00 0. -1.
          1    1    1    2  502    0  0.11728317617E+03 -0.15706132318E+02  0.27555385461E+03  0.29988656655E+03  0.00000000000E+00 0. -1.
         22    1    3    3    0    0 -0.11659217845E+03  0.81631846252E+01  0.12991551080E+03  0.17475243519E+03  0.00000000000E+00 0.  1.
         22    1    3    3    0    0 -0.20997317054E+02  0.15320093171E+02 -0.28277415811E+02  0.38408395218E+02  0.00000000000E+00 0.  1.
</event>
<event>
 7    1  0.6253338E-006  0.3930586E+02  0.7818608E-02  0.1534339E+00
          2   -1    0    0  502    0  0.00000000000E+00  0.00000000000E+00  0.96900632769E+01  0.96900632769E+01  0.00000000000E+00 0. -1.
          1   -1    0    0  501    0 -0.00000000000E+00 -0.00000000000E+00 -0.18933299119E+04  0.18933299119E+04  0.00000000000E+00 0. -1.
         25    2    1    2    0    0  0.31476519141E+02  0.31288705251E+02 -0.13784208971E+04  0.13847883980E+04  0.12499993407E+03 0.  0.
          2    1    1    2  501    0  0.13021354947E+01 -0.41015360419E+02 -0.45852603670E+03  0.46035864462E+03  0.00000000000E+00 0. -1.
          1    1    1    2  502    0 -0.32778654635E+02  0.97266551683E+01 -0.46692914831E+02  0.57872932498E+02  0.00000000000E+00 0. -1.
         22    1    3    3    0    0  0.79749591489E+02  0.15786756435E+02 -0.78094842688E+03  0.78516855800E+03  0.00000000000E+00 0. -1.
         22    1    3    3    0    0 -0.48273072348E+02  0.15501948816E+02 -0.59747247019E+03  0.59961984004E+03  0.00000000000E+00 0. -1.
</event>
<event>
 7    1  0.6253338E-006  0.1538937E+03  0.7818608E-02  0.1246826E+00
          2   -1    0    0  502    0  0.00000000000E+00  0.00000000000E+00  0.73443358555E+03  0.73443358555E+03  0.00000000000E+00 0. -1.
          1   -1    0    0  501    0 -0.00000000000E+00 -0.00000000000E+00 -0.11479245592E+04  0.11479245592E+04  0.00000000000E+00 0. -1.
         25    2    1    2    0    0 -0.92028679152E+02 -0.80183162029E+02 -0.38573626556E+03  0.42344089967E+03  0.12494443438E+03 0.  0.
          2    1    1    2  501    0  0.63956783113E+02  0.16582195437E+03 -0.72979062981E+03  0.75112033258E+03  0.00000000000E+00 0. -1.
          1    1    1    2  502    0  0.28071896039E+02 -0.85638792343E+02  0.70203592167E+03  0.70779691255E+03  0.00000000000E+00 0. -1.
         22    1    3    3    0    0  0.74448057821E+01 -0.53282015879E+02 -0.54644397032E+02  0.76683821477E+02  0.00000000000E+00 0. -1.
         22    1    3    3    0    0 -0.99473484934E+02 -0.26901146149E+02 -0.33109186853E+03  0.34675707819E+03  0.00000000000E+00 0. -1.
</event>
<event>
 7    1  0.6253338E-006  0.8612069E+02  0.7818608E-02  0.1448896E+00
          2   -1    0    0  502    0  0.00000000000E+00  0.00000000000E+00  0.10066275425E+04  0.10066275425E+04  0.00000000000E+00 0. -1.
          1   -1    0    0  501    0 -0.00000000000E+00 -0.00000000000E+00 -0.13378117532E+04  0.13378117532E+04  0.00000000000E+00 0. -1.
         25    2    1    2    0    0 -0.17249626467E+02  0.62096687270E+02 -0.41170725113E+03  0.43506518042E+03  0.12500120959E+03 0.  0.
          2    1    1    2  501    0  0.11113687646E+02 -0.89698514256E+02 -0.91199023931E+03  0.91645814641E+03  0.00000000000E+00 0. -1.
          1    1    1    2  502    0  0.61359388215E+01  0.27601826986E+02  0.99251327983E+03  0.99291596887E+03  0.00000000000E+00 0. -1.
         22    1    3    3    0    0  0.19940673246E+02  0.85720246334E+02 -0.19523661741E+03  0.21415631641E+03  0.00000000000E+00 0.  1.
         22    1    3    3    0    0 -0.37190299713E+02 -0.23623559064E+02 -0.21647063372E+03  0.22090886401E+03  0.00000000000E+00 0.  1.
</event>
<event>
 7    1  0.6253338E-006  0.5787959E+02  0.7818608E-02  0.1438530E+00
          2   -1    0    0  502    0  0.00000000000E+00  0.00000000000E+00  0.10928124029E+04  0.10928124029E+04  0.00000000000E+00 0. -1.
          1   -1    0    0  501    0 -0.00000000000E+00 -0.00000000000E+00 -0.10035852856E+04  0.10035852856E+04  0.00000000000E+00 0. -1.
         25    2    1    2    0    0  0.65559124443E+02  0.75704982673E+02  0.11017371114E+01  0.16017447416E+03  0.12500162058E+03 0.  0.
          2    1    1    2  501    0 -0.19846207320E+02 -0.40879512039E+02 -0.92267359743E+03  0.92379195377E+03  0.00000000000E+00 0. -1.
          1    1    1    2  502    0 -0.45712917123E+02 -0.34825470634E+02  0.10107989777E+04  0.10124312606E+04  0.00000000000E+00 0. -1.
         22    1    3    3    0    0 -0.98139651599E+01 -0.24894918564E+02 -0.19074270171E+02  0.32861811651E+02  0.00000000000E+00 0.  1.
         22    1    3    3    0    0  0.75373089603E+02  0.10059990124E+03  0.20176007282E+02  0.12731266251E+03  0.00000000000E+00 0.  1.
</event>
<event>
 7    1  0.6253338E-006  0.1009397E+03  0.7818608E-02  0.1289219E+00
          2   -1    0    0  502    0  0.00000000000E+00  0.00000000000E+00  0.15927554276E+03  0.15927554276E+03  0.00000000000E+00 0. -1.
          1   -1    0    0  501    0 -0.00000000000E+00 -0.00000000000E+00 -0.24769072128E+04  0.24769072128E+04  0.00000000000E+00 0. -1.
         25    2    1    2    0    0 -0.14153307017E+03  0.98331047033E+01 -0.14419526495E+03  0.23779164736E+03  0.12499717285E+03 0.  0.
          2    1    1    2  501    0  0.69524769800E+02  0.58812206231E+02 -0.22628187711E+04  0.22646503837E+04  0.00000000000E+00 0. -1.
          1    1    1    2  502    0  0.72008300370E+02 -0.68645310935E+02  0.89382366059E+02  0.13374072453E+03  0.00000000000E+00 0. -1.
         22    1    3    3    0    0 -0.15712232002E+03  0.26751541788E+01 -0.15228380569E+03  0.21882627212E+03  0.00000000000E+00 0.  1.
         22    1    3    3    0    0  0.15589249846E+02  0.71579505246E+01  0.80885407410E+01  0.18965375235E+02  0.00000000000E+00 0.  1.
</event>
<event>
 7    1  0.6253338E-006  0.2795258E+03  0.7818608E-02  0.1217847E+00
          2   -1    0    0  502    0  0.00000000000E+00  0.00000000000E+00  0.19000832943E+03  0.19000832943E+03  0.00000000000E+00 0. -1.
          1   -1    0    0  501    0 -0.00000000000E+00 -0.00000000000E+00 -0.15343595964E+04  0.15343595964E+04  0.00000000000E+00 0. -1.
         25    2    1    2    0    0  0.30750369096E+02  0.22991615602E+03 -0.71869534617E+03  0.76547607332E+03  0.12499437675E+03 0.  0.
          2    1    1    2  501    0  0.47310976502E+02  0.47225270180E+02 -0.66494651973E+03  0.66829815857E+03  0.00000000000E+00 0. -1.
          1    1    1    2  502    0 -0.78061345599E+02 -0.27714142620E+03  0.39290598930E+02  0.29059369394E+03  0.00000000000E+00 0. -1.
         22    1    3    3    0    0 -0.35685572437E+02  0.17296168220E+02 -0.13559471060E+03  0.14127470778E+03  0.00000000000E+00 0.  1.
         22    1    3    3    0    0  0.66435941533E+02  0.21261998780E+03 -0.58310063557E+03  0.62420136554E+03  0.00000000000E+00 0.  1.
</event>
<event>
 7    1  0.6253338E-006  0.2505020E+03  0.7818608E-02  0.1297711E+00
          2   -1    0    0  502    0  0.00000000000E+00  0.00000000000E+00  0.18276424552E+04  0.18276424552E+04  0.00000000000E+00 0. -1.
          1   -1    0    0  501    0 -0.00000000000E+00 -0.00000000000E+00 -0.61258479742E+03  0.61258479742E+03  0.00000000000E+00 0. -1.
         25    2    1    2    0    0 -0.15961547805E+03  0.21511770707E+03  0.33913918008E+03  0.44988148273E+03  0.12500094524E+03 0.  0.
          2    1    1    2  501    0  0.16968914295E+03 -0.18274549582E+03 -0.52909653950E+03  0.58492176365E+03  0.00000000000E+00 0. -1.
          1    1    1    2  502    0 -0.10073664897E+02 -0.32372211244E+02  0.14050150172E+04  0.14054240063E+04  0.00000000000E+00 0. -1.
         22    1    3    3    0    0  0.45491614736E+01 -0.11583342556E+02  0.36588055295E+01  0.12971335814E+02  0.00000000000E+00 0.  1.
         22    1    3    3    0    0 -0.16416463952E+03  0.22670104963E+03  0.33548037455E+03  0.43691014692E+03  0.00000000000E+00 0.  1.
</event>
<event>
 7    1  0.6253338E-006  0.2312541E+03  0.7818608E-02  0.1312423E+00
          2   -1    0    0  502    0  0.00000000000E+00  0.00000000000E+00  0.64901036692E+02  0.64901036692E+02  0.00000000000E+00 0. -1.
          1   -1    0    0  501    0 -0.00000000000E+00 -0.00000000000E+00 -0.16574212924E+04  0.16574212924E+04  0.00000000000E+00 0. -1.
         25    2    1    2    0    0 -0.13820915795E+03 -0.19351332089E+03 -0.70070820515E+03  0.75044389927E+03  0.12499952194E+03 0.  0.
          2    1    1    2  501    0  0.10713359691E+03  0.20156747819E+03 -0.90776847480E+03  0.93602919810E+03  0.00000000000E+00 0. -1.
          1    1    1    2  502    0  0.31075561039E+02 -0.80541572998E+01  0.15956424211E+02  0.35849231753E+02  0.00000000000E+00 0. -1.
         22    1    3    3    0    0  0.12551825229E+02  0.91097971246E+01 -0.30233312876E+02  0.33979257315E+02  0.00000000000E+00 0. -1.
         22    1    3    3    0    0 -0.15076098318E+03 -0.20262311802E+03 -0.67047489227E+03  0.71646464196E+03  0.00000000000E+00 0. -1.
</event>
<event>
 7    1  0.6253338E-006  0.9674023E+02  0.7818608E-02  0.1408775E+00
          2   -1    0    0  502    0  0.00000000000E+00  0.00000000000E+00  0.19608481312E+03  0.19608481312E+03  0.00000000000E+00 0. -1.
          1   -1    0    0  501    0 -0.00000000000E+00 -0.00000000000E+00 -0.70563324444E+03  0.70563324444E+03  0.00000000000E+00 0. -1.
         25    2    1    2    0    0 -0.59910794391E+02  0.37115240651E+02 -0.43362751534E+01  0.14356203983E+03  0.12499764647E+03 0.  0.
          2    1    1    2  501    0 -0.31004588155E+02  0.14288653019E+02 -0.60956270735E+03  0.61051793118E+03  0.00000000000E+00 0. -1.
          1    1    1    2  502    0  0.90915382546E+02 -0.51403893669E+02  0.10435055119E+03  0.14763808655E+03  0.00000000000E+00 0. -1.
         22    1    3    3    0    0 -0.56558041152E+02  0.62025702442E+02  0.39701652031E+02  0.92855915032E+02  0.00000000000E+00 0. -1.
         22    1    3    3    0    0 -0.33527532387E+01 -0.24910461791E+02 -0.44037927184E+02  0.50706124794E+02  0.00000000000E+00 0. -1.
</event>
<event>
 7    1  0.6253338E-006  0.1115253E+03  0.7818608E-02  0.1278568E+00
          2   -1    0    0  502    0  0.00000000000E+00  0.00000000000E+00  0.59810932708E+03  0.59810932708E+03  0.00000000000E+00 0. -1.
          1   -1    0    0  501    0 -0.00000000000E+00 -0.00000000000E+00 -0.96564777132E+03  0.96564777132E+03  0.00000000000E+00 0. -1.
         25    2    1    2    0    0  0.13250546664E+03  0.94153612836E+01  0.14019982432E+03  0.23005817592E+03  0.12499770338E+03 0.  0.
          2    1    1    2  501    0 -0.76588584209E+02 -0.81402967432E+02 -0.91223608740E+03  0.91905763339E+03  0.00000000000E+00 0. -1.
          1    1    1    2  502    0 -0.55916882430E+02  0.71987606148E+02  0.40449781884E+03  0.41464128910E+03  0.00000000000E+00 0. -1.
         22    1    3    3    0    0  0.13577860685E+03 -0.19011957759E+02  0.14661603797E+03  0.20073252653E+03  0.00000000000E+00 0.  1.
         22    1    3    3    0    0 -0.32731402090E+01  0.28427319042E+02 -0.64162136493E+01  0.29325649393E+02  0.00000000000E+00 0.  1.
</event>
<event>
 7    1  0.6253338E-006  0.1505786E+03  0.7818608E-02  0.1362119E+00
          2   -1    0    0  502    0  0.00000000000E+00  0.00000000000E+00  0.63709651573E+03  0.63709651573E+03  0.00000000000E+00 0. -1.
          1   -1    0    0  501    0 -0.00000000000E+00 -0.00000000000E+00 -0.31148637442E+03  0.31148637442E+03  0.00000000000E+00 0. -1.
         25    2    1    2    0    0  0.40408231523E+02 -0.16663517700E+03  0.29346387054E+03  0.36214085138E+03  0.12499938214E+03 0.  0.
          2    1    1    2  501    0 -0.13882761522E+02  0.14874860021E+03 -0.25606562948E+03  0.29645991927E+03  0.00000000000E+00 0. -1.
          1    1    1    2  502    0 -0.26525470001E+02  0.17886576792E+02  0.28821190025E+03  0.28998211951E+03  0.00000000000E+00 0. -1.
         22    1    3    3    0    0 -0.31129917960E+02 -0.32575834615E+02  0.20004178027E+02  0.49299329931E+02  0.00000000000E+00 0.  1.
         22    1    3    3    0    0  0.71538149483E+02 -0.13405934238E+03  0.27345969251E+03  0.31284152145E+03  0.00000000000E+00 0.  1.
</event>
<event>
 7    1  0.6253338E-006  0.3594511E+02  0.7818608E-02  0.1612223E+00
          2   -1    0    0  502    0  0.00000000000E+00  0.00000000000E+00  0.92621454766E+02  0.92621454766E+02  0.00000000000E+00 0. -1.
          1   -1    0    0  501    0 -0.00000000000E+00 -0.00000000000E+00 -0.83219651239E+03  0.83219651239E+03  0.00000000000E+00 0. -1.
         25    2    1    2    0    0 -0.12872218492E+02  0.30360333125E+01 -0.39100226125E+03  0.41070946831E+03  0.12499835018E+03 0.  0.
          2    1    1    2  501    0 -0.22877977692E+02  0.24608830377E+01 -0.42706439607E+03  0.42768382738E+03  0.00000000000E+00 0. -1.
          1    1    1    2  502    0  0.35750196184E+02 -0.54969163502E+01  0.78491599695E+02  0.86424671473E+02  0.00000000000E+00 0. -1.
         22    1    3    3    0    0  0.63681269003E+01 -0.45230807510E+02 -0.58742907237E+02  0.74411747317E+02  0.00000000000E+00 0.  1.
         22    1    3    3    0    0 -0.19240345392E+02  0.48266840822E+02 -0.33225935401E+03  0.33629772099E+03  0.00000000000E+00 0.  1.
</event>
<event>
 7    1  0.6253338E-006  0.2991642E+03  0.7818608E-02  0.1239975E+00
          2   -1    0    0  502    0  0.00000000000E+00  0.00000000000E+00  0.17119087451E+03  0.17119087451E+03  0.00000000000E+00 0. -1.
          1   -1    0    0  501    0 -0.00000000000E+00 -0.00000000000E+00 -0.17697152293E+04  0.17697152293E+04  0.00000000000E+00 0. -1.
         25    2    1    2    0    0  0.10325970580E+03  0.24593574254E+03 -0.80599005581E+03  0.85813795806E+03  0.12503530979E+03 0.  0.
          2    1    1    2  501    0  0.44747100956E+02  0.21583560803E+02 -0.77493849167E+03  0.77652934201E+03  0.00000000000E+00 0. -1.
          1    1    1    2  502    0 -0.14800680675E+03 -0.26751930334E+03 -0.17595807350E+02  0.30623880378E+03  0.00000000000E+00 0. -1.
         22    1    3    3    0    0  0.11328214412E+03  0.11937781712E+03 -0.39274628767E+03  0.42583277689E+03  0.00000000000E+00 0.  1.
         22    1    3    3    0    0 -0.10022438322E+02  0.12655792541E+03 -0.41324376814E+03  0.43230518117E+03  0.00000000000E+00 0.  1.
</event>
<event>
 7    1  0.6253338E-006  0.5086523E+02  0.7818608E-02  0.1568139E+00
          2   -1    0    0  502    0  0.00000000000E+00  0.00000000000E+00  0.22023305193E+03  0.22023305193E+03  0.00000000000E+00 0. -1.
          1   -1    0    0  501    0 -0.00000000000E+00 -0.00000000000E+00 -0.83356352145E+03  0.83356352145E+03  0.00000000000E+00 0. -1.
         25    2    1    2    0    0 -0.12440113227E+01  0.29883222547E+02  0.18238311052E+02  0.12981320645E+03  0.12499711206E+03 0.  0.
          2    1    1    2  501    0  0.44972305309E+01 -0.50905198519E+02 -0.77615758524E+03  0.77783813319E+03  0.00000000000E+00 0. -1.
          1    1    1    2  502    0 -0.32532192082E+01  0.21021975972E+02  0.14458880467E+03  0.14614523374E+03  0.00000000000E+00 0. -1.
         22    1    3    3    0    0  0.14275886978E+02  0.51506569766E+02  0.59960352825E+02  0.80324165660E+02  0.00000000000E+00 0.  1.
         22    1    3    3    0    0 -0.15519898301E+02 -0.21623347219E+02 -0.41722041773E+02  0.49489040787E+02  0.00000000000E+00 0.  1.
</event>
<event>
 7    1  0.6253338E-006  0.1365440E+03  0.7818608E-02  0.1245352E+00
          2   -1    0    0  502    0  0.00000000000E+00  0.00000000000E+00  0.71595285148E+03  0.71595285148E+03  0.00000000000E+00 0. -1.
          1   -1    0    0  501    0 -0.00000000000E+00 -0.00000000000E+00 -0.30028536956E+04  0.30028536956E+04  0.00000000000E+00 0. -1.
         25    2    1    2    0    0 -0.84201662515E+02  0.19914214033E+03 -0.19656486121E+03  0.31782104699E+03  0.12499984490E+03 0.  0.
          2    1    1    2  501    0  0.37325279461E+01 -0.13470449174E+03 -0.27399402870E+04  0.27432520861E+04  0.00000000000E+00 0. -1.
          1    1    1    2  502    0  0.80469134569E+02 -0.64437648585E+02  0.64960430399E+03  0.65773341403E+03  0.00000000000E+00 0. -1.
         22    1    3    3    0    0 -0.21896246836E+02  0.76350262964E+01  0.13486085819E+02  0.26825617658E+02  0.00000000000E+00 0. -1.
         22    1    3    3    0    0 -0.62305415679E+02  0.19150711403E+03 -0.21005094702E+03  0.29099542933E+03  0.00000000000E+00 0. -1.
</event>
<event>
 7    1  0.6253338E-006  0.1063282E+03  0.7818608E-02  0.1290115E+00
          2   -1    0    0  502    0  0.00000000000E+00  0.00000000000E+00  0.32003133257E+03  0.32003133257E+03  0.00000000000E+00 0. -1.
          1   -1    0    0  501    0 -0.00000000000E+00 -0.00000000000E+00 -0.24925913212E+03  0.24925913212E+03  0.00000000000E+00 0. -1.
         25    2    1    2    0    0  0.45642660475E+02  0.31156216670E+02  0.14313361490E+03  0.19790521549E+03  0.12500112125E+03 0.  0.
          2    1    1    2  501    0 -0.15727616173E+02  0.10515857105E+03 -0.17038583585E+03  0.20084077284E+03  0.00000000000E+00 0. -1.
          1    1    1    2  502    0 -0.29915044302E+02 -0.13631478772E+03  0.98024421399E+02  0.17054447636E+03  0.00000000000E+00 0. -1.
         22    1    3    3    0    0  0.69308555035E+02  0.46113821619E+02  0.42537250224E+02  0.93485710148E+02  0.00000000000E+00 0. -1.
         22    1    3    3    0    0 -0.23665894560E+02 -0.14957604949E+02  0.10059636467E+03  0.10441950534E+03  0.00000000000E+00 0. -1.
</event>
<event>
 7    1  0.6253338E-006  0.8010007E+02  0.7818608E-02  0.1364780E+00
          2   -1    0    0  502    0  0.00000000000E+00  0.00000000000E+00  0.10443447655E+03  0.10443447655E+03  0.00000000000E+00 0. -1.
          1   -1    0    0  501    0 -0.00000000000E+00 -0.00000000000E+00 -0.10259826408E+04  0.10259826408E+04  0.00000000000E+00 0. -1.
         25    2    1    2    0    0  0.11529748743E+03 -0.17313517668E+02 -0.33216064306E+01  0.17096855856E+03  0.12500378571E+03 0.  0.
          2    1    1    2  501    0 -0.54443062498E+02  0.22264104007E+02 -0.89041763260E+03  0.89235827884E+03  0.00000000000E+00 0. -1.
          1    1    1    2  502    0 -0.60854424936E+02 -0.49505863386E+01 -0.27808925179E+02  0.67090279915E+02  0.00000000000E+00 0. -1.
         22    1    3    3    0    0  0.10754127049E+03 -0.26908069225E+02 -0.50779439577E+02  0.12193326262E+03  0.00000000000E+00 0. -1.
         22    1    3    3    0    0  0.77562169413E+01  0.95945515570E+01  0.47457833146E+02  0.49035295938E+02  0.00000000000E+00 0. -1.
</event>
<event>
 7    1  0.6253338E-006  0.1028367E+03  0.7818608E-02  0.1286305E+00
          2   -1    0    0  502    0  0.00000000000E+00  0.00000000000E+00  0.65672750222E+03  0.65672750222E+03  0.00000000000E+00 0. -1.
          1   -1    0    0  501    0 -0.00000000000E+00 -0.00000000000E+00 -0.10441219242E+04  0.10441219242E+04  0.00000000000E+00 0. -1.
         25    2    1    2    0    0  0.12691802021E+03 -0.35965849438E+02 -0.25089913653E+03  0.30980894335E+03  0.12501791267E+03 0.  0.
          2    1    1    2  501    0 -0.91084626521E+02 -0.48621980830E+02 -0.75688059446E+03  0.76389052912E+03  0.00000000000E+00 0. -1.
          1    1    1    2  502    0 -0.35833393685E+02  0.84587830268E+02  0.62038530900E+03  0.62714995396E+03  0.00000000000E+00 0. -1.
         22    1    3    3    0    0  0.77970873755E+02 -0.19387688966E+02 -0.34698189007E+02  0.87517449448E+02  0.00000000000E+00 0. -1.
         22    1    3    3    0    0  0.48947146452E+02 -0.16578160472E+02 -0.21620094753E+03  0.22229149390E+03  0.00000000000E+00 0. -1.
</event>
<event>
 7    1  0.6253338E-006  0.2344432E+03  0.7818608E-02  0.1254627E+00
          2   -1    0    0  502    0  0.00000000000E+00  0.00000000000E+00  0.52667060616E+03  0.52667060616E+03  0.00000000000E+00 0. -1.
          1   -1    0    0  501    0 -0.00000000000E+00 -0.00000000000E+00 -0.39619908990E+04  0.39619908990E+04  0.00000000000E+00 0. -1.
         25    2    1    2    0    0  0.33344184989E+02  0.18101453475E+03 -0.22852773993E+03  0.31894883550E+03  0.12500134115E+03 0.  0.
          2    1    1    2  501    0 -0.45495552429E+02 -0.23437672777E+03 -0.36828193483E+04  0.36905501823E+04  0.00000000000E+00 0. -1.
          1    1    1    2  502    0  0.12151367440E+02  0.53362193029E+02  0.47602679539E+03  0.47916248737E+03  0.00000000000E+00 0. -1.
         22    1    3    3    0    0 -0.16278481810E+01  0.91999482028E+02 -0.19836455823E+03  0.21866653275E+03  0.00000000000E+00 0. -1.
         22    1    3    3    0    0  0.34972033170E+02  0.89015052717E+02 -0.30163181695E+02  0.10028230275E+03  0.00000000000E+00 0. -1.
</event>
<event>
 7    1  0.6253338E-006  0.8717722E+02  0.7818608E-02  0.1398366E+00
          2   -1    0    0  502    0  0.00000000000E+00  0.00000000000E+00  0.11408611377E+04  0.11408611377E+04  0.00000000000E+00 0. -1.
          1   -1    0    0  501    0 -0.00000000000E+00 -0.00000000000E+00 -0.36136120968E+03  0.36136120968E+03  0.00000000000E+00 0. -1.
         25    2    1    2    0    0 -0.14838512915E+02  0.85654221932E+02 -0.85111459409E+02  0.17443107566E+03  0.12500164972E+03 0.  0.
          2    1    1    2  501    0  0.53262086084E+02 -0.71007859840E+02 -0.22268170214E+03  0.23972089279E+03  0.00000000000E+00 0. -1.
          1    1    1    2  502    0 -0.38423573169E+02 -0.14646362092E+02  0.10872930895E+04  0.10880703789E+04  0.00000000000E+00 0. -1.
         22    1    3    3    0    0  0.26362543825E+02  0.10389146785E+03 -0.61079821941E+02  0.12336598176E+03  0.00000000000E+00 0.  1.
         22    1    3    3    0    0 -0.41201056740E+02 -0.18237245913E+02 -0.24031637468E+02  0.51065093894E+02  0.00000000000E+00 0.  1.
</event>
<event>
 7    1  0.6253338E-006  0.7021518E+02  0.7818608E-02  0.1387677E+00
          2   -1    0    0  502    0  0.00000000000E+00  0.00000000000E+00  0.10096304504E+04  0.10096304504E+04  0.00000000000E+00 0. -1.
          1   -1    0    0  501    0 -0.00000000000E+00 -0.00000000000E+00 -0.22148960560E+04  0.22148960560E+04  0.00000000000E+00 0. -1.
         25    2    1    2    0    0  0.33590923326E+02  0.10932947114E+03  0.27907366944E+03  0.32647855139E+03  0.12499939261E+03 0.  0.
          2    1    1    2  501    0  0.68999681218E+01 -0.55182013913E+02 -0.21892228625E+04  0.21899290870E+04  0.00000000000E+00 0. -1.
          1    1    1    2  502    0 -0.40490891448E+02 -0.54147457232E+02  0.70488358741E+03  0.70811886800E+03  0.00000000000E+00 0. -1.
         22    1    3    3    0    0  0.89122392553E+01  0.15599962667E+02 -0.10709401516E+02  0.20915977734E+02  0.00000000000E+00 0. -1.
         22    1    3    3    0    0  0.24678684071E+02  0.93729508478E+02  0.28978307096E+03  0.30556257366E+03  0.00000000000E+00 0. -1.
</event>
<event>
 7    1  0.6253338E-006  0.2219126E+03  0.7818608E-02  0.1192910E+00
          2   -1    0    0  502    0  0.00000000000E+00  0.00000000000E+00  0.90726130912E+03  0.90726130912E+03  0.00000000000E+00 0. -1.
          1   -1    0    0  501    0 -0.00000000000E+00 -0.00000000000E+00 -0.50216258868E+03  0.50216258868E+03  0.00000000000E+00 0. -1.
         25    2    1    2    0    0 -0.18072951923E+03  0.18247785914E+03  0.59020568225E+03  0.65569030739E+03  0.12500281456E+03 0.  0.
          2    1    1    2  501    0  0.20804152425E+03 -0.75796738976E+02 -0.43086639799E+03  0.48442984463E+03  0.00000000000E+00 0. -1.
          1    1    1    2  502    0 -0.27312005022E+02 -0.10668112016E+03  0.24575943619E+03  0.26930374578E+03  0.00000000000E+00 0. -1.
         22    1    3    3    0    0 -0.11735185441E+03  0.17697242679E+03  0.37133803883E+03  0.42776469777E+03  0.00000000000E+00 0.  1.
         22    1    3    3    0    0 -0.63377664818E+02  0.55054323462E+01  0.21886764341E+03  0.22792560961E+03  0.00000000000E+00 0.  1.
</event>
<event>
 7    1  0.6253338E-006  0.1263064E+03  0.7818608E-02  0.1269141E+00
          2   -1    0    0  502    0  0.00000000000E+00  0.00000000000E+00  0.27028789301E+03  0.27028789301E+03  0.00000000000E+00 0. -1.
          1   -1    0    0  501    0 -0.00000000000E+00 -0.00000000000E+00 -0.22047760885E+04  0.22047760885E+04  0.00000000000E+00 0. -1.
         25    2    1    2    0    0 -0.11701034305E+03  0.11998889163E+03 -0.30540441558E+03  0.37011045879E+03  0.12498455967E+03 0.  0.
          2    1    1    2  501    0  0.28907789326E+02 -0.12166632720E+03 -0.18566839739E+04  0.18608905757E+04  0.00000000000E+00 0. -1.
          1    1    1    2  502    0  0.88102553726E+02  0.16774355730E+01  0.22760019408E+03  0.24406294702E+03  0.00000000000E+00 0. -1.
         22    1    3    3    0    0 -0.88378123435E+02  0.39590044612E+01 -0.14882604820E+03  0.17313451141E+03  0.00000000000E+00 0. -1.
         22    1    3    3    0    0 -0.28632219618E+02  0.11602988717E+03 -0.15657836738E+03  0.19697594738E+03  0.00000000000E+00 0. -1.
</event>
<event>
 7    1  0.6253338E-006  0.1311427E+03  0.7818608E-02  0.1250833E+00
          2   -1    0    0  502    0  0.00000000000E+00  0.00000000000E+00  0.34390826309E+03  0.34390826309E+03  0.00000000000E+00 0. -1.
          1   -1    0    0  501    0 -0.00000000000E+00 -0.00000000000E+00 -0.76986440122E+03  0.76986440122E+03  0.00000000000E+00 0. -1.
         25    2    1    2    0    0  0.14262468468E+03 -0.69906624664E+02 -0.32418471151E+03  0.38203461113E+03  0.12500392021E+03 0.  0.
          2    1    1    2  501    0 -0.14809092631E+02  0.10051421228E+03 -0.39635279438E+03  0.40916739081E+03  0.00000000000E+00 0. -1.
          1    1    1    2  502    0 -0.12781559205E+03 -0.30607587614E+02  0.29458136776E+03  0.32257066237E+03  0.00000000000E+00 0. -1.
         22    1    3    3    0    0  0.12919536572E+03 -0.26998600264E+02 -0.13985668715E+03  0.19230252177E+03  0.00000000000E+00 0. -1.
         22    1    3    3    0    0  0.13429318960E+02 -0.42908024400E+02 -0.18432802436E+03  0.18973208935E+03  0.00000000000E+00 0. -1.
</event>
<event>
 7    1  0.6253338E-006  0.2839953E+02  0.7818608E-02  0.1655652E+00
          2   -1    0    0  502    0  0.00000000000E+00  0.00000000000E+00  0.12447386907E+03  0.12447386907E+03  0.00000000000E+00 0. -1.
          1   -1    0    0  501    0 -0.00000000000E+00 -0.00000000000E+00 -0.21887048914E+03  0.21887048914E+03  0.00000000000E+00 0. -1.
         25    2    1    2    0    0  0.44274125365E+02 -0.11920541857E+02 -0.95016981646E+02  0.16357073156E+03  0.12499943971E+03 0.  0.
          2    1    1    2  501    0 -0.22049478258E+02  0.16418519738E+02 -0.85972644725E+02  0.90260971205E+02  0.00000000000E+00 0. -1.
          1    1    1    2  502    0 -0.22224647107E+02 -0.44979778810E+01  0.86593006296E+02  0.89512655437E+02  0.00000000000E+00 0. -1.
         22    1    3    3    0    0  0.78620949481E+01 -0.27935144111E+01 -0.11882590036E+03  0.11911847403E+03  0.00000000000E+00 0.  1.
         22    1    3    3    0    0  0.36412030417E+02 -0.91270274458E+01  0.23808918715E+02  0.44452257529E+02  0.00000000000E+00 0.  1.
</event>
<event>
 7    1  0.6253338E-006  0.7834552E+02  0.7818608E-02  0.1375212E+00
          2   -1    0    0  502    0  0.00000000000E+00  0.00000000000E+00  0.26596170072E+03  0.26596170072E+03  0.00000000000E+00 0. -1.
          1   -1    0    0  501    0 -0.00000000000E+00 -0.00000000000E+00 -0.28303307098E+04  0.28303307098E+04  0.00000000000E+00 0. -1.
         25    2    1    2    0    0  0.24953067736E+02 -0.59359145035E+02  0.11977989857E+03  0.18471251854E+03  0.12500130686E+03 0.  0.
          2    1    1    2  501    0 -0.72156324714E+02  0.30816881199E+02 -0.27905908777E+04  0.27916936906E+04  0.00000000000E+00 0. -1.
          1    1    1    2  502    0  0.47203256978E+02  0.28542263835E+02  0.10644197006E+03  0.11988620139E+03  0.00000000000E+00 0. -1.
         22    1    3    3    0    0 -0.50903120194E+02 -0.16950635215E+02  0.43244948604E+02  0.68909921343E+02  0.00000000000E+00 0. -1.
         22    1    3    3    0    0  0.75856187930E+02 -0.42408509820E+02  0.76534949964E+02  0.11580259720E+03  0.00000000000E+00 0. -1.
</event>
<event>
 7    1  0.6253338E-006  0.1280646E+03  0.7818608E-02  0.1381307E+00
          2   -1    0    0  502    0  0.00000000000E+00  0.00000000000E+00  0.23874793839E+03  0.23874793839E+03  0.00000000000E+00 0. -1.
          1   -1    0    0  501    0 -0.00000000000E+00 -0.00000000000E+00 -0.10840037739E+04  0.10840037739E+04  0.00000000000E+00 0. -1.
         25    2    1    2    0    0  0.99615993066E+02  0.27408629398E+02 -0.93533958754E+03  0.94929487884E+03  0.12500417567E+03 0.  0.
          2    1    1    2  501    0  0.16661241573E+02  0.27443702232E+02 -0.12161232068E+03  0.12577881501E+03  0.00000000000E+00 0. -1.
          1    1    1    2  502    0 -0.11627723464E+03 -0.54852331630E+02  0.21169607275E+03  0.24767801840E+03  0.00000000000E+00 0. -1.
         22    1    3    3    0    0  0.33518560018E+02 -0.39408823694E+02 -0.15707277505E+03  0.16537353450E+03  0.00000000000E+00 0.  1.
         22    1    3    3    0    0  0.66097433048E+02  0.66817453092E+02 -0.77826681248E+03  0.78392134434E+03  0.00000000000E+00 0.  1.
</event>
<event>
 7    1  0.6253338E-006  0.9397467E+02  0.7818608E-02  0.1325361E+00
          2   -1    0    0  502    0  0.00000000000E+00  0.00000000000E+00  0.33119896996E+03  0.33119896996E+03  0.00000000000E+00 0. -1.
          1   -1    0    0  501    0 -0.00000000000E+00 -0.00000000000E+00 -0.98616290644E+03  0.98616290644E+03  0.00000000000E+00 0. -1.
         25    2    1    2    0    0 -0.69806821829E+02  0.13307999837E+03  0.81012960200E+02  0.21159186819E+03  0.12499896248E+03 0.  0.
          2    1    1    2  501    0  0.12416816885E+02 -0.92373409067E+02 -0.91171666388E+03  0.91646838420E+03  0.00000000000E+00 0. -1.
          1    1    1    2  502    0  0.57390004944E+02 -0.40706589307E+02  0.17573976720E+03  0.18930162401E+03  0.00000000000E+00 0. -1.
         22    1    3    3    0    0 -0.85717066590E+02  0.62019026396E+02  0.89104364679E+02  0.13832339985E+03  0.00000000000E+00 0.  1.
         22    1    3    3    0    0  0.15910244761E+02  0.71060971978E+02 -0.80914044791E+01  0.73268468342E+02  0.00000000000E+00 0.  1.
</event>
<event>
 7    1  0.6253338E-006  0.7525347E+02  0.7818608E-02  0.1438946E+00
          2   -1    0    0  502    0  0.00000000000E+00  0.00000000000E+00  0.39289449657E+03  0.39289449657E+03  0.00000000000E+00 0. -1.
          1   -1    0    0  501    0 -0.00000000000E+00 -0.00000000000E+00 -0.53936917148E+03  0.53936917148E+03  0.00000000000E+00 0. -1.
         25    2    1    2    0    0  0.92398473847E+02 -0.14589849138E+02 -0.40261531525E+02  0.16123418709E+03  0.12500052199E+03 0.  0.
          2    1    1    2  501    0 -0.65145535666E+02  0.36298546132E+02 -0.43452291008E+03  0.44087604228E+03  0.00000000000E+00 0. -1.
          1    1    1    2  502    0 -0.27252938182E+02 -0.21708696994E+02  0.32830976670E+03  0.33015343868E+03  0.00000000000E+00 0. -1.
         22    1    3    3    0    0  0.11317991593E+02  0.93868743815E+01  0.41248749856E+02  0.43791205841E+02  0.00000000000E+00 0.  1.
         22    1    3    3    0    0  0.81080482254E+02 -0.23976723520E+02 -0.81510281381E+02  0.11744298125E+03  0.00000000000E+00 0.  1.
</event>
<event>
 7    1  0.6253338E-006  0.7439500E+02  0.7818608E-02  0.1347125E+00
          2   -1    0    0  502    0  0.00000000000E+00  0.00000000000E+00  0.16164917060E+04  0.16164917060E+04  0.00000000000E+00 0. -1.
          1   -1    0    0  501    0 -0.00000000000E+00 -0.00000000000E+00 -0.41081505334E+03  0.41081505334E+03  0.00000000000E+00 0. -1.
         25    2    1    2    0    0  0.92069049958E+02 -0.73342951185E+02 -0.36871957127E+02  0.17561378759E+03  0.12499905088E+03 0.  0.
          2    1    1    2  501    0 -0.17868991743E+02  0.71321143052E+02 -0.29922886763E+03  0.30812971544E+03  0.00000000000E+00 0. -1.
          1    1    1    2  502    0 -0.74200058215E+02  0.20218081331E+01  0.15417774775E+04  0.15435632563E+04  0.00000000000E+00 0. -1.
         22    1    3    3    0    0  0.21133817593E+02 -0.94778950227E+02 -0.14333759238E+02  0.98158770908E+02  0.00000000000E+00 0. -1.
         22    1    3    3    0    0  0.70935232365E+02  0.21435999043E+02 -0.22538197889E+02  0.77455016685E+02  0.00000000000E+00 0. -1.
</event>
<event>
 7    1  0.6253338E-006  0.1737782E+03  0.7818608E-02  0.1269812E+00
          2   -1    0    0  502    0  0.00000000000E+00  0.00000000000E+00  0.11276499074E+04  0.11276499074E+04  0.00000000000E+00 0. -1.
          1   -1    0    0  501    0 -0.00000000000E+00 -0.00000000000E+00 -0.15637306554E+03  0.15637306554E+03  0.00000000000E+00 0. -1.
         25    2    1    2    0    0  0.16275458599E+03  0.25392079807E+02  0.63621307009E+03  0.66897320346E+03  0.12499705362E+03 0.  0.
          2    1    1    2  501    0 -0.15174299195E+03 -0.88064188454E+02 -0.81643570621E+02  0.19351203972E+03  0.00000000000E+00 0. -1.
          1    1    1    2  502    0 -0.11011594044E+02  0.62672108647E+02  0.41670734243E+03  0.42153772980E+03  0.00000000000E+00 0. -1.
         22    1    3    3    0    0  0.82058430834E+02  0.74350372677E+02  0.38524058749E+03  0.40083896297E+03  0.00000000000E+00 0. -1.
         22    1    3    3    0    0  0.80696155159E+02 -0.48958292870E+02  0.25097248260E+03  0.26813424049E+03  0.00000000000E+00 0. -1.
</event>
<event>
 7    1  0.6253338E-006  0.9495999E+02  0.7818608E-02  0.1305813E+00
          2   -1    0    0  502    0  0.00000000000E+00  0.00000000000E+00  0.66263935555E+03  0.66263935555E+03  0.00000000000E+00 0. -1.
          1   -1    0    0  501    0 -0.00000000000E+00 -0.00000000000E+00 -0.14152356881E+03  0.14152356881E+03  0.00000000000E+00 0. -1.
         25    2    1    2    0    0 -0.41160877289E+02  0.20541550242E+01  0.11461556207E+03  0.17452766674E+03  0.12499896806E+03 0.  0.
          2    1    1    2  501    0  0.79212943910E+02  0.71728781890E+02 -0.81643952085E+02  0.13448213096E+03  0.00000000000E+00 0. -1.
          1    1    1    2  502    0 -0.38052066621E+02 -0.73782936914E+02  0.48814417675E+03  0.49515312667E+03  0.00000000000E+00 0. -1.
         22    1    3    3    0    0  0.28462672639E+02 -0.12511155690E+02  0.96131849494E+02  0.10103457447E+03  0.00000000000E+00 0.  1.
         22    1    3    3    0    0 -0.69623549928E+02  0.14565310714E+02  0.18483712577E+02  0.73493092269E+02  0.00000000000E+00 0.  1.
</event>
<event>
 7    1  0.6253338E-006  0.1741807E+03  0.7818608E-02  0.1382221E+00
          2   -1    0    0  502    0  0.00000000000E+00  0.00000000000E+00  0.20000732018E+03  0.20000732018E+03  0.00000000000E+00 0. -1.
          1   -1    0    0  501    0 -0.00000000000E+00 -0.00000000000E+00 -0.69697172726E+03  0.69697172726E+03  0.00000000000E+00 0. -1.
         25    2    1    2    0    0 -0.55818873727E+02 -0.18661355537E+03 -0.45073682021E+03  0.50668297484E+03  0.12499436066E+03 0.  0.
          2    1    1    2  501    0  0.44773126106E+00  0.23426066454E+02 -0.17412505990E+03  0.17569438676E+03  0.00000000000E+00 0. -1.
          1    1    1    2  502    0  0.55371142466E+02  0.16318748891E+03  0.12789747303E+03  0.21460168584E+03  0.00000000000E+00 0. -1.
         22    1    3    3    0    0 -0.87762205481E+02 -0.96275459340E+02 -0.31167811406E+03  0.33780825266E+03  0.00000000000E+00 0.  1.
         22    1    3    3    0    0  0.31943331754E+02 -0.90338096025E+02 -0.13905870615E+03  0.16887472219E+03  0.00000000000E+00 0.  1.
</event>
<event>
 7    1  0.6253338E-006  0.7050941E+02  0.7818608E-02  0.1492325E+00
          2   -1    0    0  502    0  0.00000000000E+00  0.00000000000E+00  0.19734933304E+04  0.19734933304E+04  0.00000000000E+00 0. -1.
          1   -1    0    0  501    0 -0.00000000000E+00 -0.00000000000E+00 -0.41685224309E+03  0.41685224309E+03  0.00000000000E+00 0. -1.
         25    2    1    2    0    0 -0.91045658056E+02 -0.28339373980E+02 -0.40524092060E+02  0.16235918493E+03  0.12500348365E+03 0.  0.
          2    1    1    2  501    0  0.24950714418E+02  0.42394261335E+01 -0.31425476043E+03  0.31527220832E+03  0.00000000000E+00 0. -1.
          1    1    1    2  502    0  0.66094943639E+02  0.24099947846E+02  0.19114199398E+04  0.19127141802E+04  0.00000000000E+00 0. -1.
         22    1    3    3    0    0 -0.48228349293E+02  0.32960942901E+02  0.24425096180E+02  0.63316528299E+02  0.00000000000E+00 0. -1.
         22    1    3    3    0    0 -0.42817308764E+02 -0.61300316881E+02 -0.64949188240E+02  0.99042656631E+02  0.00000000000E+00 0. -1.
</event>
<event>
 7    1  0.6253338E-006  0.6865061E+02  0.7818608E-02  0.1417579E+00
          2   -1    0    0  502    0  0.00000000000E+00  0.00000000000E+00  0.14653366716E+04  0.14653366716E+04  0.00000000000E+00 0. -1.
          1   -1    0    0  501    0 -0.00000000000E+00 -0.00000000000E+00 -0.43944515794E+02  0.43944515794E+02  0.00000000000E+00 0. -1.
         25    2    1    2    0    0 -0.14094043626E+02 -0.23195033485E+02  0.48636017987E+03  0.50289860677E+03  0.12499652989E+03 0.  0.
          2    1    1    2  501    0  0.44511196456E+02  0.56259802822E+02  0.14836894479E+01  0.71753838628E+02  0.00000000000E+00 0. -1.
          1    1    1    2  502    0 -0.30417152830E+02 -0.33064769337E+02  0.93354828650E+03  0.93462874201E+03  0.00000000000E+00 0. -1.
         22    1    3    3    0    0 -0.53426696035E+02 -0.19694872759E+02  0.43185318012E+03  0.43559094233E+03  0.00000000000E+00 0.  1.
         22    1    3    3    0    0  0.39332652409E+02 -0.35001607252E+01  0.54506999754E+02  0.67307664444E+02  0.00000000000E+00 0.  1.
</event>
<event>
 7    1  0.6253338E-006  0.4246008E+02  0.7818608E-02  0.1588841E+00
          2   -1    0    0  502    0  0.00000000000E+00  0.00000000000E+00  0.16050516987E+04  0.16050516987E+04  0.00000000000E+00 0. -1.
          1   -1    0    0  501    0 -0.00000000000E+00 -0.00000000000E+00 -0.20753451549E+03  0.20753451549E+03  0.00000000000E+00 0. -1.
         25    2    1    2    0    0 -0.38632444323E+02 -0.15190656239E+02  0.63467910143E+02  0.14620498066E+03  0.12499799582E+03 0.  0.
          2    1    1    2  501    0  0.26052874235E+02  0.33748622315E+02 -0.16334588516E+03  0.16881824535E+03  0.00000000000E+00 0. -1.
          1    1    1    2  502    0  0.12579570088E+02 -0.18557966076E+02  0.14973951582E+04  0.14975629881E+04  0.00000000000E+00 0. -1.
         22    1    3    3    0    0 -0.39580007158E+02 -0.41021207498E+02 -0.18759783680E+02  0.60010381726E+02  0.00000000000E+00 0.  1.
         22    1    3    3    0    0  0.94756283481E+00  0.25830551258E+02  0.82227693823E+02  0.86194598932E+02  0.00000000000E+00 0.  1.
</event>
<event>
 7    1  0.6253338E-006  0.2591118E+03  0.7818608E-02  0.1252642E+00
          2   -1    0    0  502    0  0.00000000000E+00  0.00000000000E+00  0.61787534277E+03  0.61787534277E+03  0.00000000000E+00 0. -1.
          1   -1    0    0  501    0 -0.00000000000E+00 -0.00000000000E+00 -0.10979363495E+04  0.10979363495E+04  0.00000000000E+00 0. -1.
         25    2    1    2    0    0  0.14549742765E+03  0.18107632556E+03 -0.12019688020E+03  0.28987935801E+03  0.12499846023E+03 0.  0.
          2    1    1    2  501    0 -0.19598217966E+03 -0.17970154430E+03 -0.87183262105E+03  0.91147889657E+03  0.00000000000E+00 0. -1.
          1    1    1    2  502    0  0.50484752005E+02 -0.13747812534E+01  0.51196849450E+03  0.51445343771E+03  0.00000000000E+00 0. -1.
         22    1    3    3    0    0  0.42869054118E+02  0.66391758210E+02 -0.11026253246E+03  0.13565930644E+03  0.00000000000E+00 0.  1.
         22    1    3    3    0    0  0.10262837353E+03  0.11468456735E+03 -0.99343477450E+01  0.15422005157E+03  0.00000000000E+00 0.  1.
</event>
<event>
 7    1  0.6253338E-006  0.2236003E+03  0.7818608E-02  0.1286283E+00
          2   -1    0    0  502    0  0.00000000000E+00  0.00000000000E+00  0.44424212289E+03  0.44424212289E+03  0.00000000000E+00 0. -1.
          1   -1    0    0  501    0 -0.00000000000E+00 -0.00000000000E+00 -0.26111400928E+03  0.26111400928E+03  0.00000000000E+00 0. -1.
         25    2    1    2    0    0 -0.13043645855E+03 -0.14573141117E+03  0.12761325432E+03  0.26487966429E+03  0.12499911983E+03 0.  0.
          2    1    1    2  501    0  0.16978593442E+03  0.16114018514E+03 -0.11782388460E+03  0.26206085281E+03  0.00000000000E+00 0. -1.
          1    1    1    2  502    0 -0.39349475872E+02 -0.15408773976E+02  0.17333874389E+03  0.17841561507E+03  0.00000000000E+00 0. -1.
         22    1    3    3    0    0 -0.14422650954E+03 -0.14735542422E+03  0.90358173482E+02  0.22512109323E+03  0.00000000000E+00 0.  1.
         22    1    3    3    0    0  0.13790050997E+02  0.16240130464E+01  0.37255080835E+02  0.39758571062E+02  0.00000000000E+00 0.  1.
</event>
<event>
 7    1  0.6253338E-006  0.1132882E+03  0.7818608E-02  0.1379534E+00
          2   -1    0    0  502    0  0.00000000000E+00  0.00000000000E+00  0.23329681500E+02  0.23329681500E+02  0.00000000000E+00 0. -1.
          1   -1    0    0  501    0 -0.00000000000E+00 -0.00000000000E+00 -0.12463607922E+04  0.12463607922E+04  0.00000000000E+00 0. -1.
         25    2    1    2    0    0 -0.41169737820E+02 -0.94009625346E+02 -0.44533271973E+03  0.47379265699E+03  0.12500197433E+03 0.  0.
          2    1    1    2  501    0 -0.36223320655E+02 -0.66085032144E+01 -0.27340261900E+03  0.27587097228E+03  0.00000000000E+00 0. -1.
          1    1    1    2  502    0  0.77393058475E+02  0.10061812856E+03 -0.50429577197E+03  0.52002684443E+03  0.00000000000E+00 0. -1.
         22    1    3    3    0    0 -0.72559009003E+02 -0.87521419566E+02 -0.23526629993E+03  0.26129493021E+03  0.00000000000E+00 0. -1.
         22    1    3    3    0    0  0.31389271183E+02 -0.64882057801E+01 -0.21006641980E+03  0.21249772679E+03  0.00000000000E+00 0. -1.
</event>
<event>
 7    1  0.6253338E-006  0.8970829E+02  0.7818608E-02  0.1324237E+00
          2   -1    0    0  502    0  0.00000000000E+00  0.00000000000E+00  0.89156938414E+03  0.89156938414E+03  0.00000000000E+00 0. -1.
          1   -1    0    0  501    0 -0.00000000000E+00 -0.00000000000E+00 -0.13374674220E+04  0.13374674220E+04  0.00000000000E+00 0. -1.
         25    2    1    2    0    0 -0.62953272215E+02 -0.87124113598E+02  0.61613169421E+02  0.17599646999E+03  0.12499939660E+03 0.  0.
          2    1    1    2  501    0  0.88212375399E+02  0.17095100284E+02 -0.12769003966E+04  0.12800579239E+04  0.00000000000E+00 0. -1.
          1    1    1    2  502    0 -0.25259103184E+02  0.70029013314E+02  0.76938918934E+03  0.77298241226E+03  0.00000000000E+00 0. -1.
         22    1    3    3    0    0 -0.79074123172E+02 -0.84677918150E+02  0.87648485316E+02  0.14527671443E+03  0.00000000000E+00 0.  1.
         22    1    3    3    0    0  0.16120850957E+02 -0.24461954482E+01 -0.26035315895E+02  0.30719755557E+02  0.00000000000E+00 0.  1.
</event>
<event>
 7    1  0.6253338E-006  0.1216174E+03  0.7818608E-02  0.1304002E+00
          2   -1    0    0  502    0  0.00000000000E+00  0.00000000000E+00  0.34243237718E+04  0.34243237718E+04  0.00000000000E+00 0. -1.
          1   -1    0    0  501    0 -0.00000000000E+00 -0.00000000000E+00 -0.48611920377E+02  0.48611920377E+02  0.00000000000E+00 0. -1.
         25    2    1    2    0    0  0.78985675972E+02  0.29672253530E+01  0.20269957616E+03  0.25091759316E+03  0.12499991578E+03 0.  0.
          2    1    1    2  501    0  0.32810045651E+02 -0.57156037258E+02  0.23367280459E+02  0.69923826316E+02  0.00000000000E+00 0. -1.
          1    1    1    2  502    0 -0.11179572162E+03  0.54188811905E+02  0.31496449948E+04  0.31520942727E+04  0.00000000000E+00 0. -1.
         22    1    3    3    0    0  0.69597268925E+02 -0.55088501862E+02  0.12994085423E+03  0.15736311028E+03  0.00000000000E+00 0. -1.
         22    1    3    3    0    0  0.93884070464E+01  0.58055727215E+02  0.72758721927E+02  0.93554482873E+02  0.00000000000E+00 0. -1.
</event>
<event>
 7    1  0.6253338E-006  0.8474558E+02  0.7818608E-02  0.1367550E+00
          2   -1    0    0  502    0  0.00000000000E+00  0.00000000000E+00  0.89129694101E+03  0.89129694101E+03  0.00000000000E+00 0. -1.
          1   -1    0    0  501    0 -0.00000000000E+00 -0.00000000000E+00 -0.14352385954E+04  0.14352385954E+04  0.00000000000E+00 0. -1.
         25    2    1    2    0    0  0.82673765297E+02 -0.92861248345E+02  0.48570348102E+02  0.18287682494E+03  0.12500676571E+03 0.  0.
          2    1    1    2  501    0 -0.52235382691E+02  0.14931420843E+02 -0.13652872960E+04  0.13663677701E+04  0.00000000000E+00 0. -1.
          1    1    1    2  502    0 -0.30438382606E+02  0.77929827502E+02  0.77277529356E+03  0.77729094133E+03  0.00000000000E+00 0. -1.
         22    1    3    3    0    0  0.74165372290E+02 -0.44372565640E+02  0.85318536773E+02  0.12144414249E+03  0.00000000000E+00 0. -1.
         22    1    3    3    0    0  0.85083930069E+01 -0.48488682705E+02 -0.36748188671E+02  0.61432682447E+02  0.00000000000E+00 0. -1.
</event>
<event>
 7    1  0.6253338E-006  0.1141122E+03  0.7818608E-02  0.1353643E+00
          2   -1    0    0  502    0  0.00000000000E+00  0.00000000000E+00  0.67691103163E+03  0.67691103163E+03  0.00000000000E+00 0. -1.
          1   -1    0    0  501    0 -0.00000000000E+00 -0.00000000000E+00 -0.16614225709E+03  0.16614225709E+03  0.00000000000E+00 0. -1.
         25    2    1    2    0    0 -0.14645803490E+03  0.50460183803E+02  0.38796542355E+02  0.20279690551E+03  0.12500090819E+03 0.  0.
          2    1    1    2  501    0  0.38187849528E+02 -0.24448668882E+02 -0.71953921255E+02  0.85049491742E+02  0.00000000000E+00 0. -1.
          1    1    1    2  502    0  0.10827018538E+03 -0.26011514921E+02  0.54392615343E+03  0.55520689147E+03  0.00000000000E+00 0. -1.
         22    1    3    3    0    0 -0.15989829474E+03  0.56480657331E+02  0.93083678524E+01  0.16983572953E+03  0.00000000000E+00 0.  1.
         22    1    3    3    0    0  0.13440259839E+02 -0.60204735277E+01  0.29488174503E+02  0.32961175973E+02  0.00000000000E+00 0.  1.
</event>
<event>
 7    1  0.6253338E-006  0.1089243E+03  0.7818608E-02  0.1321517E+00
          2   -1    0    0  502    0  0.00000000000E+00  0.00000000000E+00  0.90365851286E+03  0.90365851286E+03  0.00000000000E+00 0. -1.
          1   -1    0    0  501    0 -0.00000000000E+00 -0.00000000000E+00 -0.54413653368E+03  0.54413653368E+03  0.00000000000E+00 0. -1.
         25    2    1    2    0    0 -0.22214291390E+02  0.12174137704E+03  0.31996362567E+02  0.17878273571E+03  0.12500024698E+03 0.  0.
          2    1    1    2  501    0  0.71250907644E+02 -0.82487201927E+02 -0.46317149037E+03  0.47582419003E+03  0.00000000000E+00 0. -1.
          1    1    1    2  502    0 -0.49036616254E+02 -0.39254175114E+02  0.79069710698E+03  0.79318812080E+03  0.00000000000E+00 0. -1.
         22    1    3    3    0    0  0.88931603362E+01  0.81587265309E+02  0.75792803143E+02  0.11171445372E+03  0.00000000000E+00 0.  1.
         22    1    3    3    0    0 -0.31107451726E+02  0.40154111732E+02 -0.43796440576E+02  0.67068281989E+02  0.00000000000E+00 0.  1.
</event>
<event>
 7    1  0.6253338E-006  0.1928958E+03  0.7818608E-02  0.1213031E+00
          2   -1    0    0  502    0  0.00000000000E+00  0.00000000000E+00  0.58427635998E+03  0.58427635998E+03  0.00000000000E+00 0. -1.
          1   -1    0    0  501    0 -0.00000000000E+00 -0.00000000000E+00 -0.18171641635E+04  0.18171641635E+04  0.00000000000E+00 0. -1.
         25    2    1    2    0    0  0.94036080766E+02  0.33862839592E+02 -0.21140411425E+01  0.16005882346E+03  0.12499952563E+03 0.  0.
          2    1    1    2  501    0 -0.17603449854E+03 -0.94412524510E+02 -0.17251147112E+04  0.17366411939E+04  0.00000000000E+00 0. -1.
          1    1    1    2  502    0  0.81998417778E+02  0.60549684918E+02  0.49434094883E+03  0.50474050615E+03  0.00000000000E+00 0. -1.
         22    1    3    3    0    0  0.24501677777E+01 -0.35493325027E+02  0.23128402973E+02  0.42434684725E+02  0.00000000000E+00 0. -1.
         22    1    3    3    0    0  0.91585912989E+02  0.69356164619E+02 -0.25242444115E+02  0.11762413874E+03  0.00000000000E+00 0. -1.
</event>
<event>
 7    1  0.6253338E-006  0.1099041E+03  0.7818608E-02  0.1286054E+00
          2   -1    0    0  502    0  0.00000000000E+00  0.00000000000E+00  0.30109793450E+04  0.30109793450E+04  0.00000000000E+00 0. -1.
          1   -1    0    0  501    0 -0.00000000000E+00 -0.00000000000E+00 -0.14976263402E+04  0.14976263402E+04  0.00000000000E+00 0. -1.
         25    2    1    2    0    0 -0.24014854064E+02  0.19107707127E+03 -0.19154637704E+03  0.29900109699E+03  0.12499792423E+03 0.  0.
          2    1    1    2  501    0  0.12649508895E+02 -0.10566894665E+03 -0.12494624704E+04  0.12539866033E+04  0.00000000000E+00 0. -1.
          1    1    1    2  502    0  0.11365345168E+02 -0.85408124618E+02  0.29543618522E+04  0.29556179849E+04  0.00000000000E+00 0. -1.
         22    1    3    3    0    0  0.35388059313E+02  0.15731092618E+03 -0.13628399154E+03  0.21112169142E+03  0.00000000000E+00 0. -1.
         22    1    3    3    0    0 -0.59402913376E+02  0.33766145089E+02 -0.55262385501E+02  0.87879405568E+02  0.00000000000E+00 0. -1.
</event>
<event>
 7    1  0.6253338E-006  0.1435102E+03  0.7818608E-02  0.1299098E+00
          2   -1    0    0  502    0  0.00000000000E+00  0.00000000000E+00  0.72774784201E+03  0.72774784201E+03  0.00000000000E+00 0. -1.
          1   -1    0    0  501    0 -0.00000000000E+00 -0.00000000000E+00 -0.96766936765E+03  0.96766936765E+03  0.00000000000E+00 0. -1.
         25    2    1    2    0    0  0.80054501307E+02  0.79054543417E+02  0.12453270895E+03  0.20926425453E+03  0.12499915444E+03 0.  0.
          2    1    1    2  501    0 -0.11918261683E+02  0.57197689771E+02 -0.91400894405E+03  0.91587442942E+03  0.00000000000E+00 0. -1.
          1    1    1    2  502    0 -0.68136239624E+02 -0.13625223319E+03  0.54955470945E+03  0.57027852571E+03  0.00000000000E+00 0. -1.
         22    1    3    3    0    0  0.94272627242E+02  0.91613592298E+02  0.64735718152E+02  0.14653017350E+03  0.00000000000E+00 0. -1.
         22    1    3    3    0    0 -0.14218125935E+02 -0.12559048881E+02  0.59796990799E+02  0.62734081028E+02  0.00000000000E+00 0. -1.
</event>
<event>
 7    1  0.6253338E-006  0.2130996E+03  0.7818608E-02  0.1226521E+00
          2   -1    0    0  502    0  0.00000000000E+00  0.00000000000E+00  0.17919461224E+04  0.17919461224E+04  0.00000000000E+00 0. -1.
          1   -1    0    0  501    0 -0.00000000000E+00 -0.00000000000E+00 -0.18968380162E+03  0.18968380162E+03  0.00000000000E+00 0. -1.
         25    2    1    2    0    0 -0.35234462821E+02  0.17751063174E+03  0.13882018464E+03  0.26009181797E+03  0.12500087343E+03 0.  0.
          2    1    1    2  501    0  0.11026719250E+03 -0.20548660980E+03 -0.21725910526E+02  0.23421275742E+03  0.00000000000E+00 0. -1.
          1    1    1    2  502    0 -0.75032729683E+02  0.27975978055E+02  0.14851680467E+04  0.14873253487E+04  0.00000000000E+00 0. -1.
         22    1    3    3    0    0 -0.15485907578E+02  0.19070802236E+03  0.13873313044E+03  0.23633925744E+03  0.00000000000E+00 0.  1.
         22    1    3    3    0    0 -0.19748555243E+02 -0.13197390617E+02  0.87054203709E-01  0.23752560530E+02  0.00000000000E+00 0.  1.
</event>
<event>
 7    1  0.6253338E-006  0.2285722E+03  0.7818608E-02  0.1318283E+00
          2   -1    0    0  502    0  0.00000000000E+00  0.00000000000E+00  0.24908410898E+03  0.24908410898E+03  0.00000000000E+00 0. -1.
          1   -1    0    0  501    0 -0.00000000000E+00 -0.00000000000E+00 -0.55508049004E+03  0.55508049004E+03  0.00000000000E+00 0. -1.
         25    2    1    2    0    0 -0.13648566511E+03  0.16283481458E+03 -0.13077254507E+03  0.27905291231E+03  0.12500222279E+03 0.  0.
          2    1    1    2  501    0  0.16657778315E+03 -0.16945024519E+03 -0.30788772322E+03  0.38891694942E+03  0.00000000000E+00 0. -1.
          1    1    1    2  502    0 -0.30092118033E+02  0.66154306028E+01  0.13266388723E+03  0.13619473729E+03  0.00000000000E+00 0. -1.
         22    1    3    3    0    0 -0.31391536235E+02  0.13202377740E+03 -0.86480255857E+02  0.16091780821E+03  0.00000000000E+00 0. -1.
         22    1    3    3    0    0 -0.10509412888E+03  0.30811037185E+02 -0.44292289211E+02  0.11813510410E+03  0.00000000000E+00 0. -1.
</event>
<event>
 7    1  0.6253338E-006  0.1020765E+03  0.7818608E-02  0.1309812E+00
          2   -1    0    0  502    0  0.00000000000E+00  0.00000000000E+00  0.28894410414E+04  0.28894410414E+04  0.00000000000E+00 0. -1.
          1   -1    0    0  501    0 -0.00000000000E+00 -0.00000000000E+00 -0.14276819892E+03  0.14276819892E+03  0.00000000000E+00 0. -1.
         25    2    1    2    0    0  0.11385917018E+03 -0.28993720793E+01  0.61011955809E+03  0.63311954235E+03  0.12498865047E+03 0.  0.
          2    1    1    2  501    0 -0.36103462019E+02 -0.65131493254E+02 -0.11942844081E+03  0.14074346826E+03  0.00000000000E+00 0. -1.
          1    1    1    2  502    0 -0.77755708159E+02  0.68030865333E+02  0.22559817252E+04  0.22583462297E+04  0.00000000000E+00 0. -1.
         22    1    3    3    0    0  0.84809664591E+01  0.38624640440E+02  0.62877003577E+02  0.74278578474E+02  0.00000000000E+00 0.  1.
         22    1    3    3    0    0  0.10537820372E+03 -0.41524012519E+02  0.54724255451E+03  0.55884096388E+03  0.00000000000E+00 0.  1.
</event>
<event>
 7    1  0.6253338E-006  0.6637909E+02  0.7818608E-02  0.1409339E+00
          2   -1    0    0  502    0  0.00000000000E+00  0.00000000000E+00  0.14106724175E+04  0.14106724175E+04  0.00000000000E+00 0. -1.
          1   -1    0    0  501    0 -0.00000000000E+00 -0.00000000000E+00 -0.53062060777E+02  0.53062060777E+02  0.00000000000E+00 0. -1.
         25    2    1    2    0    0 -0.59591939442E+02  0.72386784438E+02  0.26957328832E+03  0.31158631669E+03  0.12500091665E+03 0.  0.
          2    1    1    2  501    0  0.10848979753E+02 -0.63566101538E+02  0.15206650523E+01  0.64503194097E+02  0.00000000000E+00 0. -1.
          1    1    1    2  502    0  0.48742959688E+02 -0.88206828998E+01  0.10865164034E+04  0.10876449675E+04  0.00000000000E+00 0. -1.
         22    1    3    3    0    0 -0.97363587432E+02  0.48008143200E+02  0.21524145548E+03  0.24106707392E+03  0.00000000000E+00 0. -1.
         22    1    3    3    0    0  0.37771647990E+02  0.24378641238E+02  0.54331832840E+02  0.70519242766E+02  0.00000000000E+00 0. -1.
</event>
<event>
 7    1  0.6253338E-006  0.5340362E+02  0.7818608E-02  0.1543901E+00
          2   -1    0    0  502    0  0.00000000000E+00  0.00000000000E+00  0.28328497757E+04  0.28328497757E+04  0.00000000000E+00 0. -1.
          1   -1    0    0  501    0 -0.00000000000E+00 -0.00000000000E+00 -0.46027337799E+01  0.46027337799E+01  0.00000000000E+00 0. -1.
         25    2    1    2    0    0  0.60197093475E+02 -0.21067619828E+02  0.15438638934E+04  0.15502265042E+04  0.12497583102E+03 0.  0.
          2    1    1    2  501    0 -0.39331513327E+02  0.32190361853E+02  0.52016363542E+03  0.52264078959E+03  0.00000000000E+00 0. -1.
          1    1    1    2  502    0 -0.20865580149E+02 -0.11122742025E+02  0.76421951310E+03  0.76458521567E+03  0.00000000000E+00 0. -1.
         22    1    3    3    0    0 -0.88608670790E+01  0.28591417198E+02  0.11495528356E+03  0.11878847301E+03  0.00000000000E+00 0. -1.
         22    1    3    3    0    0  0.69057960554E+02 -0.49659037026E+02  0.14289086099E+04  0.14314380312E+04  0.00000000000E+00 0. -1.
</event>
<event>
 7    1  0.6253338E-006  0.9331688E+02  0.7818608E-02  0.1378570E+00
          2   -1    0    0  502    0  0.00000000000E+00  0.00000000000E+00  0.23738826624E+03  0.23738826624E+03  0.00000000000E+00 0. -1.
          1   -1    0    0  501    0 -0.00000000000E+00 -0.00000000000E+00 -0.32093738588E+03  0.32093738588E+03  0.00000000000E+00 0. -1.
         25    2    1    2    0    0  0.33483928653E+01  0.94894131369E+02 -0.66946090728E+02  0.17064952431E+03  0.12499349255E+03 0.  0.
          2    1    1    2  501    0 -0.46695045439E+02 -0.82605556959E+02 -0.18792817274E+03  0.21052577852E+03  0.00000000000E+00 0. -1.
          1    1    1    2  502    0  0.43346652573E+02 -0.12288574410E+02  0.17132514383E+03  0.17715034930E+03  0.00000000000E+00 0. -1.
         22    1    3    3    0    0  0.29722342069E+02  0.99861351659E+02 -0.88125241461E+02  0.13646158931E+03  0.00000000000E+00 0. -1.
         22    1    3    3    0    0 -0.26373949204E+02 -0.49672202899E+01  0.21179150733E+02  0.34187935003E+02  0.00000000000E+00 0. -1.
</event>
<event>
 7    1  0.6253338E-006  0.7746711E+02  0.7818608E-02  0.1465461E+00
          2   -1    0    0  502    0  0.00000000000E+00  0.00000000000E+00  0.26128977891E+03  0.26128977891E+03  0.00000000000E+00 0. -1.
          1   -1    0    0  501    0 -0.00000000000E+00 -0.00000000000E+00 -0.90392659829E+03  0.90392659829E+03  0.00000000000E+00 0. -1.
         25    2    1    2    0    0 -0.74719108190E+01  0.50915392926E+02  0.23752621989E+03  0.27329759571E+03  0.12499865597E+03 0.  0.
          2    1    1    2  501    0 -0.34453282635E+00 -0.77653466627E+02 -0.83669198382E+03  0.84028784079E+03  0.00000000000E+00 0. -1.
          1    1    1    2  502    0  0.78164436453E+01  0.26738073702E+02 -0.43471055447E+02  0.51630940706E+02  0.00000000000E+00 0. -1.
         22    1    3    3    0    0  0.32603830158E+01  0.32640688807E+02 -0.19731174247E+01  0.32862407939E+02  0.00000000000E+00 0.  1.
         22    1    3    3    0    0 -0.10732293835E+02  0.18274704119E+02  0.23949933732E+03  0.24043518777E+03  0.00000000000E+00 0.  1.
</event>
<event>
 7    1  0.6253338E-006  0.1134322E+03  0.7818608E-02  0.1326256E+00
          2   -1    0    0  502    0  0.00000000000E+00  0.00000000000E+00  0.10912495285E+04  0.10912495285E+04  0.00000000000E+00 0. -1.
          1   -1    0    0  501    0 -0.00000000000E+00 -0.00000000000E+00 -0.40987901075E+03  0.40987901075E+03  0.00000000000E+00 0. -1.
         25    2    1    2    0    0 -0.16845587368E+03  0.22883958062E+02 -0.11770247181E+03  0.24162381726E+03  0.12500856084E+03 0.  0.
          2    1    1    2  501    0  0.57749129480E+02 -0.30810241835E+01 -0.22345161518E+03  0.23081394887E+03  0.00000000000E+00 0. -1.
          1    1    1    2  502    0  0.11070674420E+03 -0.19802933878E+02  0.10225246048E+04  0.10286907732E+04  0.00000000000E+00 0. -1.
         22    1    3    3    0    0  0.11538334290E+02 -0.22232862300E+02 -0.93090193027E+01  0.26722484252E+02  0.00000000000E+00 0.  1.
         22    1    3    3    0    0 -0.17999420797E+03  0.45116820362E+02 -0.10839345251E+03  0.21490133301E+03  0.00000000000E+00 0.  1.
</event>
<event>
 7    1  0.6253338E-006  0.3723778E+02  0.7818608E-02  0.1552392E+00
          2   -1    0    0  502    0  0.00000000000E+00  0.00000000000E+00  0.91145702522E+03  0.91145702522E+03  0.00000000000E+00 0. -1.
          1   -1    0    0  501    0 -0.00000000000E+00 -0.00000000000E+00 -0.15286535410E+03  0.15286535410E+03  0.00000000000E+00 0. -1.
         25    2    1    2    0    0  0.33821092504E+01 -0.68670026560E+02 -0.33231384564E+02  0.14648270346E+03  0.12500338509E+03 0.  0.
          2    1    1    2  501    0 -0.54930181549E+01  0.31632467694E+02 -0.58487571057E+02  0.66720178575E+02  0.00000000000E+00 0. -1.
          1    1    1    2  502    0  0.21109089045E+01  0.37037558866E+02  0.85031062675E+03  0.85111949729E+03  0.00000000000E+00 0. -1.
         22    1    3    3    0    0  0.22259576450E+02  0.13034038794E+02  0.31380411765E+02  0.40621486353E+02  0.00000000000E+00 0. -1.
         22    1    3    3    0    0 -0.18877467199E+02 -0.81704065354E+02 -0.64611796329E+02  0.10586121711E+03  0.00000000000E+00 0. -1.
</event>
<event>
 7    1  0.9403530E-006  0.7719608E+02  0.7818608E-02  0.1443222E+00
          2   -1    0    0  502    0  0.00000000000E+00  0.00000000000E+00  0.12526998802E+04  0.12526998802E+04  0.00000000000E+00 0. -1.
          1   -1    0    0  501    0 -0.00000000000E+00 -0.00000000000E+00 -0.14146013516E+04  0.14146013516E+04  0.00000000000E+00 0. -1.
         25    2    1    2    0    0  0.54659220478E+02  0.79099957565E+02 -0.40716640442E+03  0.43663919845E+03  0.12499950025E+03 0.  0.
          2    1    1    2  501    0 -0.32485430639E+02 -0.51995432985E+01 -0.99122321419E+03  0.99176902493E+03  0.00000000000E+00 0. -1.
          1    1    1    2  502    0 -0.22173789839E+02 -0.73900414266E+02  0.12364881472E+04  0.12388930084E+04  0.00000000000E+00 0. -1.
         22    1    3    3    0    0  0.41012762387E+02  0.73357275131E+02 -0.41244510137E+03  0.42092077418E+03  0.00000000000E+00 0.  1.
         22    1    3    3    0    0  0.13646458091E+02  0.57426824336E+01  0.52786969495E+01  0.15718424267E+02  0.00000000000E+00 0.  1.
</event>
<event>
 7    1  0.6253338E-006  0.7566869E+02  0.7818608E-02  0.1347738E+00
          2   -1    0    0  502    0  0.00000000000E+00  0.00000000000E+00  0.12569655357E+04  0.12569655357E+04  0.00000000000E+00 0. -1.
          1   -1    0    0  501    0 -0.00000000000E+00 -0.00000000000E+00 -0.16979800628E+04  0.16979800628E+04  0.00000000000E+00 0. -1.
         25    2    1    2    0    0 -0.11559108103E+03  0.90498080823E+02  0.19437762181E+03  0.27378564918E+03  0.12499888477E+03 0.  0.
          2    1    1    2  501    0  0.62974288508E+02 -0.41483357476E+02 -0.16561532019E+04  0.16578691318E+04  0.00000000000E+00 0. -1.
          1    1    1    2  502    0  0.52616792519E+02 -0.49014723347E+02  0.10207610530E+04  0.10232908175E+04  0.00000000000E+00 0. -1.
         22    1    3    3    0    0 -0.84546934289E+02  0.11980697940E+03  0.17044785890E+03  0.22484298747E+03  0.00000000000E+00 0. -1.
         22    1    3    3    0    0 -0.31044146738E+02 -0.29308898581E+02  0.23929762908E+02  0.48942661713E+02  0.00000000000E+00 0. -1.
</event>
<event>
 7    1  0.6253338E-006  0.9580045E+02  0.7818608E-02  0.1354383E+00
          2   -1    0    0  502    0  0.00000000000E+00  0.00000000000E+00  0.29780408113E+03  0.29780408113E+03  0.00000000000E+00 0. -1.
          1   -1    0    0  501    0 -0.00000000000E+00 -0.00000000000E+00 -0.81685122735E+03  0.81685122735E+03  0.00000000000E+00 0. -1.
         25    2    1    2    0    0  0.78531384134E+02  0.12481965990E+03 -0.40566481261E+03  0.44937294618E+03  0.12499991514E+03 0.  0.
          2    1    1    2  501    0 -0.35306802923E+02 -0.40425022605E+02 -0.37924124508E+03  0.38302046258E+03  0.00000000000E+00 0. -1.
          1    1    1    2  502    0 -0.43224581211E+02 -0.84394637292E+02  0.26585891146E+03  0.28226189971E+03  0.00000000000E+00 0. -1.
         22    1    3    3    0    0  0.23219223315E+02 -0.20546892391E+02 -0.31642865502E+02  0.44300993843E+02  0.00000000000E+00 0. -1.
         22    1    3    3    0    0  0.55312160818E+02  0.14536655229E+03 -0.37402194710E+03  0.40507195234E+03  0.00000000000E+00 0. -1.
</event>
<event>
 7    1  0.6253338E-006  0.3687036E+02  0.7818608E-02  0.1586820E+00
          2   -1    0    0  502    0  0.00000000000E+00  0.00000000000E+00  0.16089916911E+04  0.16089916911E+04  0.00000000000E+00 0. -1.
          1   -1    0    0  501    0 -0.00000000000E+00 -0.00000000000E+00 -0.16532562851E+04  0.16532562851E+04  0.00000000000E+00 0. -1.
         25    2    1    2    0    0  0.47007590225E+02 -0.25534144148E+02  0.26083213007E+03  0.29414189386E+03  0.12499739035E+03 0.  0.
          2    1    1    2  501    0 -0.25767530478E+02 -0.43939664025E+01 -0.16362441158E+04  0.16364528954E+04  0.00000000000E+00 0. -1.
          1    1    1    2  502    0 -0.21240059748E+02  0.29928110551E+02  0.13311473917E+04  0.13316531870E+04  0.00000000000E+00 0. -1.
         22    1    3    3    0    0 -0.27544189590E+02 -0.47032104012E+02  0.14323570825E+03  0.15325524234E+03  0.00000000000E+00 0. -1.
         22    1    3    3    0    0  0.74551779815E+02  0.21497959864E+02  0.11759642182E+03  0.14088665152E+03  0.00000000000E+00 0. -1.
</event>
<event>
 7    1  0.6253338E-006  0.8614637E+02  0.7818608E-02  0.1354892E+00
          2   -1    0    0  502    0  0.00000000000E+00  0.00000000000E+00  0.10440115850E+04  0.10440115850E+04  0.00000000000E+00 0. -1.
          1   -1    0    0  501    0 -0.00000000000E+00 -0.00000000000E+00 -0.33908897128E+02  0.33908897128E+02  0.00000000000E+00 0. -1.
         25    2    1    2    0    0 -0.28348482181E+02  0.10448841867E+03  0.32910707474E+03  0.36831462225E+03  0.12499091264E+03 0.  0.
          2    1    1    2  501    0  0.54564569029E+02 -0.23553255491E+02  0.66247022598E+02  0.88998404708E+02  0.00000000000E+00 0. -1.
          1    1    1    2  502    0 -0.26216086848E+02 -0.80935163175E+02  0.61474859051E+03  0.62060745514E+03  0.00000000000E+00 0. -1.
         22    1    3    3    0    0  0.20207390579E+02 -0.21330440078E+02  0.43851557708E+02  0.52785276558E+02  0.00000000000E+00 0.  1.
         22    1    3    3    0    0 -0.48555872760E+02  0.12581885874E+03  0.28525551703E+03  0.31552934569E+03  0.00000000000E+00 0.  1.
</event>
<event>
 7    1  0.6253338E-006  0.1548052E+03  0.7818608E-02  0.1340713E+00
          2   -1    0    0  502    0  0.00000000000E+00  0.00000000000E+00  0.25040468836E+04  0.25040468836E+04  0.00000000000E+00 0. -1.
          1   -1    0    0  501    0 -0.00000000000E+00 -0.00000000000E+00 -0.24465468100E+04  0.24465468100E+04  0.00000000000E+00 0. -1.
         25    2    1    2    0    0  0.12313859749E+03 -0.10087733801E+03  0.63592013257E+03  0.66735343559E+03  0.12500736567E+03 0.  0.
          2    1    1    2  501    0 -0.29827658002E+02 -0.22463335870E+02 -0.24274581140E+04  0.24277452885E+04  0.00000000000E+00 0. -1.
          1    1    1    2  502    0 -0.93310939486E+02  0.12334067388E+03  0.18490380550E+04  0.18554949696E+04  0.00000000000E+00 0. -1.
         22    1    3    3    0    0 -0.17066839603E+02  0.90728255988E+01  0.11966922129E+03  0.12122011261E+03  0.00000000000E+00 0.  1.
         22    1    3    3    0    0  0.14020543709E+03 -0.10995016361E+03  0.51625091128E+03  0.54613332298E+03  0.00000000000E+00 0.  1.
</event>
<event>
 7    1  0.6700301E-006  0.1054776E+03  0.7818608E-02  0.1304866E+00
          2   -1    0    0  502    0  0.00000000000E+00  0.00000000000E+00  0.24328470751E+04  0.24328470751E+04  0.00000000000E+00 0. -1.
          1   -1    0    0  501    0 -0.00000000000E+00 -0.00000000000E+00 -0.60359262954E+03  0.60359262954E+03  0.00000000000E+00 0. -1.
         25    2    1    2    0    0 -0.54149701626E+02 -0.16085599775E+03 -0.92453139112E+02  0.23017198706E+03  0.12499887398E+03 0.  0.
          2    1    1    2  501    0  0.52794704044E+02  0.85478828160E+02 -0.43596416090E+03  0.44739094809E+03  0.00000000000E+00 0. -1.
          1    1    1    2  502    0  0.13549975824E+01  0.75377169594E+02  0.23576717456E+04  0.23588767695E+04  0.00000000000E+00 0. -1.
         22    1    3    3    0    0 -0.59212697769E+02 -0.45984776977E+02 -0.87299712005E+02  0.11507381547E+03  0.00000000000E+00 0.  1.
         22    1    3    3    0    0  0.50629961434E+01 -0.11487122078E+03 -0.51534271067E+01  0.11509817159E+03  0.00000000000E+00 0.  1.
</event>
<event>
 7    1  0.6253338E-006  0.4505752E+02  0.7818608E-02  0.1498972E+00
          2   -1    0    0  502    0  0.00000000000E+00  0.00000000000E+00  0.17029454777E+04  0.17029454777E+04  0.00000000000E+00 0. -1.
          1   -1    0    0  501    0 -0.00000000000E+00 -0.00000000000E+00 -0.70692923592E+02  0.70692923592E+02  0.00000000000E+00 0. -1.
         25    2    1    2    0    0  0.42924979405E+02 -0.11778615049E+02  0.49813064677E+03  0.51550046494E+03  0.12500119392E+03 0.  0.
          2    1    1    2  501    0 -0.37373895116E+02 -0.25637648502E+02 -0.53384878811E+02  0.70028867923E+02  0.00000000000E+00 0. -1.
          1    1    1    2  502    0 -0.55510842885E+01  0.37416263551E+02  0.11875067862E+04  0.11881090684E+04  0.00000000000E+00 0. -1.
         22    1    3    3    0    0  0.14145696283E+01 -0.63962169646E+02  0.19914575959E+03  0.20917025055E+03  0.00000000000E+00 0. -1.
         22    1    3    3    0    0  0.41510409777E+02  0.52183554597E+02  0.29898488718E+03  0.30633021439E+03  0.00000000000E+00 0. -1.
</event>
<event>
 7    1  0.6253338E-006  0.9688278E+02  0.7818608E-02  0.1336762E+00
          2   -1    0    0  502    0  0.00000000000E+00  0.00000000000E+00  0.56447917846E+03  0.56447917846E+03  0.00000000000E+00 0. -1.
          1   -1    0    0  501    0 -0.00000000000E+00 -0.00000000000E+00 -0.25681431488E+03  0.25681431488E+03  0.00000000000E+00 0. -1.
         25    2    1    2    0    0  0.71812167495E+02 -0.60487070411E+02  0.14179240177E+03  0.21105793987E+03  0.12499878278E+03 0.  0.
          2    1    1    2  501    0  0.28541805885E+02  0.54753234608E+02 -0.21117634369E+03  0.22001817997E+03  0.00000000000E+00 0. -1.
          1    1    1    2  502    0 -0.10035397338E+03  0.57338358030E+01  0.37704880550E+03  0.39021737350E+03  0.00000000000E+00 0. -1.
         22    1    3    3    0    0  0.63886958514E+02 -0.93409530415E+02  0.73814984272E+02  0.13511304801E+03  0.00000000000E+00 0.  1.
         22    1    3    3    0    0  0.79252089807E+01  0.32922460004E+02  0.67977417497E+02  0.75944891860E+02  0.00000000000E+00 0.  1.
</event>
<event>
 7    1  0.6253338E-006  0.4503280E+02  0.7818608E-02  0.1481375E+00
          2   -1    0    0  502    0  0.00000000000E+00  0.00000000000E+00  0.13704004179E+04  0.13704004179E+04  0.00000000000E+00 0. -1.
          1   -1    0    0  501    0 -0.00000000000E+00 -0.00000000000E+00 -0.11891546308E+02  0.11891546308E+02  0.00000000000E+00 0. -1.
         25    2    1    2    0    0 -0.71326711713E+01  0.70274042922E+01  0.63444172089E+03  0.64671488875E+03  0.12499436275E+03 0.  0.
          2    1    1    2  501    0  0.42434119312E+02 -0.31194758442E+02  0.13425967962E+03  0.14422007145E+03  0.00000000000E+00 0. -1.
          1    1    1    2  502    0 -0.35301448141E+02  0.24167354150E+02  0.58980747112E+03  0.59135700405E+03  0.00000000000E+00 0. -1.
         22    1    3    3    0    0  0.46627511704E+02 -0.22849321869E+02  0.15785308822E+03  0.16617404676E+03  0.00000000000E+00 0. -1.
         22    1    3    3    0    0 -0.53760182875E+02  0.29876726161E+02  0.47658863267E+03  0.48054084199E+03  0.00000000000E+00 0. -1.
</event>
<event>
 7    1  0.6253338E-006  0.6502096E+02  0.7818608E-02  0.1470194E+00
          2   -1    0    0  502    0  0.00000000000E+00  0.00000000000E+00  0.82128054835E+02  0.82128054835E+02  0.00000000000E+00 0. -1.
          1   -1    0    0  501    0 -0.00000000000E+00 -0.00000000000E+00 -0.11484177575E+04  0.11484177575E+04  0.00000000000E+00 0. -1.
         25    2    1    2    0    0 -0.78207335375E+00  0.50283556716E+02 -0.73331834899E+03  0.74559392262E+03  0.12500179505E+03 0.  0.
          2    1    1    2  501    0 -0.24211989213E+02 -0.70393728501E+02 -0.40199933599E+03  0.40883366248E+03  0.00000000000E+00 0. -1.
          1    1    1    2  502    0  0.24994062567E+02  0.20110171786E+02  0.69027982328E+02  0.76118227233E+02  0.00000000000E+00 0. -1.
         22    1    3    3    0    0 -0.87361042879E+01  0.91900670820E+02 -0.51225177413E+03  0.52050353785E+03  0.00000000000E+00 0.  1.
         22    1    3    3    0    0  0.79540309342E+01 -0.41617114105E+02 -0.22106657486E+03  0.22509038477E+03  0.00000000000E+00 0.  1.
</event>
<event>
 7    1  0.6253338E-006  0.5512311E+02  0.7818608E-02  0.1496841E+00
          2   -1    0    0  502    0  0.00000000000E+00  0.00000000000E+00  0.79788108117E+03  0.79788108117E+03  0.00000000000E+00 0. -1.
          1   -1    0    0  501    0 -0.00000000000E+00 -0.00000000000E+00 -0.19381629013E+03  0.19381629013E+03  0.00000000000E+00 0. -1.
         25    2    1    2    0    0 -0.16829790148E+02 -0.23474821770E+02 -0.33637024374E+02  0.13262840250E+03  0.12499813857E+03 0.  0.
          2    1    1    2  501    0 -0.31042323480E+02 -0.45648978415E+01 -0.10740776821E+03  0.11189679536E+03  0.00000000000E+00 0. -1.
          1    1    1    2  502    0  0.47872113628E+02  0.28039719611E+02  0.74510958364E+03  0.74717217344E+03  0.00000000000E+00 0. -1.
         22    1    3    3    0    0  0.33660146467E+02 -0.57957322495E+02 -0.20544548032E+02  0.70100892611E+02  0.00000000000E+00 0.  1.
         22    1    3    3    0    0 -0.50489936615E+02  0.34482500726E+02 -0.13092476342E+02  0.62527509885E+02  0.00000000000E+00 0.  1.
</event>
<event>
 7    1  0.6253338E-006  0.4700051E+02  0.7818608E-02  0.1471768E+00
          2   -1    0    0  502    0  0.00000000000E+00  0.00000000000E+00  0.36402885201E+03  0.36402885201E+03  0.00000000000E+00 0. -1.
          1   -1    0    0  501    0 -0.00000000000E+00 -0.00000000000E+00 -0.40415538780E+03  0.40415538780E+03  0.00000000000E+00 0. -1.
         25    2    1    2    0    0 -0.49580241012E+02 -0.43788363941E+01  0.68686680822E+02  0.15106771583E+03  0.12500488045E+03 0.  0.
          2    1    1    2  501    0  0.24504837890E+02  0.40391783836E+02 -0.35951358807E+03  0.36260447224E+03  0.00000000000E+00 0. -1.
          1    1    1    2  502    0  0.25075403121E+02 -0.36012947442E+02  0.25070037146E+03  0.25451205173E+03  0.00000000000E+00 0. -1.
         22    1    3    3    0    0  0.34832667598E+02 -0.15175858142E+02  0.51909685842E+02  0.64329129378E+02  0.00000000000E+00 0. -1.
         22    1    3    3    0    0 -0.84412908610E+02  0.10797021748E+02  0.16776994980E+02  0.86738586449E+02  0.00000000000E+00 0. -1.
</event>
<event>
 7    1  0.6253338E-006  0.2256836E+03  0.7818608E-02  0.1194730E+00
          2   -1    0    0  502    0  0.00000000000E+00  0.00000000000E+00  0.87913305800E+03  0.87913305800E+03  0.00000000000E+00 0. -1.
          1   -1    0    0  501    0 -0.00000000000E+00 -0.00000000000E+00 -0.67630336433E+03  0.67630336433E+03  0.00000000000E+00 0. -1.
         25    2    1    2    0    0  0.29860795985E+03 -0.98311169215E+02  0.86387915265E+02  0.34916828123E+03  0.12499526805E+03 0.  0.
          2    1    1    2  501    0 -0.10604493011E+03  0.44950002888E+01 -0.52208812797E+03  0.53276800354E+03  0.00000000000E+00 0. -1.
          1    1    1    2  502    0 -0.19256302974E+03  0.93816168926E+02  0.63852990637E+03  0.67350013756E+03  0.00000000000E+00 0. -1.
         22    1    3    3    0    0  0.22740133399E+03 -0.17766866716E+02  0.37856001845E+02  0.23121441376E+03  0.00000000000E+00 0.  1.
         22    1    3    3    0    0  0.71206625856E+02 -0.80544302498E+02  0.48531913420E+02  0.11795386747E+03  0.00000000000E+00 0.  1.
</event>
<event>
 7    1  0.6253338E-006  0.3022264E+03  0.7818608E-02  0.1191000E+00
          2   -1    0    0  502    0  0.00000000000E+00  0.00000000000E+00  0.15055862740E+04  0.15055862740E+04  0.00000000000E+00 0. -1.
          1   -1    0    0  501    0 -0.00000000000E+00 -0.00000000000E+00 -0.19283320616E+03  0.19283320616E+03  0.00000000000E+00 0. -1.
         25    2    1    2    0    0  0.28531078136E+03  0.13854147445E+03  0.17837866823E+03  0.38475719720E+03  0.12499267743E+03 0.  0.
          2    1    1    2  501    0 -0.57885638303E+02  0.58889843136E+02 -0.46650900838E+02  0.94842328606E+02  0.00000000000E+00 0. -1.
          1    1    1    2  502    0 -0.22742514306E+03 -0.19743131759E+03  0.11810253004E+04  0.12188199543E+04  0.00000000000E+00 0. -1.
         22    1    3    3    0    0  0.12910040416E+03  0.32625931045E+02  0.13797058750E+03  0.19174787808E+03  0.00000000000E+00 0. -1.
         22    1    3    3    0    0  0.15621037720E+03  0.10591554340E+03  0.40408080733E+02  0.19300931912E+03  0.00000000000E+00 0. -1.
</event>
<event>
 7    1  0.6253338E-006  0.7402401E+02  0.7818608E-02  0.1414068E+00
          2   -1    0    0  502    0  0.00000000000E+00  0.00000000000E+00  0.27342628013E+04  0.27342628013E+04  0.00000000000E+00 0. -1.
          1   -1    0    0  501    0 -0.00000000000E+00 -0.00000000000E+00 -0.22777749272E+03  0.22777749272E+03  0.00000000000E+00 0. -1.
         25    2    1    2    0    0  0.32012376877E+02 -0.59573783431E+02 -0.35195570176E+02  0.14640595756E+03  0.12498859270E+03 0.  0.
          2    1    1    2  501    0  0.34051931853E+02  0.25951022025E+02 -0.13310520830E+03  0.13982126478E+03  0.00000000000E+00 0. -1.
          1    1    1    2  502    0 -0.66064308730E+02  0.33622761406E+02  0.26747860871E+04  0.26758130717E+04  0.00000000000E+00 0. -1.
         22    1    3    3    0    0  0.70231833394E+02 -0.61683495063E+02 -0.49219062722E+02  0.10564033378E+03  0.00000000000E+00 0.  1.
         22    1    3    3    0    0 -0.38219456517E+02  0.21097116322E+01  0.14023492546E+02  0.40765623788E+02  0.00000000000E+00 0.  1.
</event>
<event>
 7    1  0.6253338E-006  0.2701251E+03  0.7818608E-02  0.1276786E+00
          2   -1    0    0  502    0  0.00000000000E+00  0.00000000000E+00  0.62662002900E+03  0.62662002900E+03  0.00000000000E+00 0. -1.
          1   -1    0    0  501    0 -0.00000000000E+00 -0.00000000000E+00 -0.14692926401E+04  0.14692926401E+04  0.00000000000E+00 0. -1.
         25    2    1    2    0    0 -0.21928721970E+02 -0.24680828047E+03 -0.43121991939E+03  0.51280708744E+03  0.12500117559E+03 0.  0.
          2    1    1    2  501    0 -0.33064856374E+02 -0.19289500380E+02 -0.96537162455E+03  0.96613029299E+03  0.00000000000E+00 0. -1.
          1    1    1    2  502    0  0.54993578344E+02  0.26609778085E+03  0.55391893285E+03  0.61697528865E+03  0.00000000000E+00 0. -1.
         22    1    3    3    0    0 -0.45229911511E+02 -0.22492962679E+03 -0.42063420297E+03  0.47913694766E+03  0.00000000000E+00 0. -1.
         22    1    3    3    0    0  0.23301189541E+02 -0.21878653676E+02 -0.10585716413E+02  0.33670139778E+02  0.00000000000E+00 0. -1.
</event>
<event>
 7    1  0.6253338E-006  0.4696972E+02  0.7818608E-02  0.1557372E+00
          2   -1    0    0  502    0  0.00000000000E+00  0.00000000000E+00  0.17735322193E+04  0.17735322193E+04  0.00000000000E+00 0. -1.
          1   -1    0    0  501    0 -0.00000000000E+00 -0.00000000000E+00 -0.18611103784E+02  0.18611103784E+02  0.00000000000E+00 0. -1.
         25    2    1    2    0    0 -0.47194396219E+02 -0.34617702356E+02  0.10690243593E+04  0.10778978278E+04  0.12499979977E+03 0.  0.
          2    1    1    2  501    0  0.26460570793E+01  0.24514949518E+02 -0.20883200806E+01  0.24745614737E+02  0.00000000000E+00 0. -1.
          1    1    1    2  502    0  0.44548339140E+02  0.10102752838E+02  0.68798507624E+03  0.68949988054E+03  0.00000000000E+00 0. -1.
         22    1    3    3    0    0 -0.59632969175E+02 -0.40817944769E+02  0.29407597507E+03  0.30282482517E+03  0.00000000000E+00 0.  1.
         22    1    3    3    0    0  0.12438572956E+02  0.62002424125E+01  0.77494838425E+03  0.77507300260E+03  0.00000000000E+00 0.  1.
</event>
<event>
 7    1  0.6253338E-006  0.5793224E+02  0.7818608E-02  0.1472933E+00
          2   -1    0    0  502    0  0.00000000000E+00  0.00000000000E+00  0.19117934629E+04  0.19117934629E+04  0.00000000000E+00 0. -1.
          1   -1    0    0  501    0 -0.00000000000E+00 -0.00000000000E+00 -0.97763867542E+03  0.97763867542E+03  0.00000000000E+00 0. -1.
         25    2    1    2    0    0 -0.45956768917E+02 -0.83986041351E+01  0.68171699688E+02  0.14984916510E+03  0.12499932193E+03 0.  0.
          2    1    1    2  501    0  0.39051191134E+02  0.43024072019E+02 -0.93572585977E+03  0.93752810675E+03  0.00000000000E+00 0. -1.
          1    1    1    2  502    0  0.69055777829E+01 -0.34625467884E+02  0.18017089476E+04  0.18020548665E+04  0.00000000000E+00 0. -1.
         22    1    3    3    0    0 -0.37007346167E+02 -0.65380889409E+02  0.31279625803E+02  0.81379477515E+02  0.00000000000E+00 0.  1.
         22    1    3    3    0    0 -0.89494227504E+01  0.56982285274E+02  0.36892073885E+02  0.68469687586E+02  0.00000000000E+00 0.  1.
</event>
<event>
 7    1  0.6253338E-006  0.6949636E+02  0.7818608E-02  0.1372227E+00
          2   -1    0    0  502    0  0.00000000000E+00  0.00000000000E+00  0.41449112633E+03  0.41449112633E+03  0.00000000000E+00 0. -1.
          1   -1    0    0  501    0 -0.00000000000E+00 -0.00000000000E+00 -0.10347479839E+03  0.10347479839E+03  0.00000000000E+00 0. -1.
         25    2    1    2    0    0  0.87674049558E+02  0.86851667617E+01  0.73160607595E+02  0.16952714182E+03  0.12499922489E+03 0.  0.
          2    1    1    2  501    0 -0.44035867505E+02  0.46072514193E+02 -0.30816941349E+02  0.70792076287E+02  0.00000000000E+00 0. -1.
          1    1    1    2  502    0 -0.43638182054E+02 -0.54757680955E+02  0.26867266169E+03  0.27764670662E+03  0.00000000000E+00 0. -1.
         22    1    3    3    0    0  0.36644152786E+02  0.46563561136E+02  0.86249104235E+02  0.10464161285E+03  0.00000000000E+00 0. -1.
         22    1    3    3    0    0  0.51029896772E+02 -0.37878394375E+02 -0.13088496639E+02  0.64885528966E+02  0.00000000000E+00 0. -1.
</event>
<event>
 7    1  0.6253338E-006  0.8975590E+02  0.7818608E-02  0.1429096E+00
          2   -1    0    0  502    0  0.00000000000E+00  0.00000000000E+00  0.22068253446E+04  0.22068253446E+04  0.00000000000E+00 0. -1.
          1   -1    0    0  501    0 -0.00000000000E+00 -0.00000000000E+00 -0.29944954237E+02  0.29944954237E+02  0.00000000000E+00 0. -1.
         25    2    1    2    0    0 -0.77281118837E+02 -0.72946277058E+02  0.47774367750E+03  0.50513101107E+03  0.12499914514E+03 0.  0.
          2    1    1    2  501    0  0.75872748170E+02  0.41513963539E+02  0.10007888492E+03  0.13227194068E+03  0.00000000000E+00 0. -1.
          1    1    1    2  502    0  0.14083706661E+01  0.31432313519E+02  0.15990578279E+04  0.15993673471E+04  0.00000000000E+00 0. -1.
         22    1    3    3    0    0  0.69148515908E+01  0.24072256781E+02  0.28782942125E+02  0.38154245851E+02  0.00000000000E+00 0.  1.
         22    1    3    3    0    0 -0.84195970427E+02 -0.97018533840E+02  0.44896073537E+03  0.46697676521E+03  0.00000000000E+00 0.  1.
</event>
<event>
 7    1  0.6253338E-006  0.4756288E+02  0.7818608E-02  0.1487203E+00
          2   -1    0    0  502    0  0.00000000000E+00  0.00000000000E+00  0.14662828185E+04  0.14662828185E+04  0.00000000000E+00 0. -1.
          1   -1    0    0  501    0 -0.00000000000E+00 -0.00000000000E+00 -0.73774113781E+02  0.73774113781E+02  0.00000000000E+00 0. -1.
         25    2    1    2    0    0 -0.71853662098E+02 -0.27462362962E+02  0.19362376360E+03  0.24296322294E+03  0.12499534284E+03 0.  0.
          2    1    1    2  501    0  0.24773546747E+02  0.29967578597E+02 -0.40888648665E+02  0.56423984041E+02  0.00000000000E+00 0. -1.
          1    1    1    2  502    0  0.47080115350E+02 -0.25052156348E+01  0.12397735897E+04  0.12406697253E+04  0.00000000000E+00 0. -1.
         22    1    3    3    0    0 -0.61849442688E+02  0.37230447055E+02  0.58872040315E+02  0.93152438936E+02  0.00000000000E+00 0.  1.
         22    1    3    3    0    0 -0.10004219409E+02 -0.64692810017E+02  0.13475172329E+03  0.14981078400E+03  0.00000000000E+00 0.  1.
</event>
<event>
 7    1  0.6253338E-006  0.1159992E+03  0.7818608E-02  0.1278889E+00
          2   -1    0    0  502    0  0.00000000000E+00  0.00000000000E+00  0.62397863140E+03  0.62397863140E+03  0.00000000000E+00 0. -1.
          1   -1    0    0  501    0 -0.00000000000E+00 -0.00000000000E+00 -0.39575815586E+03  0.39575815586E+03  0.00000000000E+00 0. -1.
         25    2    1    2    0    0  0.18787134303E+03 -0.43141635676E+02  0.63226857978E+01  0.22983024200E+03  0.12500048609E+03 0.  0.
          2    1    1    2  501    0 -0.10050153586E+03  0.42980411876E+02 -0.26948894221E+03  0.29081293728E+03  0.00000000000E+00 0. -1.
          1    1    1    2  502    0 -0.87369807164E+02  0.16122379969E+00  0.49138673194E+03  0.49909360798E+03  0.00000000000E+00 0. -1.
         22    1    3    3    0    0  0.16823703383E+03 -0.41068318870E+02 -0.41510462677E+02  0.17808263497E+03  0.00000000000E+00 0.  1.
         22    1    3    3    0    0  0.19634309195E+02 -0.20733168054E+01  0.47833148474E+02  0.51747607028E+02  0.00000000000E+00 0.  1.
</event>
<event>
 7    1  0.6253338E-006  0.7121336E+02  0.7818608E-02  0.1386442E+00
          2   -1    0    0  502    0  0.00000000000E+00  0.00000000000E+00  0.12485593257E+04  0.12485593257E+04  0.00000000000E+00 0. -1.
          1   -1    0    0  501    0 -0.00000000000E+00 -0.00000000000E+00 -0.47873416533E+03  0.47873416533E+03  0.00000000000E+00 0. -1.
         25    2    1    2    0    0  0.59245907465E+01 -0.21484414230E+02  0.12279051497E+03  0.17663170114E+03  0.12499826579E+03 0.  0.
          2    1    1    2  501    0  0.46349604361E+02 -0.30312045423E+02 -0.44887782776E+03  0.45228133963E+03  0.00000000000E+00 0. -1.
          1    1    1    2  502    0 -0.52274195107E+02  0.51796459653E+02  0.10959124732E+04  0.10983804503E+04  0.00000000000E+00 0. -1.
         22    1    3    3    0    0  0.58551761109E+02 -0.31454754410E+02  0.95943023605E+02  0.11671664013E+03  0.00000000000E+00 0.  1.
         22    1    3    3    0    0 -0.52627170363E+02  0.99703401800E+01  0.26847491368E+02  0.59915061015E+02  0.00000000000E+00 0.  1.
</event>
<event>
 7    1  0.6253338E-006  0.2292378E+03  0.7818608E-02  0.1186725E+00
          2   -1    0    0  502    0  0.00000000000E+00  0.00000000000E+00  0.14492202074E+04  0.14492202074E+04  0.00000000000E+00 0. -1.
          1   -1    0    0  501    0 -0.00000000000E+00 -0.00000000000E+00 -0.91781192185E+03  0.91781192185E+03  0.00000000000E+00 0. -1.
         25    2    1    2    0    0  0.34799067985E+02  0.19475098262E+03  0.20711579046E+03  0.31250585517E+03  0.12499615391E+03 0.  0.
          2    1    1    2  501    0  0.76601900770E+02 -0.21962123342E+03 -0.84665738954E+03  0.87802623687E+03  0.00000000000E+00 0. -1.
          1    1    1    2  502    0 -0.11140096876E+03  0.24870250796E+02  0.11709498846E+04  0.11765000372E+04  0.00000000000E+00 0. -1.
         22    1    3    3    0    0  0.69833005307E+02  0.10036384591E+03  0.15994113209E+03  0.20132241786E+03  0.00000000000E+00 0.  1.
         22    1    3    3    0    0 -0.35033937322E+02  0.94387136709E+02  0.47174658371E+02  0.11118343731E+03  0.00000000000E+00 0.  1.
</event>
<event>
 7    1  0.6253338E-006  0.5541593E+02  0.7818608E-02  0.1443105E+00
          2   -1    0    0  502    0  0.00000000000E+00  0.00000000000E+00  0.29322724894E+03  0.29322724894E+03  0.00000000000E+00 0. -1.
          1   -1    0    0  501    0 -0.00000000000E+00 -0.00000000000E+00 -0.18423257595E+03  0.18423257595E+03  0.00000000000E+00 0. -1.
         25    2    1    2    0    0 -0.74031423876E+02 -0.24766315673E+01  0.11428202490E+03  0.18486276897E+03  0.12500830657E+03 0.  0.
          2    1    1    2  501    0  0.42305627495E+02  0.35604183073E+02 -0.13987509692E+03  0.15040766838E+03  0.00000000000E+00 0. -1.
          1    1    1    2  502    0  0.31725796381E+02 -0.33127551505E+02  0.13458774500E+03  0.14218938754E+03  0.00000000000E+00 0. -1.
         22    1    3    3    0    0 -0.40432439628E+01 -0.32087373051E+02  0.10309586084E+03  0.10804954351E+03  0.00000000000E+00 0.  1.
         22    1    3    3    0    0 -0.69988179913E+02  0.29610741483E+02  0.11186164062E+02  0.76813225458E+02  0.00000000000E+00 0.  1.
</event>
<event>
 7    1  0.6253338E-006  0.1088653E+03  0.7818608E-02  0.1289921E+00
          2   -1    0    0  502    0  0.00000000000E+00  0.00000000000E+00  0.33339486222E+04  0.33339486222E+04  0.00000000000E+00 0. -1.
          1   -1    0    0  501    0 -0.00000000000E+00 -0.00000000000E+00 -0.16970236324E+03  0.16970236324E+03  0.00000000000E+00 0. -1.
         25    2    1    2    0    0  0.55581251289E+02  0.10051472928E+03  0.47606458325E+03  0.50541677530E+03  0.12496456713E+03 0.  0.
          2    1    1    2  501    0 -0.83628638989E+02  0.64836811687E+01 -0.14252035661E+03  0.16537182175E+03  0.00000000000E+00 0. -1.
          1    1    1    2  502    0  0.28047387700E+02 -0.10699841045E+03  0.28307020323E+04  0.28328623884E+04  0.00000000000E+00 0. -1.
         22    1    3    3    0    0  0.52232399969E+02 -0.66088628297E+01  0.24658711458E+03  0.25214500937E+03  0.00000000000E+00 0. -1.
         22    1    3    3    0    0  0.33488513194E+01  0.10712359211E+03  0.22947746867E+03  0.25327176593E+03  0.00000000000E+00 0. -1.
</event>
<event>
 7    1  0.6253338E-006  0.6373146E+02  0.7818608E-02  0.1445436E+00
          2   -1    0    0  502    0  0.00000000000E+00  0.00000000000E+00  0.26513783408E+04  0.26513783408E+04  0.00000000000E+00 0. -1.
          1   -1    0    0  501    0 -0.00000000000E+00 -0.00000000000E+00 -0.96122367722E+02  0.96122367722E+02  0.00000000000E+00 0. -1.
         25    2    1    2    0    0 -0.92376408850E+02 -0.33154897175E+02  0.83591645769E+02  0.17956575680E+03  0.12499459849E+03 0.  0.
          2    1    1    2  501    0  0.56004247245E+02  0.18536973234E+02 -0.29849364578E+02  0.66114141089E+02  0.00000000000E+00 0. -1.
          1    1    1    2  502    0  0.36372161605E+02  0.14617923941E+02  0.25015136919E+04  0.25018208107E+04  0.00000000000E+00 0. -1.
         22    1    3    3    0    0 -0.39369272434E+02  0.91579364037E+01  0.10163901549E+03  0.10938142841E+03  0.00000000000E+00 0.  1.
         22    1    3    3    0    0 -0.53007136416E+02 -0.42312833579E+02 -0.18047369726E+02  0.70184328382E+02  0.00000000000E+00 0.  1.
</event>
<event>
 7    1  0.6253338E-006  0.1073148E+03  0.7818608E-02  0.1273715E+00
          2   -1    0    0  502    0  0.00000000000E+00  0.00000000000E+00  0.14027581537E+03  0.14027581537E+03  0.00000000000E+00 0. -1.
          1   -1    0    0  501    0 -0.00000000000E+00 -0.00000000000E+00 -0.41921508872E+03  0.41921508872E+03  0.00000000000E+00 0. -1.
         25    2    1    2    0    0 -0.36167999296E+02 -0.30022916027E+02 -0.59580005612E+02  0.14623240343E+03  0.12499855633E+03 0.  0.
          2    1    1    2  501    0  0.11351982229E+03 -0.44362298341E+02 -0.26877100827E+03  0.29511458529E+03  0.00000000000E+00 0. -1.
          1    1    1    2  502    0 -0.77351822990E+02  0.74385214368E+02  0.49411740528E+02  0.11814391537E+03  0.00000000000E+00 0. -1.
         22    1    3    3    0    0 -0.83176962364E+01  0.27897881027E+02  0.26119624448E+02  0.39111515156E+02  0.00000000000E+00 0.  1.
         22    1    3    3    0    0 -0.27850303059E+02 -0.57920797054E+02 -0.85699630060E+02  0.10712088827E+03  0.00000000000E+00 0.  1.
</event>
<event>
 7    1  0.6253338E-006  0.1551542E+03  0.7818608E-02  0.1280161E+00
          2   -1    0    0  502    0  0.00000000000E+00  0.00000000000E+00  0.37755528900E+04  0.37755528900E+04  0.00000000000E+00 0. -1.
          1   -1    0    0  501    0 -0.00000000000E+00 -0.00000000000E+00 -0.59844441587E+03  0.59844441587E+03  0.00000000000E+00 0. -1.
         25    2    1    2    0    0  0.55093207505E+02 -0.16490981085E+03 -0.12939182429E+03  0.25019543739E+03  0.12500002188E+03 0.  0.
          2    1    1    2  501    0  0.44903492408E+02  0.46351130063E+02 -0.40447292018E+03  0.40958893302E+03  0.00000000000E+00 0. -1.
          1    1    1    2  502    0 -0.99996699913E+02  0.11855868079E+03  0.37109732186E+04  0.37142129355E+04  0.00000000000E+00 0. -1.
         22    1    3    3    0    0  0.35400530954E+01 -0.44617391157E+02  0.22170534490E+02  0.49947734375E+02  0.00000000000E+00 0.  1.
         22    1    3    3    0    0  0.51553154409E+02 -0.12029241969E+03 -0.15156235878E+03  0.20024770302E+03  0.00000000000E+00 0.  1.
</event>
<event>
 7    1  0.6253338E-006  0.1010163E+03  0.7818608E-02  0.1390011E+00
          2   -1    0    0  502    0  0.00000000000E+00  0.00000000000E+00  0.11652554320E+04  0.11652554320E+04  0.00000000000E+00 0. -1.
          1   -1    0    0  501    0 -0.00000000000E+00 -0.00000000000E+00 -0.10566147363E+04  0.10566147363E+04  0.00000000000E+00 0. -1.
         25    2    1    2    0    0 -0.29191288870E+02 -0.71860454914E+02  0.47666887227E+03  0.49886447286E+03  0.12504596019E+03 0.  0.
          2    1    1    2  501    0  0.77142388799E+01 -0.37142825485E+02 -0.10406143127E+04  0.10413055492E+04  0.00000000000E+00 0. -1.
          1    1    1    2  502    0  0.21477049990E+02  0.10900328040E+03  0.67258613612E+03  0.68170014619E+03  0.00000000000E+00 0. -1.
         22    1    3    3    0    0  0.34419413966E+02 -0.52952568659E+02  0.35212551988E+03  0.35774439525E+03  0.00000000000E+00 0.  1.
         22    1    3    3    0    0 -0.63610702836E+02 -0.18907886256E+02  0.12454335240E+03  0.14112007761E+03  0.00000000000E+00 0.  1.
</event>
<event>
 7    1  0.6253338E-006  0.1700348E+03  0.7818608E-02  0.1339440E+00
          2   -1    0    0  502    0  0.00000000000E+00  0.00000000000E+00  0.12642482948E+04  0.12642482948E+04  0.00000000000E+00 0. -1.
          1   -1    0    0  501    0 -0.00000000000E+00 -0.00000000000E+00 -0.76549912020E+03  0.76549912020E+03  0.00000000000E+00 0. -1.
         25    2    1    2    0    0  0.68710994488E+02 -0.12002266849E+03 -0.37087551847E+03  0.41509063200E+03  0.12499976345E+03 0.  0.
          2    1    1    2  501    0  0.42051037035E+01 -0.34114382645E+02 -0.36585489317E+03  0.36746602136E+03  0.00000000000E+00 0. -1.
          1    1    1    2  502    0 -0.72916098192E+02  0.15413705113E+03  0.12354795862E+04  0.12471907616E+04  0.00000000000E+00 0. -1.
         22    1    3    3    0    0  0.10255988548E+03 -0.84862597301E+02 -0.22687999044E+03  0.26304889391E+03  0.00000000000E+00 0.  1.
         22    1    3    3    0    0 -0.33848890989E+02 -0.35160071189E+02 -0.14399552803E+03  0.15204173809E+03  0.00000000000E+00 0.  1.
</event>
<event>
 7    1  0.6253338E-006  0.4855561E+02  0.7818608E-02  0.1465682E+00
          2   -1    0    0  502    0  0.00000000000E+00  0.00000000000E+00  0.64848128895E+02  0.64848128895E+02  0.00000000000E+00 0. -1.
          1   -1    0    0  501    0 -0.00000000000E+00 -0.00000000000E+00 -0.31361763285E+04  0.31361763285E+04  0.00000000000E+00 0. -1.
         25    2    1    2    0    0  0.39299193104E+01 -0.22904124295E+02 -0.23580866844E+04  0.23615121013E+04  0.12500620009E+03 0.  0.
          2    1    1    2  501    0  0.31676615735E+02  0.55916568816E+02 -0.76549136363E+03  0.76818428677E+03  0.00000000000E+00 0. -1.
          1    1    1    2  502    0 -0.35606535046E+02 -0.33012444521E+02  0.52249848376E+02  0.71328069415E+02  0.00000000000E+00 0. -1.
         22    1    3    3    0    0 -0.40922013191E+01 -0.33566483841E+02 -0.23316850658E+04  0.23319302521E+04  0.00000000000E+00 0. -1.
         22    1    3    3    0    0  0.80221206295E+01  0.10662359546E+02 -0.26401618647E+02  0.29581849126E+02  0.00000000000E+00 0. -1.
</event>
<event>
 7    1  0.6253338E-006  0.5607597E+02  0.7818608E-02  0.1450407E+00
          2   -1    0    0  502    0  0.00000000000E+00  0.00000000000E+00  0.14760505799E+04  0.14760505799E+04  0.00000000000E+00 0. -1.
          1   -1    0    0  501    0 -0.00000000000E+00 -0.00000000000E+00 -0.80206511924E+02  0.80206511924E+02  0.00000000000E+00 0. -1.
         25    2    1    2    0    0 -0.19071132922E+02  0.92486172383E+02  0.43128157624E+03  0.45885368705E+03  0.12500203169E+03 0.  0.
          2    1    1    2  501    0 -0.26745462561E+01 -0.42860986890E+02 -0.58686580037E+02  0.72720919076E+02  0.00000000000E+00 0. -1.
          1    1    1    2  502    0  0.21745679179E+02 -0.49625185493E+02  0.10232490718E+04  0.10246824857E+04  0.00000000000E+00 0. -1.
         22    1    3    3    0    0  0.49875876018E+02  0.25735097736E+02  0.21561481686E+03  0.22279956803E+03  0.00000000000E+00 0. -1.
         22    1    3    3    0    0 -0.68947008940E+02  0.66751074647E+02  0.21566675938E+03  0.23605411903E+03  0.00000000000E+00 0. -1.
</event>
<event>
 7    1  0.6253338E-006  0.6161881E+02  0.7818608E-02  0.1445849E+00
          2   -1    0    0  502    0  0.00000000000E+00  0.00000000000E+00  0.51990928407E+03  0.51990928407E+03  0.00000000000E+00 0. -1.
          1   -1    0    0  501    0 -0.00000000000E+00 -0.00000000000E+00 -0.73068961916E+03  0.73068961916E+03  0.00000000000E+00 0. -1.
         25    2    1    2    0    0 -0.72927131433E+02 -0.48258734094E+01 -0.13280152990E+03  0.19648366457E+03  0.12501171364E+03 0.  0.
          2    1    1    2  501    0  0.48982407502E+02  0.37389527141E+02 -0.56352770727E+03  0.56688687570E+03  0.00000000000E+00 0. -1.
          1    1    1    2  502    0  0.23944723931E+02 -0.32563653732E+02  0.48554890209E+03  0.48722836295E+03  0.00000000000E+00 0. -1.
         22    1    3    3    0    0  0.13862453395E+02 -0.37338170172E+02 -0.81115633893E+02  0.90366213973E+02  0.00000000000E+00 0.  1.
         22    1    3    3    0    0 -0.86789584828E+02  0.32512296763E+02 -0.51685896008E+02  0.10611745060E+03  0.00000000000E+00 0.  1.
</event>
<event>
 7    1  0.6253338E-006  0.1376234E+03  0.7818608E-02  0.1388415E+00
          2   -1    0    0  502    0  0.00000000000E+00  0.00000000000E+00  0.11898943564E+04  0.11898943564E+04  0.00000000000E+00 0. -1.
          1   -1    0    0  501    0 -0.00000000000E+00 -0.00000000000E+00 -0.13868806252E+04  0.13868806252E+04  0.00000000000E+00 0. -1.
         25    2    1    2    0    0 -0.11219677343E+03 -0.32714656343E+02  0.10473383699E+04  0.10612262425E+04  0.12500044860E+03 0.  0.
          2    1    1    2  501    0  0.12494177956E+03  0.57875536490E+02 -0.13749933321E+04  0.13818707210E+04  0.00000000000E+00 0. -1.
          1    1    1    2  502    0 -0.12745006130E+02 -0.25160880147E+02  0.13066869351E+03  0.13367801814E+03  0.00000000000E+00 0. -1.
         22    1    3    3    0    0 -0.88916174018E+02 -0.17306178018E+02  0.30026485171E+03  0.31363126594E+03  0.00000000000E+00 0.  1.
         22    1    3    3    0    0 -0.23280599416E+02 -0.15408478325E+02  0.74707351816E+03  0.74759497661E+03  0.00000000000E+00 0.  1.
</event>
<event>
 7    1  0.6253338E-006  0.1046735E+03  0.7818608E-02  0.1297566E+00
          2   -1    0    0  502    0  0.00000000000E+00  0.00000000000E+00  0.10744292653E+04  0.10744292653E+04  0.00000000000E+00 0. -1.
          1   -1    0    0  501    0 -0.00000000000E+00 -0.00000000000E+00 -0.14361470403E+03  0.14361470403E+03  0.00000000000E+00 0. -1.
         25    2    1    2    0    0 -0.71316470115E+02 -0.19503911673E+02  0.12789282871E+03  0.19351533192E+03  0.12500066630E+03 0.  0.
          2    1    1    2  501    0  0.98837760587E+02 -0.56938443425E+02 -0.79077504329E+02  0.13879532034E+03  0.00000000000E+00 0. -1.
          1    1    1    2  502    0 -0.27521290472E+02  0.76442355098E+02  0.88199923692E+03  0.88573331709E+03  0.00000000000E+00 0. -1.
         22    1    3    3    0    0 -0.90381131164E+02 -0.19177499036E+02  0.35183610056E+02  0.98865624746E+02  0.00000000000E+00 0. -1.
         22    1    3    3    0    0  0.19064661049E+02 -0.32641263731E+00  0.92709218650E+02  0.94649707178E+02  0.00000000000E+00 0. -1.
</event>
<event>
 7    1  0.6253338E-006  0.1143011E+03  0.7818608E-02  0.1431425E+00
          2   -1    0    0  502    0  0.00000000000E+00  0.00000000000E+00  0.82882414655E+02  0.82882414655E+02  0.00000000000E+00 0. -1.
          1   -1    0    0  501    0 -0.00000000000E+00 -0.00000000000E+00 -0.73847254976E+03  0.73847254976E+03  0.00000000000E+00 0. -1.
         25    2    1    2    0    0 -0.55437092263E+02  0.75669209487E+02 -0.73268083775E+02  0.17260469877E+03  0.12500027790E+03 0.  0.
          2    1    1    2  501    0  0.76134342747E+02 -0.88353689916E+02 -0.60463344184E+03  0.61577951546E+03  0.00000000000E+00 0. -1.
          1    1    1    2  502    0 -0.20697250484E+02  0.12684480429E+02  0.22311390510E+02  0.32970750186E+02  0.00000000000E+00 0. -1.
         22    1    3    3    0    0 -0.63007679753E+02  0.97611989710E+02 -0.24704277524E+02  0.11877865789E+03  0.00000000000E+00 0. -1.
         22    1    3    3    0    0  0.75705874897E+01 -0.21942780223E+02 -0.48563806251E+02  0.53826040877E+02  0.00000000000E+00 0. -1.
</event>
<event>
 7    1  0.6253338E-006  0.1203745E+03  0.7818608E-02  0.1289304E+00
          2   -1    0    0  502    0  0.00000000000E+00  0.00000000000E+00  0.13393914644E+04  0.13393914644E+04  0.00000000000E+00 0. -1.
          1   -1    0    0  501    0 -0.00000000000E+00 -0.00000000000E+00 -0.12919172415E+03  0.12919172415E+03  0.00000000000E+00 0. -1.
         25    2    1    2    0    0 -0.14335232030E+02 -0.16886895608E+03  0.12032228289E+03  0.24253889168E+03  0.12500175605E+03 0.  0.
          2    1    1    2  501    0 -0.29038072702E+02  0.10609637628E+03 -0.21475552359E+02  0.11207519831E+03  0.00000000000E+00 0. -1.
          1    1    1    2  502    0  0.43373304732E+02  0.62772579794E+02  0.11113530097E+04  0.11139690985E+04  0.00000000000E+00 0. -1.
         22    1    3    3    0    0 -0.15427358240E+02 -0.43214229678E+01 -0.20457228577E+02  0.25984154399E+02  0.00000000000E+00 0. -1.
         22    1    3    3    0    0  0.10921262107E+01 -0.16454753311E+03  0.14077951147E+03  0.21655473729E+03  0.00000000000E+00 0. -1.
</event>
<event>
 7    1  0.6253338E-006  0.8777796E+02  0.7818608E-02  0.1323469E+00
          2   -1    0    0  502    0  0.00000000000E+00  0.00000000000E+00  0.21804521848E+04  0.21804521848E+04  0.00000000000E+00 0. -1.
          1   -1    0    0  501    0 -0.00000000000E+00 -0.00000000000E+00 -0.41660757304E+02  0.41660757304E+02  0.00000000000E+00 0. -1.
         25    2    1    2    0    0  0.26871232609E+02  0.26615937121E+02  0.76059053673E+03  0.77172162509E+03  0.12500332324E+03 0.  0.
          2    1    1    2  501    0 -0.63607904804E+02  0.60489704519E+02  0.21463020643E+02  0.90363881952E+02  0.00000000000E+00 0. -1.
          1    1    1    2  502    0  0.36736672195E+02 -0.87105641640E+02  0.13567378701E+04  0.13600274351E+04  0.00000000000E+00 0. -1.
         22    1    3    3    0    0  0.49849440445E+02 -0.65711027575E+00  0.69726252043E+03  0.69904250293E+03  0.00000000000E+00 0.  1.
         22    1    3    3    0    0 -0.22978207837E+02  0.27273047397E+02  0.63328016303E+02  0.72679122164E+02  0.00000000000E+00 0.  1.
</event>
<event>
 7    1  0.6253338E-006  0.9819978E+02  0.7818608E-02  0.1381691E+00
          2   -1    0    0  502    0  0.00000000000E+00  0.00000000000E+00  0.21306867604E+04  0.21306867604E+04  0.00000000000E+00 0. -1.
          1   -1    0    0  501    0 -0.00000000000E+00 -0.00000000000E+00 -0.72556660328E+03  0.72556660328E+03  0.00000000000E+00 0. -1.
         25    2    1    2    0    0 -0.13967437029E+03 -0.39063410904E+01  0.65581412158E+03  0.68208565563E+03  0.12499796131E+03 0.  0.
          2    1    1    2  501    0  0.97956355569E+02  0.25871306658E+01 -0.70876127919E+03  0.71550310392E+03  0.00000000000E+00 0. -1.
          1    1    1    2  502    0  0.41718014721E+02  0.13192104245E+01  0.14580673147E+04  0.14586646041E+04  0.00000000000E+00 0. -1.
         22    1    3    3    0    0  0.18899866722E+02  0.49113635573E+01  0.16652852482E+03  0.16766954414E+03  0.00000000000E+00 0.  1.
         22    1    3    3    0    0 -0.15857423701E+03 -0.88177046477E+01  0.48928559676E+03  0.51441611149E+03  0.00000000000E+00 0.  1.
</event>
<event>
 7    1  0.6253338E-006  0.1179089E+03  0.7818608E-02  0.1252259E+00
          2   -1    0    0  502    0  0.00000000000E+00  0.00000000000E+00  0.15525546222E+04  0.15525546222E+04  0.00000000000E+00 0. -1.
          1   -1    0    0  501    0 -0.00000000000E+00 -0.00000000000E+00 -0.20306794006E+03  0.20306794006E+03  0.00000000000E+00 0. -1.
         25    2    1    2    0    0  0.11465078040E+03 -0.61016498692E+02  0.24148875052E+03  0.30134717776E+03  0.12500196141E+03 0.  0.
          2    1    1    2  501    0 -0.10975337439E+03 -0.50284499239E+02 -0.14932763509E+03  0.19202363567E+03  0.00000000000E+00 0. -1.
          1    1    1    2  502    0 -0.48974060084E+01  0.11130099793E+03  0.12573255668E+04  0.12622517489E+04  0.00000000000E+00 0. -1.
         22    1    3    3    0    0  0.83121382887E+01 -0.72752336847E+02  0.94684340246E+02  0.11969594165E+03  0.00000000000E+00 0. -1.
         22    1    3    3    0    0  0.10633864211E+03  0.11735838155E+02  0.14680441028E+03  0.18165123611E+03  0.00000000000E+00 0. -1.
</event>
<event>
 7    1  0.6253338E-006  0.2447313E+02  0.7818608E-02  0.1685483E+00
          2   -1    0    0  502    0  0.00000000000E+00  0.00000000000E+00  0.11494157552E+04  0.11494157552E+04  0.00000000000E+00 0. -1.
          1   -1    0    0  501    0 -0.00000000000E+00 -0.00000000000E+00 -0.25817859749E+03  0.25817859749E+03  0.00000000000E+00 0. -1.
         25    2    1    2    0    0 -0.37416081036E+02 -0.14766715668E+02  0.29218301884E+03  0.32033393923E+03  0.12499958845E+03 0.  0.
          2    1    1    2  501    0  0.24234126920E+02 -0.32554167169E+01 -0.24334249876E+03  0.24456790948E+03  0.00000000000E+00 0. -1.
          1    1    1    2  502    0  0.13181954116E+02  0.18022132385E+02  0.84239663759E+03  0.84269250394E+03  0.00000000000E+00 0. -1.
         22    1    3    3    0    0  0.22335690583E+02  0.16795776647E+02  0.92411139192E+01  0.29434323051E+02  0.00000000000E+00 0. -1.
         22    1    3    3    0    0 -0.59751771619E+02 -0.31562492315E+02  0.28294190492E+03  0.29089961618E+03  0.00000000000E+00 0. -1.
</event>
<event>
 7    1  0.6253338E-006  0.1514289E+03  0.7818608E-02  0.1365001E+00
          2   -1    0    0  502    0  0.00000000000E+00  0.00000000000E+00  0.89799757376E+03  0.89799757376E+03  0.00000000000E+00 0. -1.
          1   -1    0    0  501    0 -0.00000000000E+00 -0.00000000000E+00 -0.83699103978E+02  0.83699103978E+02  0.00000000000E+00 0. -1.
         25    2    1    2    0    0  0.13570276044E+03 -0.11369272892E+03  0.42172991521E+03  0.47415300738E+03  0.12499470875E+03 0.  0.
          2    1    1    2  501    0 -0.11330265241E+03  0.92182008863E+02  0.37076042803E+02  0.15069720220E+03  0.00000000000E+00 0. -1.
          1    1    1    2  502    0 -0.22400108029E+02  0.21510720054E+02  0.35549251177E+03  0.35684646816E+03  0.00000000000E+00 0. -1.
         22    1    3    3    0    0  0.12904355425E+03 -0.56599666221E+02  0.19712563985E+03  0.24231029486E+03  0.00000000000E+00 0.  1.
         22    1    3    3    0    0  0.66592061974E+01 -0.57093062696E+02  0.22460427536E+03  0.23184271251E+03  0.00000000000E+00 0.  1.
</event>
<event>
 7    1  0.6253338E-006  0.6465126E+02  0.7818608E-02  0.1398673E+00
          2   -1    0    0  502    0  0.00000000000E+00  0.00000000000E+00  0.15323045543E+04  0.15323045543E+04  0.00000000000E+00 0. -1.
          1   -1    0    0  501    0 -0.00000000000E+00 -0.00000000000E+00 -0.41374809136E+03  0.41374809136E+03  0.00000000000E+00 0. -1.
         25    2    1    2    0    0  0.96622322605E+02 -0.63519264976E+02  0.93412870773E+02  0.19421949031E+03  0.12499870296E+03 0.  0.
          2    1    1    2  501    0 -0.36591714671E+02  0.41479263621E+02 -0.36049798703E+03  0.36471671411E+03  0.00000000000E+00 0. -1.
          1    1    1    2  502    0 -0.60030607933E+02  0.22040001355E+02  0.13856415792E+04  0.13871164412E+04  0.00000000000E+00 0. -1.
         22    1    3    3    0    0  0.93436615191E+02 -0.75977676170E+01  0.10739256483E+02  0.94358140936E+02  0.00000000000E+00 0.  1.
         22    1    3    3    0    0  0.31857074132E+01 -0.55921497359E+02  0.82673614289E+02  0.99861349371E+02  0.00000000000E+00 0.  1.
</event>
<event>
 7    1  0.6253338E-006  0.2104259E+03  0.7818608E-02  0.1227243E+00
          2   -1    0    0  502    0  0.00000000000E+00  0.00000000000E+00  0.10140818175E+04  0.10140818175E+04  0.00000000000E+00 0. -1.
          1   -1    0    0  501    0 -0.00000000000E+00 -0.00000000000E+00 -0.54902242007E+03  0.54902242007E+03  0.00000000000E+00 0. -1.
         25    2    1    2    0    0  0.14118660858E+03  0.22653854103E+03  0.92035264906E+02  0.30878645728E+03  0.12500086880E+03 0.  0.
          2    1    1    2  501    0 -0.68176695003E+02 -0.19265207821E+03 -0.41479138424E+03  0.46240110015E+03  0.00000000000E+00 0. -1.
          1    1    1    2  502    0 -0.73009913573E+02 -0.33886462822E+02  0.78781551678E+03  0.79191668017E+03  0.00000000000E+00 0. -1.
         22    1    3    3    0    0  0.12800108145E+03  0.20811920606E+03  0.34250694109E+02  0.24672047104E+03  0.00000000000E+00 0.  1.
         22    1    3    3    0    0  0.13185527126E+02  0.18419334973E+02  0.57784570796E+02  0.62065986245E+02  0.00000000000E+00 0.  1.
</event>
<event>
 7    1  0.7124199E-006  0.7015454E+02  0.7818608E-02  0.1384003E+00
          2   -1    0    0  502    0  0.00000000000E+00  0.00000000000E+00  0.15012501459E+04  0.15012501459E+04  0.00000000000E+00 0. -1.
          1   -1    0    0  501    0 -0.00000000000E+00 -0.00000000000E+00 -0.72015930136E+03  0.72015930136E+03  0.00000000000E+00 0. -1.
         25    2    1    2    0    0 -0.89405243507E+02  0.69276023606E+02 -0.34518852408E+03  0.38415072152E+03  0.12499677865E+03 0.  0.
          2    1    1    2  501    0  0.21174065838E+02 -0.53284837620E+02 -0.35234233167E+03  0.35697721730E+03  0.00000000000E+00 0. -1.
          1    1    1    2  502    0  0.68231177669E+02 -0.15991185987E+02  0.14786217003E+04  0.14802815084E+04  0.00000000000E+00 0. -1.
         22    1    3    3    0    0 -0.16323797387E+02 -0.12341935768E+02 -0.20602143078E+03  0.20703531022E+03  0.00000000000E+00 0. -1.
         22    1    3    3    0    0 -0.73081446120E+02  0.81617959374E+02 -0.13916709330E+03  0.17711541129E+03  0.00000000000E+00 0. -1.
</event>
<event>
 7    1  0.6253338E-006  0.5948801E+02  0.7818608E-02  0.1428067E+00
          2   -1    0    0  502    0  0.00000000000E+00  0.00000000000E+00  0.17060365790E+04  0.17060365790E+04  0.00000000000E+00 0. -1.
          1   -1    0    0  501    0 -0.00000000000E+00 -0.00000000000E+00 -0.10854320656E+02  0.10854320656E+02  0.00000000000E+00 0. -1.
         25    2    1    2    0    0 -0.21877443583E+02 -0.25681168385E+02  0.62344237011E+03  0.63674435518E+03  0.12499936021E+03 0.  0.
          2    1    1    2  501    0  0.40195913843E+02  0.69880793145E+02  0.50539841844E+03  0.51178764942E+03  0.00000000000E+00 0. -1.
          1    1    1    2  502    0 -0.18318470260E+02 -0.44199624760E+02  0.56634146984E+03  0.56835889510E+03  0.00000000000E+00 0. -1.
         22    1    3    3    0    0  0.22252933793E+02  0.10735350769E+02  0.50083306664E+03  0.50144212174E+03  0.00000000000E+00 0. -1.
         22    1    3    3    0    0 -0.44130377375E+02 -0.36416519154E+02  0.12260930347E+03  0.13530223344E+03  0.00000000000E+00 0. -1.
</event>
<event>
 7    1  0.6253338E-006  0.7818032E+02  0.7818608E-02  0.1392294E+00
          2   -1    0    0  502    0  0.00000000000E+00  0.00000000000E+00  0.29574444205E+02  0.29574444205E+02  0.00000000000E+00 0. -1.
          1   -1    0    0  501    0 -0.00000000000E+00 -0.00000000000E+00 -0.26108118646E+04  0.26108118646E+04  0.00000000000E+00 0. -1.
         25    2    1    2    0    0  0.32941475246E+02 -0.91414910715E+01 -0.28137703901E+03  0.30978447112E+03  0.12499869127E+03 0.  0.
          2    1    1    2  501    0 -0.80425209709E+02  0.13014593043E+01 -0.22750221573E+04  0.22764436572E+04  0.00000000000E+00 0. -1.
          1    1    1    2  502    0  0.47483734463E+02  0.78400317673E+01 -0.24838224062E+02  0.54158180464E+02  0.00000000000E+00 0. -1.
         22    1    3    3    0    0 -0.34127842589E+02  0.12079632596E+02 -0.25162817384E+02  0.44088485369E+02  0.00000000000E+00 0.  1.
         22    1    3    3    0    0  0.67069317835E+02 -0.21221123668E+02 -0.25621422162E+03  0.26569598576E+03  0.00000000000E+00 0.  1.
</event>
<event>
 7    1  0.6253338E-006  0.9144511E+02  0.7818608E-02  0.1316347E+00
          2   -1    0    0  502    0  0.00000000000E+00  0.00000000000E+00  0.82891611391E+03  0.82891611391E+03  0.00000000000E+00 0. -1.
          1   -1    0    0  501    0 -0.00000000000E+00 -0.00000000000E+00 -0.12959721444E+04  0.12959721444E+04  0.00000000000E+00 0. -1.
         25    2    1    2    0    0 -0.74752975175E+02 -0.12053429181E+03  0.11258671277E+03  0.22003995180E+03  0.12500115877E+03 0.  0.
          2    1    1    2  501    0 -0.42312216970E+01  0.78247854012E+02 -0.12379725809E+04  0.12404502171E+04  0.00000000000E+00 0. -1.
          1    1    1    2  502    0  0.78984196872E+02  0.42286437798E+02  0.65832983764E+03  0.66439808948E+03  0.00000000000E+00 0. -1.
         22    1    3    3    0    0 -0.21681380795E+02 -0.92672839745E+02  0.12669532296E+03  0.15846148541E+03  0.00000000000E+00 0. -1.
         22    1    3    3    0    0 -0.53071594380E+02 -0.27861452065E+02 -0.14108610183E+02  0.61578466386E+02  0.00000000000E+00 0. -1.
</event>
<event>
 7    1  0.6253338E-006  0.4702871E+02  0.7818608E-02  0.1464683E+00
          2   -1    0    0  502    0  0.00000000000E+00  0.00000000000E+00  0.61637836999E+03  0.61637836999E+03  0.00000000000E+00 0. -1.
          1   -1    0    0  501    0 -0.00000000000E+00 -0.00000000000E+00 -0.78911981146E+02  0.78911981146E+02  0.00000000000E+00 0. -1.
         25    2    1    2    0    0  0.19825220485E+02 -0.19571275635E+00  0.10885379305E+03  0.16693319763E+03  0.12499786614E+03 0.  0.
          2    1    1    2  501    0 -0.83353546568E+01 -0.46284133723E+02 -0.37278963219E+02  0.60011834420E+02  0.00000000000E+00 0. -1.
          1    1    1    2  502    0 -0.11489865828E+02  0.46479846479E+02  0.46589155901E+03  0.46834531908E+03  0.00000000000E+00 0. -1.
         22    1    3    3    0    0 -0.30655638169E+02  0.40878242540E+02  0.15997986619E+02  0.53541894256E+02  0.00000000000E+00 0.  1.
         22    1    3    3    0    0  0.50480858654E+02 -0.41073955297E+02  0.92855806430E+02  0.11339130338E+03  0.00000000000E+00 0.  1.
</event>
<event>
 7    1  0.6282535E-006  0.6240332E+02  0.7818608E-02  0.1524705E+00
          2   -1    0    0  502    0  0.00000000000E+00  0.00000000000E+00  0.12027091635E+04  0.12027091635E+04  0.00000000000E+00 0. -1.
          1   -1    0    0  501    0 -0.00000000000E+00 -0.00000000000E+00 -0.17491354362E+04  0.17491354362E+04  0.00000000000E+00 0. -1.
         25    2    1    2    0    0  0.59437296616E+02 -0.52598473848E+01 -0.11189609134E+04  0.11275017094E+04  0.12500448307E+03 0.  0.
          2    1    1    2  501    0 -0.36236825856E+01 -0.22662143157E+02 -0.62488085823E+03  0.62530215959E+03  0.00000000000E+00 0. -1.
          1    1    1    2  502    0 -0.55813614030E+02  0.27921990542E+02  0.11974154989E+04  0.11990407307E+04  0.00000000000E+00 0. -1.
         22    1    3    3    0    0  0.62788239239E+02 -0.57980193268E+02 -0.72231097650E+03  0.72734944323E+03  0.00000000000E+00 0.  1.
         22    1    3    3    0    0 -0.33509426234E+01  0.52720345883E+02 -0.39664993689E+03  0.40015226617E+03  0.00000000000E+00 0.  1.
</event>
<event>
 7    1  0.6253338E-006  0.5584544E+02  0.7818608E-02  0.1495848E+00
          2   -1    0    0  502    0  0.00000000000E+00  0.00000000000E+00  0.92195061378E+03  0.92195061378E+03  0.00000000000E+00 0. -1.
          1   -1    0    0  501    0 -0.00000000000E+00 -0.00000000000E+00 -0.22987676574E+03  0.22987676574E+03  0.00000000000E+00 0. -1.
         25    2    1    2    0    0  0.13199934220E+02  0.35633689086E+02  0.95313616561E+02  0.16174123045E+03  0.12502616551E+03 0.  0.
          2    1    1    2  501    0 -0.44378929136E+02 -0.35103174274E+02 -0.19227853267E+03  0.20043142548E+03  0.00000000000E+00 0. -1.
          1    1    1    2  502    0  0.31178994916E+02 -0.53051481127E+00  0.78903876415E+03  0.78965472360E+03  0.00000000000E+00 0. -1.
         22    1    3    3    0    0  0.59925718261E+02  0.17388095883E+02  0.92399557836E+02  0.11149491412E+03  0.00000000000E+00 0.  1.
         22    1    3    3    0    0 -0.46725784041E+02  0.18245593202E+02  0.29140587257E+01  0.50246316321E+02  0.00000000000E+00 0.  1.
</event>
<event>
 7    1  0.6253338E-006  0.7630280E+02  0.7818608E-02  0.1343484E+00
          2   -1    0    0  502    0  0.00000000000E+00  0.00000000000E+00  0.23701082774E+04  0.23701082774E+04  0.00000000000E+00 0. -1.
          1   -1    0    0  501    0 -0.00000000000E+00 -0.00000000000E+00 -0.77023697214E+02  0.77023697214E+02  0.00000000000E+00 0. -1.
         25    2    1    2    0    0  0.26847172105E+02  0.11895205612E+02  0.15490652917E+03  0.20120285700E+03  0.12499716124E+03 0.  0.
          2    1    1    2  501    0  0.26866373492E+02 -0.68913599980E+02 -0.27442576640E+02  0.78892213174E+02  0.00000000000E+00 0. -1.
          1    1    1    2  502    0 -0.53713545598E+02  0.57018394368E+02  0.21656206276E+04  0.21670369044E+04  0.00000000000E+00 0. -1.
         22    1    3    3    0    0  0.54282551196E+02  0.23295139771E+02  0.16045230117E+03  0.17098011537E+03  0.00000000000E+00 0.  1.
         22    1    3    3    0    0 -0.27435379091E+02 -0.11399934159E+02 -0.55457719971E+01  0.30222741632E+02  0.00000000000E+00 0.  1.
</event>
<event>
 7    1  0.6253338E-006  0.1155771E+03  0.7818608E-02  0.1284480E+00
          2   -1    0    0  502    0  0.00000000000E+00  0.00000000000E+00  0.29523894389E+04  0.29523894389E+04  0.00000000000E+00 0. -1.
          1   -1    0    0  501    0 -0.00000000000E+00 -0.00000000000E+00 -0.41787255949E+03  0.41787255949E+03  0.00000000000E+00 0. -1.
         25    2    1    2    0    0 -0.22842196684E+02  0.12253903559E+03  0.45726707113E+03  0.49016006634E+03  0.12500454029E+03 0.  0.
          2    1    1    2  501    0 -0.67702246869E+02 -0.48286528149E+02 -0.39571912720E+03  0.40436222705E+03  0.00000000000E+00 0. -1.
          1    1    1    2  502    0  0.90544443554E+02 -0.74252507443E+02  0.24729689355E+04  0.24757397050E+04  0.00000000000E+00 0. -1.
         22    1    3    3    0    0 -0.10027649673E+02  0.89238627932E+02  0.11437100748E+03  0.14541256420E+03  0.00000000000E+00 0. -1.
         22    1    3    3    0    0 -0.12814547011E+02  0.33300407660E+02  0.34289606365E+03  0.34474750214E+03  0.00000000000E+00 0. -1.
</event>
<event>
 7    1  0.6253338E-006  0.5296045E+02  0.7818608E-02  0.1459803E+00
          2   -1    0    0  502    0  0.00000000000E+00  0.00000000000E+00  0.26495746205E+03  0.26495746205E+03  0.00000000000E+00 0. -1.
          1   -1    0    0  501    0 -0.00000000000E+00 -0.00000000000E+00 -0.15647093515E+03  0.15647093515E+03  0.00000000000E+00 0. -1.
         25    2    1    2    0    0  0.23259304633E+02  0.84081602821E+01  0.22917358720E+01  0.12744075466E+03  0.12499680590E+03 0.  0.
          2    1    1    2  501    0  0.25808398883E+02 -0.33704631128E+02 -0.84984744881E+02  0.94997276144E+02  0.00000000000E+00 0. -1.
          1    1    1    2  502    0 -0.49067703516E+02  0.25296470845E+02  0.19117953591E+03  0.19899036639E+03  0.00000000000E+00 0. -1.
         22    1    3    3    0    0 -0.17179480425E+02  0.13599158696E+01  0.56713530634E+02  0.59274011808E+02  0.00000000000E+00 0. -1.
         22    1    3    3    0    0  0.40438785058E+02  0.70482444125E+01 -0.54421794762E+02  0.68166742854E+02  0.00000000000E+00 0. -1.
</event>
<event>
 7    1  0.6253338E-006  0.1496282E+03  0.7818608E-02  0.1226596E+00
          2   -1    0    0  502    0  0.00000000000E+00  0.00000000000E+00  0.18737802331E+03  0.18737802331E+03  0.00000000000E+00 0. -1.
          1   -1    0    0  501    0 -0.00000000000E+00 -0.00000000000E+00 -0.27520031829E+04  0.27520031829E+04  0.00000000000E+00 0. -1.
         25    2    1    2    0    0  0.13477215889E+03 -0.11128767802E+03 -0.12822211008E+04  0.13001018740E+04  0.12500179703E+03 0.  0.
          2    1    1    2  501    0  0.15219493883E+02  0.11293779814E+03 -0.14266390767E+04  0.14311832987E+04  0.00000000000E+00 0. -1.
          1    1    1    2  502    0 -0.14999165277E+03 -0.16501201183E+01  0.14423501791E+03  0.20809603357E+03  0.00000000000E+00 0. -1.
         22    1    3    3    0    0 -0.23728107428E+02 -0.22478285102E+02 -0.16532223806E+03  0.16852222043E+03  0.00000000000E+00 0. -1.
         22    1    3    3    0    0  0.15850026632E+03 -0.88809392920E+02 -0.11168988628E+04  0.11315796535E+04  0.00000000000E+00 0. -1.
</event>
<event>
 7    1  0.6253338E-006  0.6345917E+02  0.7818608E-02  0.1464927E+00
          2   -1    0    0  502    0  0.00000000000E+00  0.00000000000E+00  0.20293654358E+03  0.20293654358E+03  0.00000000000E+00 0. -1.
          1   -1    0    0  501    0 -0.00000000000E+00 -0.00000000000E+00 -0.10381915253E+04  0.10381915253E+04  0.00000000000E+00 0. -1.
         25    2    1    2    0    0  0.29571958723E+02 -0.89200459899E+01  0.26669926729E+01  0.12879141181E+03  0.12500418770E+03 0.  0.
          2    1    1    2  501    0 -0.63637375856E+02  0.67005246011E+01 -0.97193744800E+03  0.97404158816E+03  0.00000000000E+00 0. -1.
          1    1    1    2  502    0  0.34065417133E+02  0.22195213888E+01  0.13401547361E+03  0.13829506891E+03  0.00000000000E+00 0. -1.
         22    1    3    3    0    0  0.77762088897E+02  0.29942985071E+01 -0.72939039687E+01  0.78160791502E+02  0.00000000000E+00 0.  1.
         22    1    3    3    0    0 -0.48190130174E+02 -0.11914344497E+02  0.99608966417E+01  0.50630620310E+02  0.00000000000E+00 0.  1.
</event>
<event>
 7    1  0.6253338E-006  0.7577374E+02  0.7818608E-02  0.1463815E+00
          2   -1    0    0  502    0  0.00000000000E+00  0.00000000000E+00  0.30244262927E+03  0.30244262927E+03  0.00000000000E+00 0. -1.
          1   -1    0    0  501    0 -0.00000000000E+00 -0.00000000000E+00 -0.64289768866E+03  0.64289768866E+03  0.00000000000E+00 0. -1.
         25    2    1    2    0    0  0.33744714362E+02  0.54398316090E+02 -0.31422472578E+03  0.34417977956E+03  0.12499863931E+03 0.  0.
          2    1    1    2  501    0 -0.20327254566E+02  0.20430197909E+02 -0.30798478319E+03  0.30933027162E+03  0.00000000000E+00 0. -1.
          1    1    1    2  502    0 -0.13417459796E+02 -0.74828513999E+02  0.28175444957E+03  0.29183026675E+03  0.00000000000E+00 0. -1.
         22    1    3    3    0    0 -0.20482613384E+02  0.74472559600E+02 -0.13129731345E+03  0.15233083766E+03  0.00000000000E+00 0.  1.
         22    1    3    3    0    0  0.54227327746E+02 -0.20074243509E+02 -0.18292741233E+03  0.19184894190E+03  0.00000000000E+00 0.  1.
</event>
<event>
 7    1  0.6253338E-006  0.6225950E+02  0.7818608E-02  0.1515766E+00
          2   -1    0    0  502    0  0.00000000000E+00  0.00000000000E+00  0.23992772950E+03  0.23992772950E+03  0.00000000000E+00 0. -1.
          1   -1    0    0  501    0 -0.00000000000E+00 -0.00000000000E+00 -0.13559804388E+03  0.13559804388E+03  0.00000000000E+00 0. -1.
         25    2    1    2    0    0 -0.16689503877E+02  0.37976649473E+02  0.33968701183E+02  0.13602294894E+03  0.12501041770E+03 0.  0.
          2    1    1    2  501    0 -0.22932898376E+01  0.24311606452E+02 -0.75723022122E+02  0.79563116241E+02  0.00000000000E+00 0. -1.
          1    1    1    2  502    0  0.18982793715E+02 -0.62288255925E+02  0.14608400657E+03  0.15993970820E+03  0.00000000000E+00 0. -1.
         22    1    3    3    0    0 -0.13824710748E+01  0.12042351816E+02  0.80056317617E+02  0.80968780736E+02  0.00000000000E+00 0. -1.
         22    1    3    3    0    0 -0.15307032802E+02  0.25934297657E+02 -0.46087616434E+02  0.55054168205E+02  0.00000000000E+00 0. -1.
</event>
<event>
 7    1  0.6253338E-006  0.1174997E+03  0.7818608E-02  0.1403539E+00
          2   -1    0    0  502    0  0.00000000000E+00  0.00000000000E+00  0.25798811398E+04  0.25798811398E+04  0.00000000000E+00 0. -1.
          1   -1    0    0  501    0 -0.00000000000E+00 -0.00000000000E+00 -0.41810458109E+02  0.41810458109E+02  0.00000000000E+00 0. -1.
         25    2    1    2    0    0 -0.90563111422E+02  0.31385603341E+02  0.75265909726E+03  0.76896520560E+03  0.12500014996E+03 0.  0.
          2    1    1    2  501    0  0.11855244348E+03 -0.22767613271E+02  0.75118103510E+02  0.14218219137E+03  0.00000000000E+00 0. -1.
          1    1    1    2  502    0 -0.27989332058E+02 -0.86179900701E+01  0.17102934810E+04  0.17105442010E+04  0.00000000000E+00 0. -1.
         22    1    3    3    0    0 -0.37259407759E+02  0.68464430570E+02  0.24322059775E+03  0.25540536582E+03  0.00000000000E+00 0. -1.
         22    1    3    3    0    0 -0.53303703663E+02 -0.37078827230E+02  0.50943849951E+03  0.51355983978E+03  0.00000000000E+00 0. -1.
</event>
<event>
 7    1  0.6253338E-006  0.3629978E+02  0.7818608E-02  0.1540435E+00
          2   -1    0    0  502    0  0.00000000000E+00  0.00000000000E+00  0.62135662750E+03  0.62135662750E+03  0.00000000000E+00 0. -1.
          1   -1    0    0  501    0 -0.00000000000E+00 -0.00000000000E+00 -0.79366349586E+02  0.79366349586E+02  0.00000000000E+00 0. -1.
         25    2    1    2    0    0 -0.81282616971E+01 -0.99563678792E+01  0.46281430120E+02  0.13390301028E+03  0.12499138966E+03 0.  0.
          2    1    1    2  501    0  0.37712427036E+02 -0.11078151940E+02 -0.23862386324E+02  0.45982236618E+02  0.00000000000E+00 0. -1.
          1    1    1    2  502    0 -0.29584165338E+02  0.21034519819E+02  0.51957123412E+03  0.52083773019E+03  0.00000000000E+00 0. -1.
         22    1    3    3    0    0  0.30279984562E+02 -0.46201692343E+02 -0.10641164232E+02  0.56255739410E+02  0.00000000000E+00 0. -1.
         22    1    3    3    0    0 -0.38408246259E+02  0.36245324463E+02  0.56922594352E+02  0.77647270872E+02  0.00000000000E+00 0. -1.
</event>
<event>
 7    1  0.6253338E-006  0.3682635E+02  0.7818608E-02  0.1550529E+00
          2   -1    0    0  502    0  0.00000000000E+00  0.00000000000E+00  0.59823495162E+03  0.59823495162E+03  0.00000000000E+00 0. -1.
          1   -1    0    0  501    0 -0.00000000000E+00 -0.00000000000E+00 -0.32115844060E+03  0.32115844060E+03  0.00000000000E+00 0. -1.
         25    2    1    2    0    0 -0.33599832192E+02  0.39232518190E+01 -0.25335620669E+03  0.28453518617E+03  0.12500625612E+03 0.  0.
          2    1    1    2  501    0  0.32261713999E+02  0.28904051063E+02 -0.42676844468E+02  0.60807692044E+02  0.00000000000E+00 0. -1.
          1    1    1    2  502    0  0.13381181928E+01 -0.32827302882E+02  0.57310956218E+03  0.57405051401E+03  0.00000000000E+00 0. -1.
         22    1    3    3    0    0 -0.29789158782E+02  0.53095082251E+02 -0.61874644474E+02  0.86804109171E+02  0.00000000000E+00 0. -1.
         22    1    3    3    0    0 -0.38106734090E+01 -0.49171830432E+02 -0.19148156222E+03  0.19773107700E+03  0.00000000000E+00 0. -1.
</event>
<event>
 7    1  0.6253338E-006  0.8969582E+02  0.7818608E-02  0.1376930E+00
          2   -1    0    0  502    0  0.00000000000E+00  0.00000000000E+00  0.77029829021E+03  0.77029829021E+03  0.00000000000E+00 0. -1.
          1   -1    0    0  501    0 -0.00000000000E+00 -0.00000000000E+00 -0.12869698083E+04  0.12869698083E+04  0.00000000000E+00 0. -1.
         25    2    1    2    0    0  0.13713084025E+02  0.64607511063E+02 -0.61353222815E+03  0.62961214203E+03  0.12500990062E+03 0.  0.
          2    1    1    2  501    0  0.47492790922E+02  0.11531437018E+01 -0.66189637874E+03  0.66359905901E+03  0.00000000000E+00 0. -1.
          1    1    1    2  502    0 -0.61205874947E+02 -0.65760654765E+02  0.75875708878E+03  0.76405689750E+03  0.00000000000E+00 0. -1.
         22    1    3    3    0    0  0.29497231716E+02  0.66264097112E+02 -0.60872232172E+03  0.61302845138E+03  0.00000000000E+00 0. -1.
         22    1    3    3    0    0 -0.15784147691E+02 -0.16565860487E+01 -0.48099064337E+01  0.16583690650E+02  0.00000000000E+00 0. -1.
</event>
<event>
 7    1  0.6253338E-006  0.8292512E+02  0.7818608E-02  0.1489610E+00
          2   -1    0    0  502    0  0.00000000000E+00  0.00000000000E+00  0.13451841478E+04  0.13451841478E+04  0.00000000000E+00 0. -1.
          1   -1    0    0  501    0 -0.00000000000E+00 -0.00000000000E+00 -0.19881156394E+03  0.19881156394E+03  0.00000000000E+00 0. -1.
         25    2    1    2    0    0 -0.92105310168E+01 -0.10244748908E+03 -0.93325199487E+02  0.18685663775E+03  0.12500195323E+03 0.  0.
          2    1    1    2  501    0 -0.59501028046E+01  0.21106763813E+02 -0.55305846713E+02  0.59494839127E+02  0.00000000000E+00 0. -1.
          1    1    1    2  502    0  0.15160633821E+02  0.81340725267E+02  0.12950036301E+04  0.12976442349E+04  0.00000000000E+00 0. -1.
         22    1    3    3    0    0 -0.25481238328E+02 -0.32765577688E+00  0.20768349243E+02  0.32874385094E+02  0.00000000000E+00 0. -1.
         22    1    3    3    0    0  0.16270707311E+02 -0.10211983330E+03 -0.11409354873E+03  0.15398225265E+03  0.00000000000E+00 0. -1.
</event>
<event>
 7    1  0.6253338E-006  0.4468551E+02  0.7818608E-02  0.1563513E+00
          2   -1    0    0  502    0  0.00000000000E+00  0.00000000000E+00  0.84678844953E+03  0.84678844953E+03  0.00000000000E+00 0. -1.
          1   -1    0    0  501    0 -0.00000000000E+00 -0.00000000000E+00 -0.60401351898E+02  0.60401351898E+02  0.00000000000E+00 0. -1.
         25    2    1    2    0    0 -0.43564863911E+02 -0.41159976287E+02  0.25432616786E+03  0.28965434003E+03  0.12500318405E+03 0.  0.
          2    1    1    2  501    0  0.24902008177E+02  0.11588545433E+01 -0.38174997491E+02  0.45593677067E+02  0.00000000000E+00 0. -1.
          1    1    1    2  502    0  0.18662855734E+02  0.40001121744E+02  0.57023592726E+03  0.57194178433E+03  0.00000000000E+00 0. -1.
         22    1    3    3    0    0 -0.12998683000E+02 -0.83032145305E+02  0.12823255961E+03  0.15331957558E+03  0.00000000000E+00 0.  1.
         22    1    3    3    0    0 -0.30566180911E+02  0.41872169018E+02  0.12609360825E+03  0.13633476444E+03  0.00000000000E+00 0.  1.
</event>
<event>
 7    1  0.6253338E-006  0.6612068E+02  0.7818608E-02  0.1382604E+00
          2   -1    0    0  502    0  0.00000000000E+00  0.00000000000E+00  0.26176235519E+03  0.26176235519E+03  0.00000000000E+00 0. -1.
          1   -1    0    0  501    0 -0.00000000000E+00 -0.00000000000E+00 -0.26353928258E+04  0.26353928258E+04  0.00000000000E+00 0. -1.
         25    2    1    2    0    0  0.76980222977E+01  0.49729733489E+02 -0.55742912570E+03  0.57348371765E+03  0.12499615309E+03 0.  0.
          2    1    1    2  501    0  0.54970456640E+02 -0.27644903301E+02 -0.20651202232E+04  0.20660366716E+04  0.00000000000E+00 0. -1.
          1    1    1    2  502    0 -0.62668478938E+02 -0.22084830188E+02  0.24891887831E+03  0.25763479182E+03  0.00000000000E+00 0. -1.
         22    1    3    3    0    0 -0.38393997802E+02  0.63805743866E+02 -0.44459780614E+03  0.45079095071E+03  0.00000000000E+00 0. -1.
         22    1    3    3    0    0  0.46092020100E+02 -0.14076010377E+02 -0.11283131956E+03  0.12269276694E+03  0.00000000000E+00 0. -1.
</event>
<event>
 7    1  0.6253338E-006  0.9377040E+02  0.7818608E-02  0.1421088E+00
          2   -1    0    0  502    0  0.00000000000E+00  0.00000000000E+00  0.62074149505E+03  0.62074149505E+03  0.00000000000E+00 0. -1.
          1   -1    0    0  501    0 -0.00000000000E+00 -0.00000000000E+00 -0.10954720968E+04  0.10954720968E+04  0.00000000000E+00 0. -1.
         25    2    1    2    0    0  0.63136023634E+02  0.41642138020E+02 -0.37814908284E+03  0.40539059111E+03  0.12499830945E+03 0.  0.
          2    1    1    2  501    0 -0.66199476075E+02 -0.73510599441E+02 -0.69979898557E+03  0.70675653451E+03  0.00000000000E+00 0. -1.
          1    1    1    2  502    0  0.30634524408E+01  0.31868461421E+02  0.60321746665E+03  0.60406646625E+03  0.00000000000E+00 0. -1.
         22    1    3    3    0    0 -0.29498071561E+02  0.13156736000E+02 -0.19995379615E+03  0.20254568996E+03  0.00000000000E+00 0.  1.
         22    1    3    3    0    0  0.92634095195E+02  0.28485402019E+02 -0.17819528670E+03  0.20284490115E+03  0.00000000000E+00 0.  1.
</event>
<event>
 7    1  0.6253338E-006  0.9921202E+02  0.7818608E-02  0.1341219E+00
          2   -1    0    0  502    0  0.00000000000E+00  0.00000000000E+00  0.32321558112E+04  0.32321558112E+04  0.00000000000E+00 0. -1.
          1   -1    0    0  501    0 -0.00000000000E+00 -0.00000000000E+00 -0.10399024341E+04  0.10399024341E+04  0.00000000000E+00 0. -1.
         25    2    1    2    0    0  0.15254614247E+03 -0.31235654049E+02 -0.24421421289E+02  0.20116586470E+03  0.12500123054E+03 0.  0.
          2    1    1    2  501    0 -0.54319186326E+02  0.20358905451E+02 -0.92542372022E+03  0.92724005574E+03  0.00000000000E+00 0. -1.
          1    1    1    2  502    0 -0.98226956145E+02  0.10876748598E+02  0.31420985187E+04  0.31436523248E+04  0.00000000000E+00 0. -1.
         22    1    3    3    0    0  0.62200201404E+02  0.10100753416E+02  0.47163210655E+02  0.78709965783E+02  0.00000000000E+00 0.  1.
         22    1    3    3    0    0  0.90345941066E+02 -0.41336407465E+02 -0.71584631944E+02  0.12245589892E+03  0.00000000000E+00 0.  1.
</event>
<event>
 7    1  0.6253338E-006  0.9797664E+02  0.7818608E-02  0.1306071E+00
          2   -1    0    0  502    0  0.00000000000E+00  0.00000000000E+00  0.38583396562E+03  0.38583396562E+03  0.00000000000E+00 0. -1.
          1   -1    0    0  501    0 -0.00000000000E+00 -0.00000000000E+00 -0.19341447539E+04  0.19341447539E+04  0.00000000000E+00 0. -1.
         25    2    1    2    0    0  0.24934552961E+02  0.15142791029E+03 -0.36265778173E+03  0.41315528187E+03  0.12499790535E+03 0.  0.
          2    1    1    2  501    0 -0.56052992855E+02 -0.77432879307E+02 -0.15402705921E+04  0.15432340347E+04  0.00000000000E+00 0. -1.
          1    1    1    2  502    0  0.31118439894E+02 -0.73995030982E+02  0.35461758561E+03  0.36358940295E+03  0.00000000000E+00 0. -1.
         22    1    3    3    0    0 -0.48181792957E+02  0.53309089708E+02 -0.97437499572E+02  0.12106779316E+03  0.00000000000E+00 0.  1.
         22    1    3    3    0    0  0.73116345918E+02  0.98118820580E+02 -0.26522028216E+03  0.29208748871E+03  0.00000000000E+00 0.  1.
</event>
<event>
 7    1  0.6253338E-006  0.6567666E+02  0.7818608E-02  0.1467501E+00
          2   -1    0    0  502    0  0.00000000000E+00  0.00000000000E+00  0.60177079101E+03  0.60177079101E+03  0.00000000000E+00 0. -1.
          1   -1    0    0  501    0 -0.00000000000E+00 -0.00000000000E+00 -0.85147276085E+03  0.85147276085E+03  0.00000000000E+00 0. -1.
         25    2    1    2    0    0  0.88276586315E+02  0.79243926566E+01 -0.13067974212E+03  0.20138823603E+03  0.12499789967E+03 0.  0.
          2    1    1    2  501    0 -0.27671944095E+02  0.16813079588E+02 -0.68316282675E+03  0.68392972153E+03  0.00000000000E+00 0. -1.
          1    1    1    2  502    0 -0.60604642219E+02 -0.24737472244E+02  0.56414059903E+03  0.56792559431E+03  0.00000000000E+00 0. -1.
         22    1    3    3    0    0  0.20517438772E+02  0.38275405784E+02  0.79300551310E+01  0.44145869072E+02  0.00000000000E+00 0.  1.
         22    1    3    3    0    0  0.67759147543E+02 -0.30351013128E+02 -0.13860979725E+03  0.15724236696E+03  0.00000000000E+00 0.  1.
</event>
<event>
 7    1  0.6253338E-006  0.3504255E+03  0.7818608E-02  0.1195055E+00
          2   -1    0    0  502    0  0.00000000000E+00  0.00000000000E+00  0.31747606626E+04  0.31747606626E+04  0.00000000000E+00 0. -1.
          1   -1    0    0  501    0 -0.00000000000E+00 -0.00000000000E+00 -0.85841413547E+02  0.85841413547E+02  0.00000000000E+00 0. -1.
         25    2    1    2    0    0  0.12420331317E+03  0.34274820975E+03  0.10248242007E+04  0.10948941765E+04  0.12500326888E+03 0.  0.
          2    1    1    2  501    0 -0.56141541459E+02 -0.34007816027E+03  0.54345826288E+03  0.64354635518E+03  0.00000000000E+00 0. -1.
          1    1    1    2  502    0 -0.68061771714E+02 -0.26700494781E+01  0.15206367855E+04  0.15221615445E+04  0.00000000000E+00 0. -1.
         22    1    3    3    0    0  0.23469087474E+02  0.13929740791E+03  0.24618278236E+03  0.28383186616E+03  0.00000000000E+00 0.  1.
         22    1    3    3    0    0  0.10073422570E+03  0.20345080184E+03  0.77864141831E+03  0.81106231037E+03  0.00000000000E+00 0.  1.
</event>
<event>
 7    1  0.6253338E-006  0.1968979E+03  0.7818608E-02  0.1206413E+00
          2   -1    0    0  502    0  0.00000000000E+00  0.00000000000E+00  0.31822692840E+03  0.31822692840E+03  0.00000000000E+00 0. -1.
          1   -1    0    0  501    0 -0.00000000000E+00 -0.00000000000E+00 -0.17564542511E+04  0.17564542511E+04  0.00000000000E+00 0. -1.
         25    2    1    2    0    0  0.83253306412E+01  0.97358551407E+02  0.19854894469E+03  0.25414027866E+03  0.12497039304E+03 0.  0.
          2    1    1    2  501    0 -0.63763586726E+02 -0.18908058162E+03 -0.16894003563E+04  0.17011439754E+04  0.00000000000E+00 0. -1.
          1    1    1    2  502    0  0.55438256085E+02  0.91722030211E+02  0.52624088901E+02  0.11939692541E+03  0.00000000000E+00 0. -1.
         22    1    3    3    0    0  0.51052773307E+02  0.20702361054E+01  0.90142663669E+02  0.10361646275E+03  0.00000000000E+00 0.  1.
         22    1    3    3    0    0 -0.42727442666E+02  0.95288315301E+02  0.10840628102E+03  0.15052381590E+03  0.00000000000E+00 0.  1.
</event>
<event>
 7    1  0.6253338E-006  0.1845179E+03  0.7818608E-02  0.1237562E+00
          2   -1    0    0  502    0  0.00000000000E+00  0.00000000000E+00  0.16154550636E+04  0.16154550636E+04  0.00000000000E+00 0. -1.
          1   -1    0    0  501    0 -0.00000000000E+00 -0.00000000000E+00 -0.12863175713E+03  0.12863175713E+03  0.00000000000E+00 0. -1.
         25    2    1    2    0    0  0.19239788571E+03  0.13304695171E+03  0.36938591736E+03  0.45474154945E+03  0.12500193226E+03 0.  0.
          2    1    1    2  501    0 -0.16651901926E+03 -0.54657703237E+02  0.65368505081E+01  0.17538180839E+03  0.00000000000E+00 0. -1.
          1    1    1    2  502    0 -0.25878866449E+02 -0.78389248471E+02  0.11109005385E+04  0.11139634628E+04  0.00000000000E+00 0. -1.
         22    1    3    3    0    0  0.20068253177E+03  0.13712089476E+03  0.30646801129E+03  0.39114992046E+03  0.00000000000E+00 0. -1.
         22    1    3    3    0    0 -0.82846460621E+01 -0.40739430515E+01  0.62917906077E+02  0.63591628989E+02  0.00000000000E+00 0. -1.
</event>
<event>
 7    1  0.6253338E-006  0.2487794E+03  0.7818608E-02  0.1240955E+00
          2   -1    0    0  502    0  0.00000000000E+00  0.00000000000E+00  0.21510891981E+04  0.21510891981E+04  0.00000000000E+00 0. -1.
          1   -1    0    0  501    0 -0.00000000000E+00 -0.00000000000E+00 -0.22448261329E+04  0.22448261329E+04  0.00000000000E+00 0. -1.
         25    2    1    2    0    0 -0.22202728898E+03 -0.32402945409E+02  0.82389642254E+03  0.86300431266E+03  0.12500024265E+03 0.  0.
          2    1    1    2  501    0 -0.45098622072E+02  0.38275250358E+02 -0.22112237600E+04  0.22120147824E+04  0.00000000000E+00 0. -1.
          1    1    1    2  502    0  0.26712591105E+03 -0.58723049495E+01  0.12935904027E+04  0.13208962360E+04  0.00000000000E+00 0. -1.
         22    1    3    3    0    0 -0.20014368754E+03  0.40718554807E+01  0.76231045770E+03  0.78815690671E+03  0.00000000000E+00 0.  1.
         22    1    3    3    0    0 -0.21883601442E+02 -0.36474800889E+02  0.61585964840E+02  0.74847405949E+02  0.00000000000E+00 0.  1.
</event>
<event>
 7    1  0.6253338E-006  0.5942187E+02  0.7818608E-02  0.1404361E+00
          2   -1    0    0  502    0  0.00000000000E+00  0.00000000000E+00  0.16842335769E+03  0.16842335769E+03  0.00000000000E+00 0. -1.
          1   -1    0    0  501    0 -0.00000000000E+00 -0.00000000000E+00 -0.63754500132E+03  0.63754500132E+03  0.00000000000E+00 0. -1.
         25    2    1    2    0    0 -0.63766128264E+02  0.37747093778E+02 -0.31823476836E+03  0.34985186278E+03  0.12502798045E+03 0.  0.
          2    1    1    2  501    0  0.53571189531E+02  0.20989339077E+02 -0.29479073564E+03  0.30035312970E+03  0.00000000000E+00 0. -1.
          1    1    1    2  502    0  0.10194938732E+02 -0.58736432855E+02  0.14390386038E+03  0.15576336652E+03  0.00000000000E+00 0. -1.
         22    1    3    3    0    0 -0.37810183545E+02  0.30020693767E+02 -0.31912445187E+03  0.32275574018E+03  0.00000000000E+00 0.  1.
         22    1    3    3    0    0 -0.25955944718E+02  0.77264000112E+01  0.88968351515E+00  0.27096122603E+02  0.00000000000E+00 0.  1.
</event>
<event>
 7    1  0.6253338E-006  0.5375143E+02  0.7818608E-02  0.1516630E+00
          2   -1    0    0  502    0  0.00000000000E+00  0.00000000000E+00  0.24977688495E+04  0.24977688495E+04  0.00000000000E+00 0. -1.
          1   -1    0    0  501    0 -0.00000000000E+00 -0.00000000000E+00 -0.44646320988E+03  0.44646320988E+03  0.00000000000E+00 0. -1.
         25    2    1    2    0    0 -0.25734493489E+02  0.15375026173E+02  0.11632778842E+04  0.11703587570E+04  0.12500211419E+03 0.  0.
          2    1    1    2  501    0 -0.25626734813E+02  0.11578309236E+02 -0.44184361220E+03  0.44273757964E+03  0.00000000000E+00 0. -1.
          1    1    1    2  502    0  0.51361228302E+02 -0.26953335409E+02  0.13298713676E+04  0.13311357228E+04  0.00000000000E+00 0. -1.
         22    1    3    3    0    0 -0.68090696131E+02  0.20360603033E+02  0.42930902056E+03  0.43515184958E+03  0.00000000000E+00 0.  1.
         22    1    3    3    0    0  0.42356202642E+02 -0.49855768601E+01  0.73396886367E+03  0.73520690741E+03  0.00000000000E+00 0.  1.
</event>
<event>
 7    1  0.6253338E-006  0.9196547E+02  0.7818608E-02  0.1322363E+00
          2   -1    0    0  502    0  0.00000000000E+00  0.00000000000E+00  0.10824522146E+04  0.10824522146E+04  0.00000000000E+00 0. -1.
          1   -1    0    0  501    0 -0.00000000000E+00 -0.00000000000E+00 -0.79466328367E+02  0.79466328367E+02  0.00000000000E+00 0. -1.
         25    2    1    2    0    0  0.14780424484E+02  0.18509773056E+02  0.42129770549E+03  0.44009323097E+03  0.12501688948E+03 0.  0.
          2    1    1    2  501    0 -0.62153509953E+02 -0.75147348824E+02 -0.32821649226E+02  0.10289530355E+03  0.00000000000E+00 0. -1.
          1    1    1    2  502    0  0.47373085468E+02  0.56637575768E+02  0.61450982998E+03  0.61893000844E+03  0.00000000000E+00 0. -1.
         22    1    3    3    0    0 -0.81994780591E+01 -0.18735364412E+02  0.44181896189E+01  0.20922851612E+02  0.00000000000E+00 0. -1.
         22    1    3    3    0    0  0.22979902544E+02  0.37245137468E+02  0.41687951587E+03  0.41917037936E+03  0.00000000000E+00 0. -1.
</event>
<event>
 7    1  0.6253338E-006  0.6901402E+02  0.7818608E-02  0.1452400E+00
          2   -1    0    0  502    0  0.00000000000E+00  0.00000000000E+00  0.16357788372E+04  0.16357788372E+04  0.00000000000E+00 0. -1.
          1   -1    0    0  501    0 -0.00000000000E+00 -0.00000000000E+00 -0.99350853959E+02  0.99350853959E+02  0.00000000000E+00 0. -1.
         25    2    1    2    0    0 -0.88416404275E+02 -0.24644111471E+02  0.12777277104E+04  0.12871044775E+04  0.12500016438E+03 0.  0.
          2    1    1    2  501    0  0.33718217015E+02  0.67438942908E+01 -0.89094938405E+02  0.95500294860E+02  0.00000000000E+00 0. -1.
          1    1    1    2  502    0  0.54698187260E+02  0.17900217181E+02  0.34779521124E+03  0.35252491887E+03  0.00000000000E+00 0. -1.
         22    1    3    3    0    0 -0.55039260879E+02 -0.27170021022E+02  0.12100091523E+04  0.12115649710E+04  0.00000000000E+00 0. -1.
         22    1    3    3    0    0 -0.33377143396E+02  0.25259095505E+01  0.67718558093E+02  0.75539506422E+02  0.00000000000E+00 0. -1.
</event>
<event>
 7    1  0.6253338E-006  0.8355441E+02  0.7818608E-02  0.1329464E+00
          2   -1    0    0  502    0  0.00000000000E+00  0.00000000000E+00  0.27650139626E+03  0.27650139626E+03  0.00000000000E+00 0. -1.
          1   -1    0    0  501    0 -0.00000000000E+00 -0.00000000000E+00 -0.59136020038E+03  0.59136020038E+03  0.00000000000E+00 0. -1.
         25    2    1    2    0    0 -0.15007940627E+02  0.34383725520E+02 -0.30448237506E+03  0.33126338977E+03  0.12497374851E+03 0.  0.
          2    1    1    2  501    0  0.88660467567E+02 -0.73838064544E+02 -0.25403594259E+03  0.27901074963E+03  0.00000000000E+00 0. -1.
          1    1    1    2  502    0 -0.73652526939E+02  0.39454339025E+02  0.24365951352E+03  0.25758745723E+03  0.00000000000E+00 0. -1.
         22    1    3    3    0    0  0.51573460933E+02  0.15319202832E+02 -0.80542761433E+02  0.96858847130E+02  0.00000000000E+00 0. -1.
         22    1    3    3    0    0 -0.66581401561E+02  0.19064522687E+02 -0.22393961363E+03  0.23440454264E+03  0.00000000000E+00 0. -1.
</event>
<event>
 7    1  0.6253338E-006  0.1094393E+03  0.7818608E-02  0.1435921E+00
          2   -1    0    0  502    0  0.00000000000E+00  0.00000000000E+00  0.14324619241E+04  0.14324619241E+04  0.00000000000E+00 0. -1.
          1   -1    0    0  501    0 -0.00000000000E+00 -0.00000000000E+00 -0.20195039865E+03  0.20195039865E+03  0.00000000000E+00 0. -1.
         25    2    1    2    0    0 -0.84458768152E+02 -0.42970947323E+02  0.17600734524E+03  0.23573674862E+03  0.12495376440E+03 0.  0.
          2    1    1    2  501    0 -0.21723208207E+02  0.11347038319E+02 -0.16869660900E+03  0.17046758912E+03  0.00000000000E+00 0. -1.
          1    1    1    2  502    0  0.10618197636E+03  0.31623909004E+02  0.12232007892E+04  0.12282079850E+04  0.00000000000E+00 0. -1.
         22    1    3    3    0    0 -0.80185512448E+02 -0.69896848258E+02  0.17909107034E+03  0.20830001747E+03  0.00000000000E+00 0.  1.
         22    1    3    3    0    0 -0.42732557039E+01  0.26925900935E+02 -0.30837251010E+01  0.27436731145E+02  0.00000000000E+00 0.  1.
</event>
<event>
 7    1  0.6253338E-006  0.2254801E+03  0.7818608E-02  0.1227030E+00
          2   -1    0    0  502    0  0.00000000000E+00  0.00000000000E+00  0.16507598416E+04  0.16507598416E+04  0.00000000000E+00 0. -1.
          1   -1    0    0  501    0 -0.00000000000E+00 -0.00000000000E+00 -0.10537900760E+04  0.10537900760E+04  0.00000000000E+00 0. -1.
         25    2    1    2    0    0 -0.12188711111E+03  0.14907197209E+03 -0.48619234395E+03  0.53767222382E+03  0.12501801563E+03 0.  0.
          2    1    1    2  501    0  0.41991709705E+02  0.62483633339E+02 -0.53132403524E+03  0.53663091464E+03  0.00000000000E+00 0. -1.
          1    1    1    2  502    0  0.79895401406E+02 -0.21155560543E+03  0.16144861448E+04  0.16302467792E+04  0.00000000000E+00 0. -1.
         22    1    3    3    0    0 -0.12233221052E+03  0.10688295290E+03 -0.25278301025E+03  0.30048025829E+03  0.00000000000E+00 0.  1.
         22    1    3    3    0    0  0.44509940864E+00  0.42189019198E+02 -0.23340933370E+03  0.23719196553E+03  0.00000000000E+00 0.  1.
</event>
<event>
 7    1  0.6253338E-006  0.9564123E+02  0.7818608E-02  0.1479400E+00
          2   -1    0    0  502    0  0.00000000000E+00  0.00000000000E+00  0.49986440262E+03  0.49986440262E+03  0.00000000000E+00 0. -1.
          1   -1    0    0  501    0 -0.00000000000E+00 -0.00000000000E+00 -0.17791657982E+04  0.17791657982E+04  0.00000000000E+00 0. -1.
         25    2    1    2    0    0  0.27853822632E+02  0.79000981169E+02 -0.24494762368E+03  0.28747429446E+03  0.12500056468E+03 0.  0.
          2    1    1    2  501    0  0.20016043412E+02  0.40745714221E+01 -0.15080829269E+04  0.15082212565E+04  0.00000000000E+00 0. -1.
          1    1    1    2  502    0 -0.47869866044E+02 -0.83075552591E+02  0.47372915497E+03  0.48333464989E+03  0.00000000000E+00 0. -1.
         22    1    3    3    0    0  0.13227998794E+02  0.60912925529E+02 -0.26401058129E+02  0.67693281195E+02  0.00000000000E+00 0.  1.
         22    1    3    3    0    0  0.14625823838E+02  0.18088055640E+02 -0.21854656555E+03  0.21978101327E+03  0.00000000000E+00 0.  1.
</event>
<event>
 7    1  0.6253338E-006  0.5508085E+02  0.7818608E-02  0.1429625E+00
          2   -1    0    0  502    0  0.00000000000E+00  0.00000000000E+00  0.45212405486E+03  0.45212405486E+03  0.00000000000E+00 0. -1.
          1   -1    0    0  501    0 -0.00000000000E+00 -0.00000000000E+00 -0.91168937559E+02  0.91168937559E+02  0.00000000000E+00 0. -1.
         25    2    1    2    0    0 -0.78988245227E+01 -0.43333894237E+01  0.10533505101E+03  0.16371202407E+03  0.12499993665E+03 0.  0.
          2    1    1    2  501    0 -0.24071735163E+02  0.49542418846E+02 -0.46711339421E+02  0.72220834455E+02  0.00000000000E+00 0. -1.
          1    1    1    2  502    0  0.31970559686E+02 -0.45209029423E+02  0.30233140571E+03  0.30736013389E+03  0.00000000000E+00 0. -1.
         22    1    3    3    0    0  0.94434198197E+01  0.57000978563E+02  0.30238048268E+02  0.65212186730E+02  0.00000000000E+00 0.  1.
         22    1    3    3    0    0 -0.17342244342E+02 -0.61334367987E+02  0.75097002746E+02  0.98499837343E+02  0.00000000000E+00 0.  1.
</event>
<event>
 7    1  0.6253338E-006  0.4331751E+02  0.7818608E-02  0.1527387E+00
          2   -1    0    0  502    0  0.00000000000E+00  0.00000000000E+00  0.63972943576E+03  0.63972943576E+03  0.00000000000E+00 0. -1.
          1   -1    0    0  501    0 -0.00000000000E+00 -0.00000000000E+00 -0.19271280171E+04  0.19271280171E+04  0.00000000000E+00 0. -1.
         25    2    1    2    0    0  0.34880880044E+02  0.65268743065E+02  0.22791482031E+02  0.14704189937E+03  0.12500073561E+03 0.  0.
          2    1    1    2  501    0 -0.21236757468E+02 -0.24574275878E+02 -0.18640310264E+04  0.18643139656E+04  0.00000000000E+00 0. -1.
          1    1    1    2  502    0 -0.13644122576E+02 -0.40694467187E+02  0.55384096307E+03  0.55550158786E+03  0.00000000000E+00 0. -1.
         22    1    3    3    0    0  0.61704226289E+02  0.89715661403E+02  0.14900660538E+02  0.10990150648E+03  0.00000000000E+00 0. -1.
         22    1    3    3    0    0 -0.26823346245E+02 -0.24446918339E+02  0.78908214929E+01  0.37140392888E+02  0.00000000000E+00 0. -1.
</event>
<event>
 7    1  0.6253338E-006  0.1277282E+03  0.7818608E-02  0.1314969E+00
          2   -1    0    0  502    0  0.00000000000E+00  0.00000000000E+00  0.86121299616E+03  0.86121299616E+03  0.00000000000E+00 0. -1.
          1   -1    0    0  501    0 -0.00000000000E+00 -0.00000000000E+00 -0.30244662190E+03  0.30244662190E+03  0.00000000000E+00 0. -1.
         25    2    1    2    0    0  0.16834471939E+03  0.38228289167E+02  0.27487106562E+03  0.34782052091E+03  0.12499466155E+03 0.  0.
          2    1    1    2  501    0 -0.56567338362E+02  0.51578703528E+01 -0.25628878197E+03  0.26250791828E+03  0.00000000000E+00 0. -1.
          1    1    1    2  502    0 -0.11177738103E+03 -0.43386159520E+02  0.54018409062E+03  0.55333117887E+03  0.00000000000E+00 0. -1.
         22    1    3    3    0    0  0.12776622239E+03 -0.32179742883E+02  0.16453420576E+03  0.21078721095E+03  0.00000000000E+00 0.  1.
         22    1    3    3    0    0  0.40578496999E+02  0.70408032050E+02  0.11033685986E+03  0.13703330997E+03  0.00000000000E+00 0.  1.
</event>
<event>
 7    1  0.6253338E-006  0.8074187E+02  0.7818608E-02  0.1334057E+00
          2   -1    0    0  502    0  0.00000000000E+00  0.00000000000E+00  0.30919917559E+03  0.30919917559E+03  0.00000000000E+00 0. -1.
          1   -1    0    0  501    0 -0.00000000000E+00 -0.00000000000E+00 -0.10478486748E+03  0.10478486748E+03  0.00000000000E+00 0. -1.
         25    2    1    2    0    0  0.55002442499E+01  0.23280718589E+02  0.37518422543E+02  0.13268353564E+03  0.12500017621E+03 0.  0.
          2    1    1    2  501    0  0.59781281198E+02  0.46697594334E+02 -0.13539107726E+02  0.77056955145E+02  0.00000000000E+00 0. -1.
          1    1    1    2  502    0 -0.65281525448E+02 -0.69978312923E+02  0.18043499329E+03  0.20424355228E+03  0.00000000000E+00 0. -1.
         22    1    3    3    0    0  0.54100048417E+02  0.31639075892E+02 -0.10854705896E+02  0.63605589394E+02  0.00000000000E+00 0.  1.
         22    1    3    3    0    0 -0.48599804167E+02 -0.83583573035E+01  0.48373128439E+02  0.69077946241E+02  0.00000000000E+00 0.  1.
</event>
<event>
 7    1  0.6253338E-006  0.4476346E+02  0.7818608E-02  0.1563657E+00
          2   -1    0    0  502    0  0.00000000000E+00  0.00000000000E+00  0.12673815727E+04  0.12673815727E+04  0.00000000000E+00 0. -1.
          1   -1    0    0  501    0 -0.00000000000E+00 -0.00000000000E+00 -0.16481522673E+03  0.16481522673E+03  0.00000000000E+00 0. -1.
         25    2    1    2    0    0 -0.31701127712E+02  0.55089609765E+01  0.26382965707E+03  0.29371307017E+03  0.12500387790E+03 0.  0.
          2    1    1    2  501    0 -0.20806973769E+01  0.24775680708E+02 -0.14831771365E+03  0.15038719307E+03  0.00000000000E+00 0. -1.
          1    1    1    2  502    0  0.33781825089E+02 -0.30284641685E+02  0.98705440260E+03  0.98809653623E+03  0.00000000000E+00 0. -1.
         22    1    3    3    0    0 -0.53954217132E+02 -0.44878109928E+02  0.18209414336E+03  0.19514963321E+03  0.00000000000E+00 0.  1.
         22    1    3    3    0    0  0.22253089421E+02  0.50387070905E+02  0.81735513716E+02  0.98563436961E+02  0.00000000000E+00 0.  1.
</event>
<event>
 7    1  0.6253338E-006  0.2244325E+03  0.7818608E-02  0.1298741E+00
          2   -1    0    0  502    0  0.00000000000E+00  0.00000000000E+00  0.12288286184E+04  0.12288286184E+04  0.00000000000E+00 0. -1.
          1   -1    0    0  501    0 -0.00000000000E+00 -0.00000000000E+00 -0.52467138353E+03  0.52467138353E+03  0.00000000000E+00 0. -1.
         25    2    1    2    0    0 -0.23432609302E+03  0.92907356009E+02  0.41774248214E+03  0.50366012433E+03  0.12499697908E+03 0.  0.
          2    1    1    2  501    0  0.35956140422E+02 -0.10589499397E+02 -0.46593243132E+03  0.46743770931E+03  0.00000000000E+00 0. -1.
          1    1    1    2  502    0  0.19836995260E+03 -0.82317856612E+02  0.75234718407E+03  0.78240216832E+03  0.00000000000E+00 0. -1.
         22    1    3    3    0    0 -0.45939198076E+02 -0.30270414676E+02  0.10218034673E+03  0.11604969273E+03  0.00000000000E+00 0. -1.
         22    1    3    3    0    0 -0.18838689495E+03  0.12317777069E+03  0.31556213541E+03  0.38761043160E+03  0.00000000000E+00 0. -1.
</event>
<event>
 7    1  0.6253338E-006  0.9565039E+02  0.7818608E-02  0.1315697E+00
          2   -1    0    0  502    0  0.00000000000E+00  0.00000000000E+00  0.31562916089E+04  0.31562916089E+04  0.00000000000E+00 0. -1.
          1   -1    0    0  501    0 -0.00000000000E+00 -0.00000000000E+00 -0.84993316579E+02  0.84993316579E+02  0.00000000000E+00 0. -1.
         25    2    1    2    0    0  0.28211996312E+02 -0.86060912349E+02  0.48215915954E+03  0.50626258469E+03  0.12498780804E+03 0.  0.
          2    1    1    2  501    0 -0.88733141017E+02  0.41164670256E+02 -0.39363349916E+02  0.10543990567E+03  0.00000000000E+00 0. -1.
          1    1    1    2  502    0  0.60521144705E+02  0.44896242093E+02  0.26285024827E+04  0.26295824351E+04  0.00000000000E+00 0. -1.
         22    1    3    3    0    0 -0.42964491932E+02 -0.59743209030E+02  0.17448123156E+03  0.18936446012E+03  0.00000000000E+00 0.  1.
         22    1    3    3    0    0  0.71176488244E+02 -0.26317703318E+02  0.30767792798E+03  0.31689812456E+03  0.00000000000E+00 0.  1.
</event>
<event>
 7    1  0.6253338E-006  0.8586499E+02  0.7818608E-02  0.1329898E+00
          2   -1    0    0  502    0  0.00000000000E+00  0.00000000000E+00  0.10573641536E+04  0.10573641536E+04  0.00000000000E+00 0. -1.
          1   -1    0    0  501    0 -0.00000000000E+00 -0.00000000000E+00 -0.43394452249E+03  0.43394452249E+03  0.00000000000E+00 0. -1.
         25    2    1    2    0    0  0.95807940267E+02  0.12324825619E+03 -0.64145648042E+01  0.20008984007E+03  0.12500201352E+03 0.  0.
          2    1    1    2  501    0 -0.49315025828E+02 -0.65700401701E+02 -0.32413611095E+03  0.33438410994E+03  0.00000000000E+00 0. -1.
          1    1    1    2  502    0 -0.46492914439E+02 -0.57547854488E+02  0.95397030691E+03  0.95683472612E+03  0.00000000000E+00 0. -1.
         22    1    3    3    0    0  0.11000853024E+03  0.80131835968E+02 -0.41975034222E+02  0.14242503769E+03  0.00000000000E+00 0. -1.
         22    1    3    3    0    0 -0.14200589977E+02  0.43116420220E+02  0.35560469418E+02  0.57664802380E+02  0.00000000000E+00 0. -1.
</event>
<event>
 7    1  0.6253338E-006  0.1010746E+03  0.7818608E-02  0.1420421E+00
          2   -1    0    0  502    0  0.00000000000E+00  0.00000000000E+00  0.81411451808E+03  0.81411451808E+03  0.00000000000E+00 0. -1.
          1   -1    0    0  501    0 -0.00000000000E+00 -0.00000000000E+00 -0.82688614827E+02  0.82688614827E+02  0.00000000000E+00 0. -1.
         25    2    1    2    0    0 -0.12324558340E+03 -0.20180635309E+02  0.28040794256E+03  0.33143709943E+03  0.12500081902E+03 0.  0.
          2    1    1    2  501    0  0.97774838840E+02  0.46072248897E+01 -0.14447793582E+02  0.98943844532E+02  0.00000000000E+00 0. -1.
          1    1    1    2  502    0  0.25470744559E+02  0.15573410419E+02  0.46546575427E+03  0.46642218895E+03  0.00000000000E+00 0. -1.
         22    1    3    3    0    0  0.16886657618E+02  0.24359610009E+02  0.48755120999E+02  0.57057967269E+02  0.00000000000E+00 0.  1.
         22    1    3    3    0    0 -0.14013224102E+03 -0.44540245318E+02  0.23165282156E+03  0.27437913216E+03  0.00000000000E+00 0.  1.
</event>
<event>
 7    1  0.6253338E-006  0.1021301E+03  0.7818608E-02  0.1370588E+00
          2   -1    0    0  502    0  0.00000000000E+00  0.00000000000E+00  0.19016474714E+04  0.19016474714E+04  0.00000000000E+00 0. -1.
          1   -1    0    0  501    0 -0.00000000000E+00 -0.00000000000E+00 -0.10287635883E+04  0.10287635883E+04  0.00000000000E+00 0. -1.
         25    2    1    2    0    0 -0.11642564419E+03 -0.31154951572E+02  0.57198722469E+03  0.59776358279E+03  0.12500541616E+03 0.  0.
          2    1    1    2  501    0  0.16522296531E+02  0.40735674093E+02 -0.10134859330E+04  0.10144388191E+04  0.00000000000E+00 0. -1.
          1    1    1    2  502    0  0.99903347657E+02 -0.95807225207E+01  0.13143825914E+04  0.13182086578E+04  0.00000000000E+00 0. -1.
         22    1    3    3    0    0 -0.84075497460E+02 -0.67172932637E+02  0.49691744485E+03  0.50843666188E+03  0.00000000000E+00 0. -1.
         22    1    3    3    0    0 -0.32350146728E+02  0.36017981065E+02  0.75069779839E+02  0.89326920905E+02  0.00000000000E+00 0. -1.
</event>
<event>
 7    1  0.6253338E-006  0.8580676E+02  0.7818608E-02  0.1408877E+00
          2   -1    0    0  502    0  0.00000000000E+00  0.00000000000E+00  0.54222628062E+03  0.54222628062E+03  0.00000000000E+00 0. -1.
          1   -1    0    0  501    0 -0.00000000000E+00 -0.00000000000E+00 -0.11272071667E+04  0.11272071667E+04  0.00000000000E+00 0. -1.
         25    2    1    2    0    0  0.47597365771E+02 -0.91085104537E+02  0.11882818094E+03  0.20076609700E+03  0.12499953448E+03 0.  0.
          2    1    1    2  501    0  0.15750999484E+02  0.35084431157E+02 -0.10812186833E+04  0.10819024227E+04  0.00000000000E+00 0. -1.
          1    1    1    2  502    0 -0.63348365256E+02  0.56000673379E+02  0.37740961622E+03  0.38676492759E+03  0.00000000000E+00 0. -1.
         22    1    3    3    0    0  0.82633719216E+02 -0.94483356748E+02  0.10205437974E+03  0.16177309009E+03  0.00000000000E+00 0.  1.
         22    1    3    3    0    0 -0.35036353445E+02  0.33982522111E+01  0.16773801199E+02  0.38993006904E+02  0.00000000000E+00 0.  1.
</event>
<event>
 7    1  0.1301282E-005  0.6099570E+02  0.7818608E-02  0.1406760E+00
          2   -1    0    0  502    0  0.00000000000E+00  0.00000000000E+00  0.23634887261E+04  0.23634887261E+04  0.00000000000E+00 0. -1.
          1   -1    0    0  501    0 -0.00000000000E+00 -0.00000000000E+00 -0.18593388074E+04  0.18593388074E+04  0.00000000000E+00 0. -1.
         25    2    1    2    0    0  0.65549037607E+02 -0.92963241954E+02 -0.42144383398E+03  0.45406749379E+03  0.12499417198E+03 0.  0.
          2    1    1    2  501    0 -0.40214533476E+02  0.37528260651E+02 -0.14206551517E+04  0.14217196064E+04  0.00000000000E+00 0. -1.
          1    1    1    2  502    0 -0.25334504132E+02  0.55434981303E+02  0.23462489044E+04  0.23470404333E+04  0.00000000000E+00 0. -1.
         22    1    3    3    0    0 -0.32087143313E-01 -0.39402362509E+02 -0.31779805805E+03  0.32023140524E+03  0.00000000000E+00 0. -1.
         22    1    3    3    0    0  0.65581124750E+02 -0.53560879446E+02 -0.10364577594E+03  0.13383608856E+03  0.00000000000E+00 0. -1.
</event>
<event>
 7    1  0.6253338E-006  0.4440361E+02  0.7818608E-02  0.1571319E+00
          2   -1    0    0  502    0  0.00000000000E+00  0.00000000000E+00  0.72557521945E+03  0.72557521945E+03  0.00000000000E+00 0. -1.
          1   -1    0    0  501    0 -0.00000000000E+00 -0.00000000000E+00 -0.18319840603E+03  0.18319840603E+03  0.00000000000E+00 0. -1.
         25    2    1    2    0    0 -0.64807315799E+02 -0.26783839387E+01  0.12008893857E+03  0.18507506610E+03  0.12499705998E+03 0.  0.
          2    1    1    2  501    0  0.43315963923E+02 -0.77494063573E+01 -0.14723752213E+03  0.15367242418E+03  0.00000000000E+00 0. -1.
          1    1    1    2  502    0  0.21491351876E+02  0.10427790296E+02  0.56952539698E+03  0.57002613520E+03  0.00000000000E+00 0. -1.
         22    1    3    3    0    0 -0.54659929049E+02  0.57566866022E+02  0.74263271773E+02  0.10870457875E+03  0.00000000000E+00 0.  1.
         22    1    3    3    0    0 -0.10147386750E+02 -0.60245249961E+02  0.45825666795E+02  0.76370487349E+02  0.00000000000E+00 0.  1.
</event>
<event>
 7    1  0.6253338E-006  0.5471440E+02  0.7818608E-02  0.1514756E+00
          2   -1    0    0  502    0  0.00000000000E+00  0.00000000000E+00  0.75850134814E+03  0.75850134814E+03  0.00000000000E+00 0. -1.
          1   -1    0    0  501    0 -0.00000000000E+00 -0.00000000000E+00 -0.36435149887E+03  0.36435149887E+03  0.00000000000E+00 0. -1.
         25    2    1    2    0    0  0.53516708536E+02 -0.34845664977E+02  0.12744408249E+02  0.14097231581E+03  0.12503005808E+03 0.  0.
          2    1    1    2  501    0 -0.54183118205E+02  0.68771708729E+01 -0.29746309695E+03  0.30243577802E+03  0.00000000000E+00 0. -1.
          1    1    1    2  502    0  0.66640966965E+00  0.27968494104E+02  0.67886853797E+03  0.67944475317E+03  0.00000000000E+00 0. -1.
         22    1    3    3    0    0  0.72271486217E+02  0.13256998391E+02 -0.24340809783E+02  0.77404074487E+02  0.00000000000E+00 0. -1.
         22    1    3    3    0    0 -0.18754777681E+02 -0.48102663369E+02  0.37085218032E+02  0.63568241328E+02  0.00000000000E+00 0. -1.
</event>
<event>
 7    1  0.6253338E-006  0.8536738E+02  0.7818608E-02  0.1356301E+00
          2   -1    0    0  502    0  0.00000000000E+00  0.00000000000E+00  0.21823419690E+03  0.21823419690E+03  0.00000000000E+00 0. -1.
          1   -1    0    0  501    0 -0.00000000000E+00 -0.00000000000E+00 -0.13384717326E+04  0.13384717326E+04  0.00000000000E+00 0. -1.
         25    2    1    2    0    0  0.19064472979E+02 -0.25166579932E+02  0.39311755714E+01  0.12898811776E+03  0.12500267800E+03 0.  0.
          2    1    1    2  501    0 -0.19381484867E+02  0.84428125427E+02 -0.12686244661E+04  0.12715784625E+04  0.00000000000E+00 0. -1.
          1    1    1    2  502    0  0.31701188799E+00 -0.59261545496E+02  0.14445575483E+03  0.15613934922E+03  0.00000000000E+00 0. -1.
         22    1    3    3    0    0  0.33572915718E+02 -0.50152001206E+02  0.47436268664E+02  0.76763034590E+02  0.00000000000E+00 0.  1.
         22    1    3    3    0    0 -0.14508442738E+02  0.24985421274E+02 -0.43505093092E+02  0.52225083168E+02  0.00000000000E+00 0.  1.
</event>
<event>
 7    1  0.6253338E-006  0.9971654E+02  0.7818608E-02  0.1281412E+00
          2   -1    0    0  502    0  0.00000000000E+00  0.00000000000E+00  0.11609841115E+04  0.11609841115E+04  0.00000000000E+00 0. -1.
          1   -1    0    0  501    0 -0.00000000000E+00 -0.00000000000E+00 -0.18483324871E+04  0.18483324871E+04  0.00000000000E+00 0. -1.
         25    2    1    2    0    0  0.86012886569E+01  0.34610283124E+01 -0.19035359524E+03  0.22791593859E+03  0.12500089183E+03 0.  0.
          2    1    1    2  501    0 -0.10575374269E+03 -0.23641861668E+02 -0.16352460176E+04  0.16388326119E+04  0.00000000000E+00 0. -1.
          1    1    1    2  502    0  0.97152454037E+02  0.20180833356E+02  0.11382512373E+04  0.11425680481E+04  0.00000000000E+00 0. -1.
         22    1    3    3    0    0 -0.31319944498E+02 -0.19640870974E+02 -0.54768034013E+01  0.37372424480E+02  0.00000000000E+00 0.  1.
         22    1    3    3    0    0  0.39921233155E+02  0.23101899287E+02 -0.18487679184E+03  0.19054351411E+03  0.00000000000E+00 0.  1.
</event>
<event>
 7    1  0.6253338E-006  0.6462020E+02  0.7818608E-02  0.1384180E+00
          2   -1    0    0  502    0  0.00000000000E+00  0.00000000000E+00  0.24649457914E+04  0.24649457914E+04  0.00000000000E+00 0. -1.
          1   -1    0    0  501    0 -0.00000000000E+00 -0.00000000000E+00 -0.18904094335E+04  0.18904094335E+04  0.00000000000E+00 0. -1.
         25    2    1    2    0    0 -0.10547770140E+03  0.62902906495E+02  0.19659572788E+02  0.17633191510E+03  0.12499649732E+03 0.  0.
          2    1    1    2  501    0  0.45962463619E+02 -0.44967620092E+02 -0.18110945142E+04  0.18122356288E+04  0.00000000000E+00 0. -1.
          1    1    1    2  502    0  0.59515237786E+02 -0.17935286403E+02  0.23659712993E+04  0.23667876810E+04  0.00000000000E+00 0. -1.
         22    1    3    3    0    0  0.19412986914E+01  0.14775600418E+02 -0.41206613293E+02  0.43818626032E+02  0.00000000000E+00 0. -1.
         22    1    3    3    0    0 -0.10741900010E+03  0.48127306077E+02  0.60866186080E+02  0.13251328907E+03  0.00000000000E+00 0. -1.
</event>
<event>
 7    1  0.6253338E-006  0.1485636E+03  0.7818608E-02  0.1374111E+00
          2   -1    0    0  502    0  0.00000000000E+00  0.00000000000E+00  0.16162526539E+03  0.16162526539E+03  0.00000000000E+00 0. -1.
          1   -1    0    0  501    0 -0.00000000000E+00 -0.00000000000E+00 -0.86299581080E+03  0.86299581080E+03  0.00000000000E+00 0. -1.
         25    2    1    2    0    0 -0.83083840797E+01 -0.13069290606E+03  0.42771017475E+02  0.18602257730E+03  0.12500149755E+03 0.  0.
          2    1    1    2  501    0  0.33355353787E+02  0.14600015808E+03 -0.77886354249E+03  0.79313116419E+03  0.00000000000E+00 0. -1.
          1    1    1    2  502    0 -0.25046969707E+02 -0.15307252022E+02  0.34721979610E+02  0.45467334692E+02  0.00000000000E+00 0. -1.
         22    1    3    3    0    0 -0.41945776930E+02 -0.93736483772E+02  0.74461928269E+02  0.12684855282E+03  0.00000000000E+00 0.  1.
         22    1    3    3    0    0  0.33637392850E+02 -0.36956422290E+02 -0.31690910794E+02  0.59174024480E+02  0.00000000000E+00 0.  1.
</event>
<event>
 7    1  0.6253338E-006  0.4973749E+02  0.7818608E-02  0.1556330E+00
          2   -1    0    0  502    0  0.00000000000E+00  0.00000000000E+00  0.24134099662E+04  0.24134099662E+04  0.00000000000E+00 0. -1.
          1   -1    0    0  501    0 -0.00000000000E+00 -0.00000000000E+00 -0.47258701722E+02  0.47258701722E+02  0.00000000000E+00 0. -1.
         25    2    1    2    0    0  0.61083071667E+02 -0.10394890765E+02  0.12198099837E+04  0.12277625514E+04  0.12500116422E+03 0.  0.
          2    1    1    2  501    0 -0.48719643392E+02 -0.95197033540E+01 -0.28893587119E+02  0.57437511966E+02  0.00000000000E+00 0. -1.
          1    1    1    2  502    0 -0.12363428275E+02  0.19914594119E+02  0.11752348679E+04  0.11754686045E+04  0.00000000000E+00 0. -1.
         22    1    3    3    0    0 -0.12949968879E+02 -0.31706614853E+02  0.81306474516E+03  0.81378577706E+03  0.00000000000E+00 0.  1.
         22    1    3    3    0    0  0.74033040546E+02  0.21311724088E+02  0.40674523850E+03  0.41397677437E+03  0.00000000000E+00 0.  1.
</event>
<event>
 7    1  0.6253338E-006  0.5843877E+02  0.7818608E-02  0.1451710E+00
          2   -1    0    0  502    0  0.00000000000E+00  0.00000000000E+00  0.27575044360E+03  0.27575044360E+03  0.00000000000E+00 0. -1.
          1   -1    0    0  501    0 -0.00000000000E+00 -0.00000000000E+00 -0.26351008665E+04  0.26351008665E+04  0.00000000000E+00 0. -1.
         25    2    1    2    0    0 -0.28002682714E+02 -0.76684715424E+01 -0.49040926127E+03  0.50692268865E+03  0.12500565200E+03 0.  0.
          2    1    1    2  501    0  0.37109149404E+02  0.47454509067E+02 -0.21344505339E+04  0.21353004709E+04  0.00000000000E+00 0. -1.
          1    1    1    2  502    0 -0.91064666900E+01 -0.39786037524E+02  0.26550937225E+03  0.26862815056E+03  0.00000000000E+00 0. -1.
         22    1    3    3    0    0 -0.38352152547E+02 -0.34670741278E+02 -0.78476170612E+02  0.93975833381E+02  0.00000000000E+00 0. -1.
         22    1    3    3    0    0  0.10349469833E+02  0.27002269736E+02 -0.41193309066E+03  0.41294685527E+03  0.00000000000E+00 0. -1.
</event>
<event>
 7    1  0.6253338E-006  0.9575825E+02  0.7818608E-02  0.1303482E+00
          2   -1    0    0  502    0  0.00000000000E+00  0.00000000000E+00  0.74439386073E+03  0.74439386073E+03  0.00000000000E+00 0. -1.
          1   -1    0    0  501    0 -0.00000000000E+00 -0.00000000000E+00 -0.56073247792E+03  0.56073247792E+03  0.00000000000E+00 0. -1.
         25    2    1    2    0    0  0.46289831766E+02  0.97233255905E+02 -0.13886105494E+03  0.21566233571E+03  0.12502318140E+03 0.  0.
          2    1    1    2  501    0 -0.83660044583E+02 -0.85926918968E+01 -0.37552114593E+03  0.38482329511E+03  0.00000000000E+00 0. -1.
          1    1    1    2  502    0  0.37370212817E+02 -0.88640564008E+02  0.69804358369E+03  0.70464070783E+03  0.00000000000E+00 0. -1.
         22    1    3    3    0    0 -0.31727413204E+02 -0.84370981867E+01 -0.36840237022E+02  0.49345885728E+02  0.00000000000E+00 0. -1.
         22    1    3    3    0    0  0.78017244970E+02  0.10567035409E+03 -0.10202081792E+03  0.16631644999E+03  0.00000000000E+00 0. -1.
</event>
<event>
 7    1  0.6253338E-006  0.8038473E+02  0.7818608E-02  0.1407840E+00
          2   -1    0    0  502    0  0.00000000000E+00  0.00000000000E+00  0.26817514930E+04  0.26817514930E+04  0.00000000000E+00 0. -1.
          1   -1    0    0  501    0 -0.00000000000E+00 -0.00000000000E+00 -0.34445996601E+03  0.34445996601E+03  0.00000000000E+00 0. -1.
         25    2    1    2    0    0  0.64820309873E+02 -0.10256010845E+03 -0.22061241538E+03  0.28109594664E+03  0.12499937992E+03 0.  0.
          2    1    1    2  501    0 -0.25654273132E+02  0.32475657116E+02 -0.88392501223E+02  0.97601456482E+02  0.00000000000E+00 0. -1.
          1    1    1    2  502    0 -0.39166036741E+02  0.70084451333E+02  0.26462964436E+04  0.26475140559E+04  0.00000000000E+00 0. -1.
         22    1    3    3    0    0  0.89189599382E+02 -0.26223329845E+02 -0.13411827542E+03  0.16318749789E+03  0.00000000000E+00 0.  1.
         22    1    3    3    0    0 -0.24369289509E+02 -0.76336778604E+02 -0.86494139952E+02  0.11790844874E+03  0.00000000000E+00 0.  1.
</event>
<event>
 7    1  0.6253338E-006  0.6363516E+02  0.7818608E-02  0.1460910E+00
          2   -1    0    0  502    0  0.00000000000E+00  0.00000000000E+00  0.28524284397E+03  0.28524284397E+03  0.00000000000E+00 0. -1.
          1   -1    0    0  501    0 -0.00000000000E+00 -0.00000000000E+00 -0.16602640860E+04  0.16602640860E+04  0.00000000000E+00 0. -1.
         25    2    1    2    0    0 -0.70474369033E+02  0.41474312488E+00 -0.23280623919E+03  0.27347893449E+03  0.12500069559E+03 0.  0.
          2    1    1    2  501    0  0.55505586707E+02  0.31274651838E+02 -0.14052374220E+04  0.14066809112E+04  0.00000000000E+00 0. -1.
          1    1    1    2  502    0  0.14968782326E+02 -0.31689394963E+02  0.26302241907E+03  0.26534708427E+03  0.00000000000E+00 0. -1.
         22    1    3    3    0    0  0.13893782639E+02 -0.18273958398E+02 -0.15656855440E+03  0.15824249423E+03  0.00000000000E+00 0. -1.
         22    1    3    3    0    0 -0.84368151672E+02  0.18688701523E+02 -0.76237684788E+02  0.11523644026E+03  0.00000000000E+00 0. -1.
</event>
<event>
 7    1  0.6253338E-006  0.1219508E+03  0.7818608E-02  0.1433235E+00
          2   -1    0    0  502    0  0.00000000000E+00  0.00000000000E+00  0.61870088271E+03  0.61870088271E+03  0.00000000000E+00 0. -1.
          1   -1    0    0  501    0 -0.00000000000E+00 -0.00000000000E+00 -0.55918218965E+03  0.55918218965E+03  0.00000000000E+00 0. -1.
         25    2    1    2    0    0 -0.37802204325E+01 -0.12787176399E+03 -0.17786959411E+03  0.25224637095E+03  0.12500064421E+03 0.  0.
          2    1    1    2  501    0  0.21223454870E+02  0.72984899798E+01 -0.33736641219E+03  0.33811211020E+03  0.00000000000E+00 0. -1.
          1    1    1    2  502    0 -0.17443234438E+02  0.12057327401E+03  0.57475469936E+03  0.58752459121E+03  0.00000000000E+00 0. -1.
         22    1    3    3    0    0  0.33024256143E+02 -0.13621815131E+03 -0.15026847060E+03  0.20549111780E+03  0.00000000000E+00 0.  1.
         22    1    3    3    0    0 -0.36804476576E+02  0.83463873175E+01 -0.27601123515E+02  0.46755253144E+02  0.00000000000E+00 0.  1.
</event>
<event>
 7    1  0.6253338E-006  0.7307505E+02  0.7818608E-02  0.1398649E+00
          2   -1    0    0  502    0  0.00000000000E+00  0.00000000000E+00  0.13494040718E+04  0.13494040718E+04  0.00000000000E+00 0. -1.
          1   -1    0    0  501    0 -0.00000000000E+00 -0.00000000000E+00 -0.66860008550E+03  0.66860008550E+03  0.00000000000E+00 0. -1.
         25    2    1    2    0    0  0.63545061927E+02 -0.65684616569E+02 -0.10426948800E+02  0.15519402493E+03  0.12499608140E+03 0.  0.
          2    1    1    2  501    0 -0.70848302033E+02  0.17286880429E+02 -0.58304822143E+03  0.58759130920E+03  0.00000000000E+00 0. -1.
          1    1    1    2  502    0  0.73032401057E+01  0.48397736139E+02  0.12742791566E+04  0.12752188232E+04  0.00000000000E+00 0. -1.
         22    1    3    3    0    0  0.44965828390E+02 -0.93676056539E+02 -0.39103317597E+02  0.11102341527E+03  0.00000000000E+00 0. -1.
         22    1    3    3    0    0  0.18579233537E+02  0.27991439971E+02  0.28676368797E+02  0.44170609661E+02  0.00000000000E+00 0. -1.
</event>
<event>
 7    1  0.6253338E-006  0.6754233E+02  0.7818608E-02  0.1486436E+00
          2   -1    0    0  502    0  0.00000000000E+00  0.00000000000E+00  0.14256455499E+04  0.14256455499E+04  0.00000000000E+00 0. -1.
          1   -1    0    0  501    0 -0.00000000000E+00 -0.00000000000E+00 -0.25416397563E+03  0.25416397563E+03  0.00000000000E+00 0. -1.
         25    2    1    2    0    0 -0.23985966662E+01  0.69113244283E+02  0.79298676635E+03  0.80575091670E+03  0.12499653735E+03 0.  0.
          2    1    1    2  501    0  0.26999588324E+02 -0.53657419405E+01 -0.24514547716E+03  0.24668618512E+03  0.00000000000E+00 0. -1.
          1    1    1    2  502    0 -0.24600991658E+02 -0.63747502342E+02  0.62364028511E+03  0.62737242373E+03  0.00000000000E+00 0. -1.
         22    1    3    3    0    0 -0.56687537023E+02  0.40776101468E+02  0.57829798968E+03  0.58249869715E+03  0.00000000000E+00 0.  1.
         22    1    3    3    0    0  0.54288940357E+02  0.28337142814E+02  0.21468877667E+03  0.22325221956E+03  0.00000000000E+00 0.  1.
</event>
<event>
 7    1  0.6253338E-006  0.4640778E+02  0.7818608E-02  0.1488395E+00
          2   -1    0    0  502    0  0.00000000000E+00  0.00000000000E+00  0.68402109939E+03  0.68402109939E+03  0.00000000000E+00 0. -1.
          1   -1    0    0  501    0 -0.00000000000E+00 -0.00000000000E+00 -0.40225743184E+03  0.40225743184E+03  0.00000000000E+00 0. -1.
         25    2    1    2    0    0 -0.10183236538E+02 -0.44632840148E+01  0.28635252935E+03  0.31264456392E+03  0.12500093228E+03 0.  0.
          2    1    1    2  501    0  0.16932616838E+02  0.43401638121E+02 -0.38669419581E+03  0.38949045788E+03  0.00000000000E+00 0. -1.
          1    1    1    2  502    0 -0.67493802995E+01 -0.38938354106E+02  0.38210533402E+03  0.38414350944E+03  0.00000000000E+00 0. -1.
         22    1    3    3    0    0 -0.29308496641E+02  0.25675233930E+02  0.27100261160E+03  0.27378937362E+03  0.00000000000E+00 0. -1.
         22    1    3    3    0    0  0.19125260103E+02 -0.30138517945E+02  0.15349917745E+02  0.38855190293E+02  0.00000000000E+00 0. -1.
</event>
<event>
 7    1  0.6253338E-006  0.1163411E+03  0.7818608E-02  0.1408858E+00
          2   -1    0    0  502    0  0.00000000000E+00  0.00000000000E+00  0.26172224315E+04  0.26172224315E+04  0.00000000000E+00 0. -1.
          1   -1    0    0  501    0 -0.00000000000E+00 -0.00000000000E+00 -0.22156636913E+03  0.22156636913E+03  0.00000000000E+00 0. -1.
         25    2    1    2    0    0 -0.14108394867E+03 -0.51296675742E+01  0.61712090256E+03  0.64528716523E+03  0.12500529260E+03 0.  0.
          2    1    1    2  501    0  0.27595985901E+02  0.65755173069E+01 -0.20488357290E+03  0.20683823223E+03  0.00000000000E+00 0. -1.
          1    1    1    2  502    0  0.11348796277E+03 -0.14458497327E+01  0.19834187327E+04  0.19866634032E+04  0.00000000000E+00 0. -1.
         22    1    3    3    0    0  0.12021331421E+02  0.12285115816E+02  0.12275252934E+02  0.21121513069E+02  0.00000000000E+00 0. -1.
         22    1    3    3    0    0 -0.15310528009E+03 -0.17414783390E+02  0.60484564962E+03  0.62416565216E+03  0.00000000000E+00 0. -1.
</event>
<event>
 7    1  0.6253338E-006  0.2234982E+03  0.7818608E-02  0.1165371E+00
          2   -1    0    0  502    0  0.00000000000E+00  0.00000000000E+00  0.21595738210E+04  0.21595738210E+04  0.00000000000E+00 0. -1.
          1   -1    0    0  501    0 -0.00000000000E+00 -0.00000000000E+00 -0.46279281342E+03  0.46279281342E+03  0.00000000000E+00 0. -1.
         25    2    1    2    0    0 -0.84377839633E+02 -0.10271515255E+03  0.43646096993E+03  0.47306924309E+03  0.12500523231E+03 0.  0.
          2    1    1    2  501    0 -0.10680354940E+03 -0.10400953487E+03 -0.41993503575E+03  0.44561240530E+03  0.00000000000E+00 0. -1.
          1    1    1    2  502    0  0.19118138903E+03  0.20672468742E+03  0.16802550734E+04  0.17036849860E+04  0.00000000000E+00 0. -1.
         22    1    3    3    0    0 -0.40772085325E+02 -0.12430207222E+03  0.35300664620E+03  0.37646654614E+03  0.00000000000E+00 0.  1.
         22    1    3    3    0    0 -0.43605754307E+02  0.21586919673E+02  0.83454323733E+02  0.96602696957E+02  0.00000000000E+00 0.  1.
</event>
<event>
 7    1  0.9501090E-006  0.1415314E+03  0.7818608E-02  0.1290648E+00
          2   -1    0    0  502    0  0.00000000000E+00  0.00000000000E+00  0.17144272260E+04  0.17144272260E+04  0.00000000000E+00 0. -1.
          1   -1    0    0  501    0 -0.00000000000E+00 -0.00000000000E+00 -0.12322399378E+04  0.12322399378E+04  0.00000000000E+00 0. -1.
         25    2    1    2    0    0 -0.37282865624E+02  0.13389945573E+03 -0.18787931158E+03  0.26503291557E+03  0.12499893719E+03 0.  0.
          2    1    1    2  501    0  0.95520034567E+02 -0.10716004675E+03 -0.10000439924E+04  0.10102946795E+04  0.00000000000E+00 0. -1.
          1    1    1    2  502    0 -0.58237168943E+02 -0.26739408984E+02  0.16701105922E+04  0.16713395688E+04  0.00000000000E+00 0. -1.
         22    1    3    3    0    0 -0.57144876216E+02  0.83530386913E+02 -0.18492549200E+03  0.21080868105E+03  0.00000000000E+00 0. -1.
         22    1    3    3    0    0  0.19862010593E+02  0.50369068822E+02 -0.29538195838E+01  0.54224234516E+02  0.00000000000E+00 0. -1.
</event>
<event>
 7    1  0.6253338E-006  0.3834910E+02  0.7818608E-02  0.1606709E+00
          2   -1    0    0  502    0  0.00000000000E+00  0.00000000000E+00  0.12639320797E+03  0.12639320797E+03  0.00000000000E+00 0. -1.
          1   -1    0    0  501    0 -0.00000000000E+00 -0.00000000000E+00 -0.43397656272E+03  0.43397656272E+03  0.00000000000E+00 0. -1.
         25    2    1    2    0    0 -0.74436737940E+01  0.17979437952E+02 -0.78417468777E+01  0.12674603765E+03  0.12499758637E+03 0.  0.
          2    1    1    2  501    0 -0.18176541966E+02  0.12895011180E+02 -0.36029593744E+03  0.36098452948E+03  0.00000000000E+00 0. -1.
          1    1    1    2  502    0  0.25620215760E+02 -0.30874449132E+02  0.60554329560E+02  0.72639203556E+02  0.00000000000E+00 0. -1.
         22    1    3    3    0    0 -0.37731340573E+02 -0.42227189467E+02 -0.16032809741E+02  0.58854401534E+02  0.00000000000E+00 0. -1.
         22    1    3    3    0    0  0.30287666779E+02  0.60206627419E+02  0.81910628637E+01  0.67891636119E+02  0.00000000000E+00 0. -1.
</event>
<event>
 7    1  0.6253338E-006  0.9482208E+02  0.7818608E-02  0.1367147E+00
          2   -1    0    0  502    0  0.00000000000E+00  0.00000000000E+00  0.20264759453E+03  0.20264759453E+03  0.00000000000E+00 0. -1.
          1   -1    0    0  501    0 -0.00000000000E+00 -0.00000000000E+00 -0.14170159491E+04  0.14170159491E+04  0.00000000000E+00 0. -1.
         25    2    1    2    0    0 -0.59430974011E+02  0.39418015597E+02 -0.35964454282E+03  0.38736908474E+03  0.12499916005E+03 0.  0.
          2    1    1    2  501    0  0.15938233910E+02  0.46036349620E+02 -0.10307212861E+04  0.10318719602E+04  0.00000000000E+00 0. -1.
          1    1    1    2  502    0  0.43492740101E+02 -0.85454365217E+02  0.17599747434E+03  0.20042249862E+03  0.00000000000E+00 0. -1.
         22    1    3    3    0    0  0.92727775914E+01 -0.13792469108E+02 -0.23406542105E+03  0.23465472069E+03  0.00000000000E+00 0. -1.
         22    1    3    3    0    0 -0.68703751602E+02  0.53210484705E+02 -0.12557912176E+03  0.15271436406E+03  0.00000000000E+00 0. -1.
</event>
<event>
 7    1  0.6253338E-006  0.6752111E+02  0.7818608E-02  0.1380344E+00
          2   -1    0    0  502    0  0.00000000000E+00  0.00000000000E+00  0.15843493821E+04  0.15843493821E+04  0.00000000000E+00 0. -1.
          1   -1    0    0  501    0 -0.00000000000E+00 -0.00000000000E+00 -0.26734067885E+03  0.26734067885E+03  0.00000000000E+00 0. -1.
         25    2    1    2    0    0  0.56473924393E+02  0.55914405368E+02  0.40601146051E+02  0.15357209782E+03  0.12498084374E+03 0.  0.
          2    1    1    2  501    0  0.36601147427E+01 -0.68182632056E+02 -0.20467517032E+03  0.21576420718E+03  0.00000000000E+00 0. -1.
          1    1    1    2  502    0 -0.60134039136E+02  0.12268226688E+02  0.14810827275E+04  0.14823537559E+04  0.00000000000E+00 0. -1.
         22    1    3    3    0    0  0.28291527100E+02  0.81120087203E+02 -0.14114372290E+02  0.87063738483E+02  0.00000000000E+00 0. -1.
         22    1    3    3    0    0  0.28182397293E+02 -0.25205681835E+02  0.54715518341E+02  0.66508359334E+02  0.00000000000E+00 0. -1.
</event>
<event>
 7    1  0.6253338E-006  0.5790965E+02  0.7818608E-02  0.1462324E+00
          2   -1    0    0  502    0  0.00000000000E+00  0.00000000000E+00  0.93089257917E+03  0.93089257917E+03  0.00000000000E+00 0. -1.
          1   -1    0    0  501    0 -0.00000000000E+00 -0.00000000000E+00 -0.22574672360E+03  0.22574672360E+03  0.00000000000E+00 0. -1.
         25    2    1    2    0    0  0.89423907039E+02 -0.41750512633E+01  0.38125029795E+03  0.41108403535E+03  0.12499691287E+03 0.  0.
          2    1    1    2  501    0 -0.35289696224E+02  0.14412248591E+02 -0.20767137955E+03  0.21114089479E+03  0.00000000000E+00 0. -1.
          1    1    1    2  502    0 -0.54134210815E+02 -0.10237197328E+02  0.53156693717E+03  0.53441437264E+03  0.00000000000E+00 0. -1.
         22    1    3    3    0    0  0.90915154108E+02  0.47127909000E+02  0.25697615580E+03  0.27662854102E+03  0.00000000000E+00 0. -1.
         22    1    3    3    0    0 -0.14912470693E+01 -0.51302960263E+02  0.12427414214E+03  0.13445549433E+03  0.00000000000E+00 0. -1.
</event>
<event>
 7    1  0.6253338E-006  0.1668187E+03  0.7818608E-02  0.1335026E+00
          2   -1    0    0  502    0  0.00000000000E+00  0.00000000000E+00  0.15317866320E+04  0.15317866320E+04  0.00000000000E+00 0. -1.
          1   -1    0    0  501    0 -0.00000000000E+00 -0.00000000000E+00 -0.55600372039E+03  0.55600372039E+03  0.00000000000E+00 0. -1.
         25    2    1    2    0    0  0.15699797844E+03 -0.32380374202E+02 -0.19094608510E+03  0.27889112543E+03  0.12499199400E+03 0.  0.
          2    1    1    2  501    0 -0.15703786662E+03  0.68787187988E+02 -0.29795743997E+03  0.34376038867E+03  0.00000000000E+00 0. -1.
          1    1    1    2  502    0  0.39888179173E-01 -0.36406813786E+02  0.14646864367E+04  0.14651388383E+04  0.00000000000E+00 0. -1.
         22    1    3    3    0    0  0.15035146488E+03  0.33003599851E+01 -0.99020021344E+02  0.18005949016E+03  0.00000000000E+00 0. -1.
         22    1    3    3    0    0  0.66465135615E+01 -0.35680734187E+02 -0.91926063753E+02  0.98831635278E+02  0.00000000000E+00 0. -1.
</event>
<event>
 7    1  0.6253338E-006  0.2762092E+03  0.7818608E-02  0.1112577E+00
          2   -1    0    0  502    0  0.00000000000E+00  0.00000000000E+00  0.23479816041E+03  0.23479816041E+03  0.00000000000E+00 0. -1.
          1   -1    0    0  501    0 -0.00000000000E+00 -0.00000000000E+00 -0.17757642204E+04  0.17757642204E+04  0.00000000000E+00 0. -1.
         25    2    1    2    0    0  0.25700554180E+02  0.84155953954E+02 -0.17303495771E+03  0.23088713446E+03  0.12500011679E+03 0.  0.
          2    1    1    2  501    0 -0.28952239137E+03 -0.16594559035E+03 -0.14528692176E+04  0.14907012167E+04  0.00000000000E+00 0. -1.
          1    1    1    2  502    0  0.26382183719E+03  0.81789636392E+02  0.84938115281E+02  0.28897402968E+03  0.00000000000E+00 0. -1.
         22    1    3    3    0    0  0.36446517890E+02  0.11476869962E+03 -0.13559172334E+03  0.18134309614E+03  0.00000000000E+00 0. -1.
         22    1    3    3    0    0 -0.10745963710E+02 -0.30612745663E+02 -0.37443234363E+02  0.49544038316E+02  0.00000000000E+00 0. -1.
</event>
<event>
 7    1  0.6253338E-006  0.9084115E+02  0.7818608E-02  0.1397580E+00
          2   -1    0    0  502    0  0.00000000000E+00  0.00000000000E+00  0.11520368222E+04  0.11520368222E+04  0.00000000000E+00 0. -1.
          1   -1    0    0  501    0 -0.00000000000E+00 -0.00000000000E+00 -0.29380888549E+03  0.29380888549E+03  0.00000000000E+00 0. -1.
         25    2    1    2    0    0 -0.22854468283E+02  0.12149988064E+03  0.32619023391E+03  0.37055313832E+03  0.12500004761E+03 0.  0.
          2    1    1    2  501    0 -0.15494425993E+01 -0.90175086493E+02 -0.26363233252E+03  0.27863229128E+03  0.00000000000E+00 0. -1.
          1    1    1    2  502    0  0.24403910883E+02 -0.31324794145E+02  0.79567003535E+03  0.79666027813E+03  0.00000000000E+00 0. -1.
         22    1    3    3    0    0 -0.22095670362E+02  0.14737901162E+03  0.26341861503E+03  0.30265187668E+03  0.00000000000E+00 0.  1.
         22    1    3    3    0    0 -0.75879792148E+00 -0.25879130983E+02  0.62771618882E+02  0.67901261636E+02  0.00000000000E+00 0.  1.
</event>
<event>
 7    1  0.6253338E-006  0.2258202E+03  0.7818608E-02  0.1275984E+00
          2   -1    0    0  502    0  0.00000000000E+00  0.00000000000E+00  0.17670003679E+03  0.17670003679E+03  0.00000000000E+00 0. -1.
          1   -1    0    0  501    0 -0.00000000000E+00 -0.00000000000E+00 -0.12088287415E+04  0.12088287415E+04  0.00000000000E+00 0. -1.
         25    2    1    2    0    0 -0.18341237646E+03  0.10451283393E+03 -0.48381513452E+03  0.54246262050E+03  0.12500231182E+03 0.  0.
          2    1    1    2  501    0 -0.33643601984E+02 -0.31580614669E+02 -0.60533558971E+03  0.60709175859E+03  0.00000000000E+00 0. -1.
          1    1    1    2  502    0  0.21705597844E+03 -0.72932219264E+02  0.57022019483E+02  0.23597439922E+03  0.00000000000E+00 0. -1.
         22    1    3    3    0    0 -0.16106759624E+03  0.99069870773E+02 -0.28317049395E+03  0.34050424153E+03  0.00000000000E+00 0. -1.
         22    1    3    3    0    0 -0.22344780216E+02  0.54429631602E+01 -0.20064464056E+03  0.20195837897E+03  0.00000000000E+00 0. -1.
</event>
<event>
 7    1  0.6253338E-006  0.5714060E+02  0.7818608E-02  0.1461057E+00
          2   -1    0    0  502    0  0.00000000000E+00  0.00000000000E+00  0.11615478968E+03  0.11615478968E+03  0.00000000000E+00 0. -1.
          1   -1    0    0  501    0 -0.00000000000E+00 -0.00000000000E+00 -0.41024624102E+03  0.41024624102E+03  0.00000000000E+00 0. -1.
         25    2    1    2    0    0  0.13171991252E+02 -0.25083593624E+02 -0.21014140808E+03  0.24614025051E+03  0.12499169376E+03 0.  0.
          2    1    1    2  501    0 -0.20987915454E+02 -0.32857614294E+02 -0.17100590134E+03  0.17539422370E+03  0.00000000000E+00 0. -1.
          1    1    1    2  502    0  0.78159242015E+01  0.57941207917E+02  0.87055858077E+02  0.10486655650E+03  0.00000000000E+00 0. -1.
         22    1    3    3    0    0 -0.24481684680E+02 -0.65264401085E+02 -0.88815206419E+02  0.11290232870E+03  0.00000000000E+00 0.  1.
         22    1    3    3    0    0  0.37653675933E+02  0.40180807462E+02 -0.12132620166E+03  0.13323792181E+03  0.00000000000E+00 0.  1.
</event>
<event>
 7    1  0.6253338E-006  0.6766811E+02  0.7818608E-02  0.1443469E+00
          2   -1    0    0  502    0  0.00000000000E+00  0.00000000000E+00  0.15559002343E+03  0.15559002343E+03  0.00000000000E+00 0. -1.
          1   -1    0    0  501    0 -0.00000000000E+00 -0.00000000000E+00 -0.14615793585E+04  0.14615793585E+04  0.00000000000E+00 0. -1.
         25    2    1    2    0    0 -0.11650217137E+02  0.31693308901E+02 -0.11350267284E+04  0.11423885743E+04  0.12500314886E+03 0.  0.
          2    1    1    2  501    0  0.96950448220E+01  0.36185981204E+02 -0.31411355590E+03  0.31633960411E+03  0.00000000000E+00 0. -1.
          1    1    1    2  502    0  0.19551723154E+01 -0.67879290105E+02  0.14315094917E+03  0.15844120352E+03  0.00000000000E+00 0. -1.
         22    1    3    3    0    0 -0.30314184674E+02 -0.41240560918E+02 -0.58476699544E+03  0.58700270239E+03  0.00000000000E+00 0.  1.
         22    1    3    3    0    0  0.18663967537E+02  0.72933869819E+02 -0.55025973291E+03  0.55538587191E+03  0.00000000000E+00 0.  1.
</event>
<event>
 7    1  0.6253338E-006  0.8768687E+02  0.7818608E-02  0.1333138E+00
          2   -1    0    0  502    0  0.00000000000E+00  0.00000000000E+00  0.93501685179E+02  0.93501685179E+02  0.00000000000E+00 0. -1.
          1   -1    0    0  501    0 -0.00000000000E+00 -0.00000000000E+00 -0.31866249973E+03  0.31866249973E+03  0.00000000000E+00 0. -1.
         25    2    1    2    0    0 -0.31685962372E+02 -0.56902273774E+02 -0.43492676413E+02  0.14750522305E+03  0.12499723579E+03 0.  0.
          2    1    1    2  501    0  0.94612931011E+02  0.25306009912E+02 -0.16566443156E+03  0.19244922639E+03  0.00000000000E+00 0. -1.
          1    1    1    2  502    0 -0.62926968639E+02  0.31596263862E+02 -0.16003706575E+02  0.72209735467E+02  0.00000000000E+00 0. -1.
         22    1    3    3    0    0  0.19124796627E+02 -0.81674409087E+02 -0.19647356799E+02  0.86153848289E+02  0.00000000000E+00 0.  1.
         22    1    3    3    0    0 -0.50810758999E+02  0.24772135314E+02 -0.23845319614E+02  0.61351374765E+02  0.00000000000E+00 0.  1.
</event>
<event>
 7    1  0.6253338E-006  0.5191327E+02  0.7818608E-02  0.1468710E+00
          2   -1    0    0  502    0  0.00000000000E+00  0.00000000000E+00  0.11832753566E+04  0.11832753566E+04  0.00000000000E+00 0. -1.
          1   -1    0    0  501    0 -0.00000000000E+00 -0.00000000000E+00 -0.40523026301E+03  0.40523026301E+03  0.00000000000E+00 0. -1.
         25    2    1    2    0    0  0.30528778270E+02 -0.41325980144E+01 -0.92990125155E+02  0.15881314361E+03  0.12500146614E+03 0.  0.
          2    1    1    2  501    0 -0.41715532649E+02 -0.34905601443E+02 -0.27631805472E+03  0.28162076280E+03  0.00000000000E+00 0. -1.
          1    1    1    2  502    0  0.11186754378E+02  0.39038199458E+02  0.11473532735E+04  0.11480717132E+04  0.00000000000E+00 0. -1.
         22    1    3    3    0    0 -0.45385072040E+02  0.13109091422E+02 -0.17509010822E+02  0.50380735425E+02  0.00000000000E+00 0.  1.
         22    1    3    3    0    0  0.75913850311E+02 -0.17241689436E+02 -0.75481114332E+02  0.10843240818E+03  0.00000000000E+00 0.  1.
</event>
<event>
 7    1  0.6253338E-006  0.1522975E+03  0.7818608E-02  0.1229560E+00
          2   -1    0    0  502    0  0.00000000000E+00  0.00000000000E+00  0.93629178679E+03  0.93629178679E+03  0.00000000000E+00 0. -1.
          1   -1    0    0  501    0 -0.00000000000E+00 -0.00000000000E+00 -0.25163930526E+03  0.25163930526E+03  0.00000000000E+00 0. -1.
         25    2    1    2    0    0 -0.17389847777E+03  0.16026640781E+02  0.22553871594E+03  0.31143310352E+03  0.12500132715E+03 0.  0.
          2    1    1    2  501    0  0.11182738614E+03 -0.10511099310E+03 -0.17522598458E+03  0.23293310377E+03  0.00000000000E+00 0. -1.
          1    1    1    2  502    0  0.62071091631E+02  0.89084352318E+02  0.63433975017E+03  0.64356488475E+03  0.00000000000E+00 0. -1.
         22    1    3    3    0    0 -0.17781667453E+03  0.27350900939E+02  0.14796348901E+03  0.23293783635E+03  0.00000000000E+00 0. -1.
         22    1    3    3    0    0  0.39181967563E+01 -0.11324260158E+02  0.77575226935E+02  0.78495267169E+02  0.00000000000E+00 0. -1.
</event>
<event>
 7    1  0.6253338E-006  0.3101320E+03  0.7818608E-02  0.1230165E+00
          2   -1    0    0  502    0  0.00000000000E+00  0.00000000000E+00  0.78241339944E+03  0.78241339944E+03  0.00000000000E+00 0. -1.
          1   -1    0    0  501    0 -0.00000000000E+00 -0.00000000000E+00 -0.11479553346E+04  0.11479553346E+04  0.00000000000E+00 0. -1.
         25    2    1    2    0    0  0.37991635533E+02 -0.33214003409E+03  0.12335908258E+03  0.37762843871E+03  0.12500163141E+03 0.  0.
          2    1    1    2  501    0 -0.78518383303E+02  0.29800521053E+03 -0.99615038976E+03  0.10427309533E+04  0.00000000000E+00 0. -1.
          1    1    1    2  502    0  0.40526747770E+02  0.34134823558E+02  0.50724937204E+03  0.51000934198E+03  0.00000000000E+00 0. -1.
         22    1    3    3    0    0  0.51440176759E+02 -0.24685805975E+03  0.14187006570E+03  0.28933044947E+03  0.00000000000E+00 0. -1.
         22    1    3    3    0    0 -0.13448541226E+02 -0.85281974337E+02 -0.18510983125E+02  0.88297989242E+02  0.00000000000E+00 0. -1.
</event>
<event>
 7    1  0.6253338E-006  0.7609085E+02  0.7818608E-02  0.1366035E+00
          2   -1    0    0  502    0  0.00000000000E+00  0.00000000000E+00  0.49034748630E+02  0.49034748630E+02  0.00000000000E+00 0. -1.
          1   -1    0    0  501    0 -0.00000000000E+00 -0.00000000000E+00 -0.79183178592E+03  0.79183178592E+03  0.00000000000E+00 0. -1.
         25    2    1    2    0    0  0.94022794122E+02  0.45560410228E+02 -0.40618191417E+03  0.43763525568E+03  0.12499933129E+03 0.  0.
          2    1    1    2  501    0 -0.20206194713E+02 -0.57846733948E+02 -0.32098904300E+03  0.32678509859E+03  0.00000000000E+00 0. -1.
          1    1    1    2  502    0 -0.73816599408E+02  0.12286323721E+02 -0.15626080114E+02  0.76446180274E+02  0.00000000000E+00 0. -1.
         22    1    3    3    0    0  0.35002022872E+02 -0.41782643039E+02 -0.10113488550E+03  0.11488775361E+03  0.00000000000E+00 0.  1.
         22    1    3    3    0    0  0.59020771249E+02  0.87343053267E+02 -0.30504702867E+03  0.32274750207E+03  0.00000000000E+00 0.  1.
</event>
<event>
 7    1  0.6253338E-006  0.2665604E+03  0.7818608E-02  0.1175123E+00
          2   -1    0    0  502    0  0.00000000000E+00  0.00000000000E+00  0.17520571123E+04  0.17520571123E+04  0.00000000000E+00 0. -1.
          1   -1    0    0  501    0 -0.00000000000E+00 -0.00000000000E+00 -0.24604911773E+03  0.24604911773E+03  0.00000000000E+00 0. -1.
         25    2    1    2    0    0 -0.17038572488E+03 -0.17881573905E+03  0.49585674488E+03  0.56789732493E+03  0.12500838548E+03 0.  0.
          2    1    1    2  501    0 -0.88956546909E+02  0.67737538840E+02 -0.17734979021E+03  0.20965349864E+03  0.00000000000E+00 0. -1.
          1    1    1    2  502    0  0.25934227179E+03  0.11107820021E+03  0.11875010399E+04  0.12205554064E+04  0.00000000000E+00 0. -1.
         22    1    3    3    0    0  0.20435950238E+02 -0.15536878103E+02  0.44415173772E+02  0.51300392830E+02  0.00000000000E+00 0.  1.
         22    1    3    3    0    0 -0.19082167512E+03 -0.16327886095E+03  0.45144157111E+03  0.51659693210E+03  0.00000000000E+00 0.  1.
</event>
<event>
 7    1  0.6253338E-006  0.9892848E+02  0.7818608E-02  0.1465669E+00
          2   -1    0    0  502    0  0.00000000000E+00  0.00000000000E+00  0.52116099144E+03  0.52116099144E+03  0.00000000000E+00 0. -1.
          1   -1    0    0  501    0 -0.00000000000E+00 -0.00000000000E+00 -0.36796923389E+03  0.36796923389E+03  0.00000000000E+00 0. -1.
         25    2    1    2    0    0  0.78964457560E+02 -0.11083865378E+02  0.18637430782E+03  0.23815687364E+03  0.12500030487E+03 0.  0.
          2    1    1    2  501    0 -0.99522146506E+02  0.38865821050E+01 -0.33442676836E+03  0.34894272677E+03  0.00000000000E+00 0. -1.
          1    1    1    2  502    0  0.20557688945E+02  0.71972832726E+01  0.30124421809E+03  0.30203062493E+03  0.00000000000E+00 0. -1.
         22    1    3    3    0    0 -0.14992915134E+02  0.27144581845E+02  0.65475291529E+01  0.31693626579E+02  0.00000000000E+00 0. -1.
         22    1    3    3    0    0  0.93957372694E+02 -0.38228447223E+02  0.17982677867E+03  0.20646324706E+03  0.00000000000E+00 0. -1.
</event>
<event>
 7    1  0.6253338E-006  0.4366103E+02  0.7818608E-02  0.1516226E+00
          2   -1    0    0  502    0  0.00000000000E+00  0.00000000000E+00  0.15610402507E+03  0.15610402507E+03  0.00000000000E+00 0. -1.
          1   -1    0    0  501    0 -0.00000000000E+00 -0.00000000000E+00 -0.11994416775E+04  0.11994416775E+04  0.00000000000E+00 0. -1.
         25    2    1    2    0    0 -0.15425645232E+02  0.19336140681E+02 -0.52681953604E+03  0.54201198410E+03  0.12500532185E+03 0.  0.
          2    1    1    2  501    0 -0.68068981758E+01 -0.45996439556E+02 -0.66217085654E+03  0.66380136303E+03  0.00000000000E+00 0. -1.
          1    1    1    2  502    0  0.22232543408E+02  0.26660298875E+02  0.14565274019E+03  0.14973235538E+03  0.00000000000E+00 0. -1.
         22    1    3    3    0    0 -0.54621270167E+02  0.32707259064E+02 -0.45229354466E+03  0.45675233825E+03  0.00000000000E+00 0.  1.
         22    1    3    3    0    0  0.39195624934E+02 -0.13371118383E+02 -0.74525991376E+02  0.85259645856E+02  0.00000000000E+00 0.  1.
</event>
<event>
 7    1  0.6253338E-006  0.1042736E+03  0.7818608E-02  0.1340772E+00
          2   -1    0    0  502    0  0.00000000000E+00  0.00000000000E+00  0.16979076981E+04  0.16979076981E+04  0.00000000000E+00 0. -1.
          1   -1    0    0  501    0 -0.00000000000E+00 -0.00000000000E+00 -0.44921218616E+03  0.44921218616E+03  0.00000000000E+00 0. -1.
         25    2    1    2    0    0  0.54321369477E+01 -0.10367646057E+03 -0.30296279736E+02  0.16529133615E+03  0.12500017861E+03 0.  0.
          2    1    1    2  501    0  0.49088377868E+02  0.93804415095E+02 -0.34296051253E+03  0.35893014681E+03  0.00000000000E+00 0. -1.
          1    1    1    2  502    0 -0.54520514815E+02  0.98720454765E+01  0.16219523042E+04  0.16228984013E+04  0.00000000000E+00 0. -1.
         22    1    3    3    0    0  0.33280095804E+02 -0.47708748167E+01 -0.50407138613E+02  0.60590474882E+02  0.00000000000E+00 0.  1.
         22    1    3    3    0    0 -0.27847958856E+02 -0.98905585755E+02  0.20110858877E+02  0.10470086127E+03  0.00000000000E+00 0.  1.
</event>
<event>
 7    1  0.6253338E-006  0.8322845E+02  0.7818608E-02  0.1401684E+00
          2   -1    0    0  502    0  0.00000000000E+00  0.00000000000E+00  0.73428531076E+03  0.73428531076E+03  0.00000000000E+00 0. -1.
          1   -1    0    0  501    0 -0.00000000000E+00 -0.00000000000E+00 -0.10829024681E+04  0.10829024681E+04  0.00000000000E+00 0. -1.
         25    2    1    2    0    0  0.33530481685E+02  0.42180590794E+02  0.13846439373E+02  0.13681988758E+03  0.12499784923E+03 0.  0.
          2    1    1    2  501    0  0.41815551877E+02 -0.34115380085E+01 -0.10182579397E+04  0.10191218821E+04  0.00000000000E+00 0. -1.
          1    1    1    2  502    0 -0.75346033562E+02 -0.38769052786E+02  0.65579434299E+03  0.66124600908E+03  0.00000000000E+00 0. -1.
         22    1    3    3    0    0  0.54298213640E+02 -0.82766091323E+01  0.47581778096E+02  0.72669277345E+02  0.00000000000E+00 0. -1.
         22    1    3    3    0    0 -0.20767731955E+02  0.50457199926E+02 -0.33735338723E+02  0.64150610236E+02  0.00000000000E+00 0. -1.
</event>
<event>
 7    1  0.6253338E-006  0.5130001E+02  0.7818608E-02  0.1513553E+00
          2   -1    0    0  502    0  0.00000000000E+00  0.00000000000E+00  0.11251438275E+03  0.11251438275E+03  0.00000000000E+00 0. -1.
          1   -1    0    0  501    0 -0.00000000000E+00 -0.00000000000E+00 -0.13941097214E+04  0.13941097214E+04  0.00000000000E+00 0. -1.
         25    2    1    2    0    0  0.24176771733E+01  0.69375474287E+02 -0.23255066940E+03  0.27299034595E+03  0.12500045420E+03 0.  0.
          2    1    1    2  501    0  0.19131510737E+02 -0.23213777952E+02 -0.11340946932E+04  0.11344935731E+04  0.00000000000E+00 0. -1.
          1    1    1    2  502    0 -0.21549187911E+02 -0.46161696335E+02  0.85050024016E+02  0.99140185058E+02  0.00000000000E+00 0. -1.
         22    1    3    3    0    0 -0.19387785224E+01  0.10562893612E+03 -0.15938485248E+03  0.19121914707E+03  0.00000000000E+00 0. -1.
         22    1    3    3    0    0  0.43564556956E+01 -0.36253461828E+02 -0.73165816922E+02  0.81771198883E+02  0.00000000000E+00 0. -1.
</event>
<event>
 7    1  0.6253338E-006  0.1259786E+03  0.7818608E-02  0.1430343E+00
          2   -1    0    0  502    0  0.00000000000E+00  0.00000000000E+00  0.89517146639E+02  0.89517146639E+02  0.00000000000E+00 0. -1.
          1   -1    0    0  501    0 -0.00000000000E+00 -0.00000000000E+00 -0.79495221082E+03  0.79495221082E+03  0.00000000000E+00 0. -1.
         25    2    1    2    0    0  0.11224738328E+03  0.29466897436E+02 -0.30660817088E+03  0.35085891935E+03  0.12500255095E+03 0.  0.
          2    1    1    2  501    0  0.51709320828E+01  0.21595583948E+02 -0.40482086397E+03  0.40542945094E+03  0.00000000000E+00 0. -1.
          1    1    1    2  502    0 -0.11741831536E+03 -0.51062481385E+02  0.59939706649E+01  0.12818098717E+03  0.00000000000E+00 0. -1.
         22    1    3    3    0    0  0.10935338840E+03  0.65366617331E+02 -0.18955526264E+03  0.22839035839E+03  0.00000000000E+00 0. -1.
         22    1    3    3    0    0  0.28939948794E+01 -0.35899719895E+02 -0.11705290824E+03  0.12246856096E+03  0.00000000000E+00 0. -1.
</event>
<event>
 7    1  0.6253338E-006  0.1352369E+03  0.7818608E-02  0.1287871E+00
          2   -1    0    0  502    0  0.00000000000E+00  0.00000000000E+00  0.96294560271E+03  0.96294560271E+03  0.00000000000E+00 0. -1.
          1   -1    0    0  501    0 -0.00000000000E+00 -0.00000000000E+00 -0.63346465459E+03  0.63346465459E+03  0.00000000000E+00 0. -1.
         25    2    1    2    0    0  0.81843585903E+02 -0.11482695871E+03  0.22176326338E+02  0.18973731707E+03  0.12499942816E+03 0.  0.
          2    1    1    2  501    0 -0.16064353347E+02  0.13510562147E+03 -0.53984757634E+03  0.55672883712E+03  0.00000000000E+00 0. -1.
          1    1    1    2  502    0 -0.65779232556E+02 -0.20278662759E+02  0.84715219812E+03  0.84994410310E+03  0.00000000000E+00 0. -1.
         22    1    3    3    0    0  0.18520234446E+02 -0.39518200535E+02  0.68313241748E+02  0.81064087336E+02  0.00000000000E+00 0.  1.
         22    1    3    3    0    0  0.63323351458E+02 -0.75308758179E+02 -0.46136915410E+02  0.10867322974E+03  0.00000000000E+00 0.  1.
</event>
<event>
 7    1  0.6253338E-006  0.8241545E+02  0.7818608E-02  0.1416287E+00
          2   -1    0    0  502    0  0.00000000000E+00  0.00000000000E+00  0.13347882402E+04  0.13347882402E+04  0.00000000000E+00 0. -1.
          1   -1    0    0  501    0 -0.00000000000E+00 -0.00000000000E+00 -0.46788766020E+03  0.46788766020E+03  0.00000000000E+00 0. -1.
         25    2    1    2    0    0  0.11085205431E+03  0.19508170616E+02 -0.54388290450E+02  0.17678000222E+03  0.12499734550E+03 0.  0.
          2    1    1    2  501    0 -0.35476750072E+02  0.13045249664E+02 -0.34996148963E+03  0.35199690703E+03  0.00000000000E+00 0. -1.
          1    1    1    2  502    0 -0.75375304239E+02 -0.32553420279E+02  0.12712503601E+04  0.12738989911E+04  0.00000000000E+00 0. -1.
         22    1    3    3    0    0 -0.37444066697E+01  0.18844800404E+02  0.29187141074E+02  0.34943329659E+02  0.00000000000E+00 0. -1.
         22    1    3    3    0    0  0.11459646098E+03  0.66337021141E+00 -0.83575431524E+02  0.14183667256E+03  0.00000000000E+00 0. -1.
</event>
<event>
 7    1  0.6253338E-006  0.3573317E+02  0.7818608E-02  0.1585541E+00
          2   -1    0    0  502    0  0.00000000000E+00  0.00000000000E+00  0.12023594141E+04  0.12023594141E+04  0.00000000000E+00 0. -1.
          1   -1    0    0  501    0 -0.00000000000E+00 -0.00000000000E+00 -0.33735124926E+03  0.33735124926E+03  0.00000000000E+00 0. -1.
         25    2    1    2    0    0  0.24138455868E+02  0.41699179716E+02  0.12196922287E+03  0.18117101257E+03  0.12499983131E+03 0.  0.
          2    1    1    2  501    0  0.23578537912E+01 -0.35625501176E+02 -0.30653825403E+03  0.30861049397E+03  0.00000000000E+00 0. -1.
          1    1    1    2  502    0 -0.26496309660E+02 -0.60736785400E+01  0.10495771960E+04  0.10499291568E+04  0.00000000000E+00 0. -1.
         22    1    3    3    0    0 -0.67434266383E+01  0.34605441216E+02  0.14023372534E+03  0.14459774578E+03  0.00000000000E+00 0. -1.
         22    1    3    3    0    0  0.30881882507E+02  0.70937385001E+01 -0.18264502465E+02  0.36573266785E+02  0.00000000000E+00 0. -1.
</event>
<event>
 7    1  0.6253338E-006  0.2280858E+03  0.7818608E-02  0.1202248E+00
          2   -1    0    0  502    0  0.00000000000E+00  0.00000000000E+00  0.27125553919E+04  0.27125553919E+04  0.00000000000E+00 0. -1.
          1   -1    0    0  501    0 -0.00000000000E+00 -0.00000000000E+00 -0.12445861567E+03  0.12445861567E+03  0.00000000000E+00 0. -1.
         25    2    1    2    0    0  0.17184429013E+03 -0.18691720932E+03  0.10242136224E+04  0.10625960281E+04  0.12501308474E+03 0.  0.
          2    1    1    2  501    0 -0.78646953715E+02  0.21296133171E+03  0.20432893391E+02  0.22793721782E+03  0.00000000000E+00 0. -1.
          1    1    1    2  502    0 -0.93197336413E+02 -0.26044122391E+02  0.15434502604E+04  0.15464807616E+04  0.00000000000E+00 0. -1.
         22    1    3    3    0    0  0.10562599334E+03 -0.34427953951E+02  0.51812093698E+03  0.52989757484E+03  0.00000000000E+00 0. -1.
         22    1    3    3    0    0  0.66218296787E+02 -0.15248925537E+03  0.50609268544E+03  0.53269845324E+03  0.00000000000E+00 0. -1.
</event>
<event>
 7    1  0.6253338E-006  0.6614472E+02  0.7818608E-02  0.1375634E+00
          2   -1    0    0  502    0  0.00000000000E+00  0.00000000000E+00  0.13170249309E+04  0.13170249309E+04  0.00000000000E+00 0. -1.
          1   -1    0    0  501    0 -0.00000000000E+00 -0.00000000000E+00 -0.34668764496E+03  0.34668764496E+03  0.00000000000E+00 0. -1.
         25    2    1    2    0    0 -0.10701735659E+02  0.63264179291E+02  0.17461530626E+03  0.22412610097E+03  0.12500048172E+03 0.  0.
          2    1    1    2  501    0 -0.51131413959E+02 -0.42868017145E+02 -0.31751346518E+03  0.32444859216E+03  0.00000000000E+00 0. -1.
          1    1    1    2  502    0  0.61833149618E+02 -0.20396162146E+02  0.11132354448E+04  0.11151378827E+04  0.00000000000E+00 0. -1.
         22    1    3    3    0    0  0.40964158002E+02  0.75663094166E+02  0.12253274112E+03  0.14972387487E+03  0.00000000000E+00 0. -1.
         22    1    3    3    0    0 -0.51665893661E+02 -0.12398914875E+02  0.52082565141E+02  0.74402226106E+02  0.00000000000E+00 0. -1.
</event>
<event>
 7    1  0.6253338E-006  0.6668078E+02  0.7818608E-02  0.1388137E+00
          2   -1    0    0  502    0  0.00000000000E+00  0.00000000000E+00  0.71565295247E+03  0.71565295247E+03  0.00000000000E+00 0. -1.
          1   -1    0    0  501    0 -0.00000000000E+00 -0.00000000000E+00 -0.14769830358E+04  0.14769830358E+04  0.00000000000E+00 0. -1.
         25    2    1    2    0    0 -0.12651077711E+02  0.11846370792E+03  0.29107137736E+03  0.33843994330E+03  0.12500139458E+03 0.  0.
          2    1    1    2  501    0 -0.11829010538E+02 -0.65505703855E+02 -0.14504087393E+04  0.14519354096E+04  0.00000000000E+00 0. -1.
          1    1    1    2  502    0  0.24480088250E+02 -0.52958004061E+02  0.39800727860E+03  0.40226063533E+03  0.00000000000E+00 0. -1.
         22    1    3    3    0    0 -0.27873875727E+01  0.10794842454E+03  0.10110912742E+03  0.14793136090E+03  0.00000000000E+00 0. -1.
         22    1    3    3    0    0 -0.98636901385E+01  0.10515283372E+02  0.18996224993E+03  0.19050858240E+03  0.00000000000E+00 0. -1.
</event>
<event>
 7    1  0.6433596E-006  0.1654003E+03  0.7818608E-02  0.1294052E+00
          2   -1    0    0  502    0  0.00000000000E+00  0.00000000000E+00  0.15320385190E+04  0.15320385190E+04  0.00000000000E+00 0. -1.
          1   -1    0    0  501    0 -0.00000000000E+00 -0.00000000000E+00 -0.92149364399E+03  0.92149364399E+03  0.00000000000E+00 0. -1.
         25    2    1    2    0    0  0.12827197294E+03 -0.19891059463E+02 -0.25461483831E+03  0.31193908173E+03  0.12501168559E+03 0.  0.
          2    1    1    2  501    0  0.23404301719E+02 -0.47686694380E+02 -0.63251485608E+03  0.63474154214E+03  0.00000000000E+00 0. -1.
          1    1    1    2  502    0 -0.15167627466E+03  0.67577753843E+02  0.14976745694E+04  0.15068515391E+04  0.00000000000E+00 0. -1.
         22    1    3    3    0    0  0.92488515400E+02  0.47299864465E+02 -0.13950018169E+03  0.17393016803E+03  0.00000000000E+00 0. -1.
         22    1    3    3    0    0  0.35783457544E+02 -0.67190923928E+02 -0.11511465661E+03  0.13800891370E+03  0.00000000000E+00 0. -1.
</event>
<event>
 7    1  0.6253338E-006  0.7396187E+02  0.7818608E-02  0.1424170E+00
          2   -1    0    0  502    0  0.00000000000E+00  0.00000000000E+00  0.81939135106E+02  0.81939135106E+02  0.00000000000E+00 0. -1.
          1   -1    0    0  501    0 -0.00000000000E+00 -0.00000000000E+00 -0.53798693198E+03  0.53798693198E+03  0.00000000000E+00 0. -1.
         25    2    1    2    0    0  0.26319480042E+02  0.10139112654E+03 -0.32136024113E+03  0.36037452553E+03  0.12499807400E+03 0.  0.
          2    1    1    2  501    0 -0.17900288561E+02 -0.62652922344E+02 -0.18462841186E+03  0.19578932421E+03  0.00000000000E+00 0. -1.
          1    1    1    2  502    0 -0.84191914806E+01 -0.38738204193E+02  0.49940856123E+02  0.63762217336E+02  0.00000000000E+00 0. -1.
         22    1    3    3    0    0 -0.26317853394E+02 -0.77642739554E+00 -0.16067430255E+03  0.16281727104E+03  0.00000000000E+00 0.  1.
         22    1    3    3    0    0  0.52637333436E+02  0.10216755393E+03 -0.16068593858E+03  0.19755725450E+03  0.00000000000E+00 0.  1.
</event>
<event>
 7    1  0.6253338E-006  0.3038607E+02  0.7818608E-02  0.1642315E+00
          2   -1    0    0  502    0  0.00000000000E+00  0.00000000000E+00  0.92487023308E+03  0.92487023308E+03  0.00000000000E+00 0. -1.
          1   -1    0    0  501    0 -0.00000000000E+00 -0.00000000000E+00 -0.50370128395E+02  0.50370128395E+02  0.00000000000E+00 0. -1.
         25    2    1    2    0    0 -0.13361191164E+01  0.15944904491E+02  0.12899201739E+03  0.18033821317E+03  0.12500762132E+03 0.  0.
          2    1    1    2  501    0  0.21811638553E+02  0.68188767515E+01 -0.19037694153E+02  0.29743544765E+02  0.00000000000E+00 0. -1.
          1    1    1    2  502    0 -0.20475519436E+02 -0.22763781242E+02  0.76454578145E+03  0.76515860353E+03  0.00000000000E+00 0. -1.
         22    1    3    3    0    0 -0.39715253679E+02  0.17348212753E+02  0.13471019841E+03  0.14151006825E+03  0.00000000000E+00 0.  1.
         22    1    3    3    0    0  0.38379134562E+02 -0.14033082619E+01 -0.57181810248E+01  0.38828144922E+02  0.00000000000E+00 0.  1.
</event>
<event>
 7    1  0.6253338E-006  0.1229928E+03  0.7818608E-02  0.1374195E+00
          2   -1    0    0  502    0  0.00000000000E+00  0.00000000000E+00  0.34056948160E+03  0.34056948160E+03  0.00000000000E+00 0. -1.
          1   -1    0    0  501    0 -0.00000000000E+00 -0.00000000000E+00 -0.32886303978E+04  0.32886303978E+04  0.00000000000E+00 0. -1.
         25    2    1    2    0    0 -0.11030795454E+03 -0.85751055123E+02 -0.84732813640E+02  0.20573311864E+03  0.12500151242E+03 0.  0.
          2    1    1    2  501    0  0.76406839564E+02  0.96054980360E+02 -0.31410734086E+04  0.31434704902E+04  0.00000000000E+00 0. -1.
          1    1    1    2  502    0  0.33901114976E+02 -0.10303925237E+02  0.27774530608E+03  0.27999627055E+03  0.00000000000E+00 0. -1.
         22    1    3    3    0    0 -0.64520207940E+02  0.12610224758E+01  0.14388372551E+02  0.66117113329E+02  0.00000000000E+00 0.  1.
         22    1    3    3    0    0 -0.45787746600E+02 -0.87012077599E+02 -0.99121186190E+02  0.13961600531E+03  0.00000000000E+00 0.  1.
</event>
<event>
 7    1  0.6253338E-006  0.4613418E+02  0.7818608E-02  0.1529348E+00
          2   -1    0    0  502    0  0.00000000000E+00  0.00000000000E+00  0.15899651453E+04  0.15899651453E+04  0.00000000000E+00 0. -1.
          1   -1    0    0  501    0 -0.00000000000E+00 -0.00000000000E+00 -0.27352455896E+04  0.27352455896E+04  0.00000000000E+00 0. -1.
         25    2    1    2    0    0  0.68887665335E+02  0.24485923034E+01  0.51075446965E+03  0.53032722118E+03  0.12500130886E+03 0.  0.
          2    1    1    2  501    0 -0.43860890562E+02  0.14280795522E+02 -0.27250521436E+04  0.27254425153E+04  0.00000000000E+00 0. -1.
          1    1    1    2  502    0 -0.25026774773E+02 -0.16729387826E+02  0.10690172296E+04  0.10694409984E+04  0.00000000000E+00 0. -1.
         22    1    3    3    0    0  0.83035244800E+02  0.46666861334E+01  0.50917236255E+03  0.51591968815E+03  0.00000000000E+00 0.  1.
         22    1    3    3    0    0 -0.14147579465E+02 -0.22180938300E+01  0.15821070966E+01  0.14407533024E+02  0.00000000000E+00 0.  1.
</event>
<event>
 7    1  0.6253338E-006  0.4674960E+02  0.7818608E-02  0.1481559E+00
          2   -1    0    0  502    0  0.00000000000E+00  0.00000000000E+00  0.56727951715E+03  0.56727951715E+03  0.00000000000E+00 0. -1.
          1   -1    0    0  501    0 -0.00000000000E+00 -0.00000000000E+00 -0.64949058994E+03  0.64949058994E+03  0.00000000000E+00 0. -1.
         25    2    1    2    0    0 -0.30909756836E+02 -0.55539549907E+01  0.31112073277E+02  0.13258877927E+03  0.12500225518E+03 0.  0.
          2    1    1    2  501    0  0.16507771049E+02  0.44108816139E+02 -0.59695071145E+03  0.59880568306E+03  0.00000000000E+00 0. -1.
          1    1    1    2  502    0  0.14401985786E+02 -0.38554861148E+02  0.48362756539E+03  0.48537564475E+03  0.00000000000E+00 0. -1.
         22    1    3    3    0    0 -0.16374507503E+02 -0.52465351440E+02  0.55193044288E+02  0.77891011904E+02  0.00000000000E+00 0.  1.
         22    1    3    3    0    0 -0.14535249332E+02  0.46911396449E+02 -0.24080971011E+02  0.54697767366E+02  0.00000000000E+00 0.  1.
</event>
<event>
 7    1  0.6651997E-006  0.1277657E+03  0.7818608E-02  0.1259613E+00
          2   -1    0    0  502    0  0.00000000000E+00  0.00000000000E+00  0.10131090863E+04  0.10131090863E+04  0.00000000000E+00 0. -1.
          1   -1    0    0  501    0 -0.00000000000E+00 -0.00000000000E+00 -0.15335141490E+04  0.15335141490E+04  0.00000000000E+00 0. -1.
         25    2    1    2    0    0  0.18138965225E+03  0.44484093832E+02 -0.37498069480E+03  0.43716892051E+03  0.12500041217E+03 0.  0.
          2    1    1    2  501    0 -0.93015353246E+02 -0.80942715328E+02 -0.11217263939E+04  0.11284829116E+04  0.00000000000E+00 0. -1.
          1    1    1    2  502    0 -0.88374299001E+02  0.36458621495E+02  0.97630202597E+03  0.98097140311E+03  0.00000000000E+00 0. -1.
         22    1    3    3    0    0  0.12807310460E+03 -0.26021909403E+02 -0.17405183512E+03  0.21765546444E+03  0.00000000000E+00 0. -1.
         22    1    3    3    0    0  0.53316547646E+02  0.70506003235E+02 -0.20092885968E+03  0.21951345607E+03  0.00000000000E+00 0. -1.
</event>
<event>
 7    1  0.6253338E-006  0.9663381E+02  0.7818608E-02  0.1432813E+00
          2   -1    0    0  502    0  0.00000000000E+00  0.00000000000E+00  0.21270676601E+04  0.21270676601E+04  0.00000000000E+00 0. -1.
          1   -1    0    0  501    0 -0.00000000000E+00 -0.00000000000E+00 -0.12583123066E+03  0.12583123066E+03  0.00000000000E+00 0. -1.
         25    2    1    2    0    0 -0.39964445296E+02  0.73366602657E+02  0.15461786933E+04  0.15534714407E+04  0.12500060059E+03 0.  0.
          2    1    1    2  501    0  0.21006051156E+02 -0.94530532333E+02 -0.10257952351E+03  0.14106677274E+03  0.00000000000E+00 0. -1.
          1    1    1    2  502    0  0.18958394141E+02  0.21163929677E+02  0.55763725965E+03  0.55836067732E+03  0.00000000000E+00 0. -1.
         22    1    3    3    0    0 -0.82971928221E+02  0.67461076692E+02  0.10958381769E+04  0.11010434358E+04  0.00000000000E+00 0.  1.
         22    1    3    3    0    0  0.43007482925E+02  0.59055259648E+01  0.45034051647E+03  0.45242800488E+03  0.00000000000E+00 0.  1.
</event>
<event>
 7    1  0.6253338E-006  0.1217631E+03  0.7818608E-02  0.1312358E+00
          2   -1    0    0  502    0  0.00000000000E+00  0.00000000000E+00  0.19916151751E+02  0.19916151751E+02  0.00000000000E+00 0. -1.
          1   -1    0    0  501    0 -0.00000000000E+00 -0.00000000000E+00 -0.25039912053E+04  0.25039912053E+04  0.00000000000E+00 0. -1.
         25    2    1    2    0    0  0.21067094269E+02 -0.10163780288E+03 -0.57567196699E+03  0.59817207317E+03  0.12505019035E+03 0.  0.
          2    1    1    2  501    0 -0.42855164879E+02 -0.43417408842E+02 -0.12366612864E+04  0.12381650834E+04  0.00000000000E+00 0. -1.
          1    1    1    2  502    0  0.21788070609E+02  0.14505521172E+03 -0.67174180023E+03  0.68757020053E+03  0.00000000000E+00 0. -1.
         22    1    3    3    0    0 -0.51648987462E+02 -0.55513915686E+02 -0.29490045486E+03  0.30449251390E+03  0.00000000000E+00 0. -1.
         22    1    3    3    0    0  0.72716081731E+02 -0.46123887196E+02 -0.28077151212E+03  0.29367955927E+03  0.00000000000E+00 0. -1.
</event>
<event>
 7    1  0.6253338E-006  0.1075788E+03  0.7818608E-02  0.1297470E+00
          2   -1    0    0  502    0  0.00000000000E+00  0.00000000000E+00  0.98603193814E+03  0.98603193814E+03  0.00000000000E+00 0. -1.
          1   -1    0    0  501    0 -0.00000000000E+00 -0.00000000000E+00 -0.61943243578E+02  0.61943243578E+02  0.00000000000E+00 0. -1.
         25    2    1    2    0    0  0.68899888411E+02 -0.45072843175E+02  0.93472036838E+02  0.17646727272E+03  0.12499968342E+03 0.  0.
          2    1    1    2  501    0  0.41213376059E+02  0.67540523441E+02  0.79974344455E+02  0.11249960197E+03  0.00000000000E+00 0. -1.
          1    1    1    2  502    0 -0.11011326447E+03 -0.22467680266E+02  0.75064231327E+03  0.75900830703E+03  0.00000000000E+00 0. -1.
         22    1    3    3    0    0  0.69520963050E+00  0.64959618411E+01  0.90681032130E+02  0.90916062523E+02  0.00000000000E+00 0.  1.
         22    1    3    3    0    0  0.68204678781E+02 -0.51568805016E+02  0.27910047082E+01  0.85551210194E+02  0.00000000000E+00 0.  1.
</event>
<event>
 7    1  0.6253338E-006  0.2125577E+03  0.7818608E-02  0.1296544E+00
          2   -1    0    0  502    0  0.00000000000E+00  0.00000000000E+00  0.62956920682E+03  0.62956920682E+03  0.00000000000E+00 0. -1.
          1   -1    0    0  501    0 -0.00000000000E+00 -0.00000000000E+00 -0.73178836036E+03  0.73178836036E+03  0.00000000000E+00 0. -1.
         25    2    1    2    0    0  0.47242761682E+02 -0.16982420996E+03 -0.60384784556E+03  0.64135031958E+03  0.12500348402E+03 0.  0.
          2    1    1    2  501    0 -0.63225371749E+01 -0.39891725050E+02 -0.85850877276E+02  0.94877275113E+02  0.00000000000E+00 0. -1.
          1    1    1    2  502    0 -0.40920224507E+02  0.20971593501E+03  0.58747956929E+03  0.62512997249E+03  0.00000000000E+00 0. -1.
         22    1    3    3    0    0 -0.14555113754E+02  0.12064342761E+02 -0.10703053872E+03  0.10868733101E+03  0.00000000000E+00 0.  1.
         22    1    3    3    0    0  0.61797875436E+02 -0.18188855272E+03 -0.49681730684E+03  0.53266298857E+03  0.00000000000E+00 0.  1.
</event>
<event>
 7    1  0.6253338E-006  0.1375623E+03  0.7818608E-02  0.1286567E+00
          2   -1    0    0  502    0  0.00000000000E+00  0.00000000000E+00  0.19783294825E+03  0.19783294825E+03  0.00000000000E+00 0. -1.
          1   -1    0    0  501    0 -0.00000000000E+00 -0.00000000000E+00 -0.14349529009E+04  0.14349529009E+04  0.00000000000E+00 0. -1.
         25    2    1    2    0    0 -0.69034518429E+02  0.10495942477E+03  0.43031433973E+02  0.18237070805E+03  0.12500050105E+03 0.  0.
          2    1    1    2  501    0 -0.64617389035E+02 -0.22751339787E+02 -0.12912933403E+04  0.12931092457E+04  0.00000000000E+00 0. -1.
          1    1    1    2  502    0  0.13365190746E+03 -0.82208084987E+02  0.11141953712E+02  0.15730589543E+03  0.00000000000E+00 0. -1.
         22    1    3    3    0    0 -0.39420293190E+02  0.24120480290E+02  0.77012334722E+02  0.89814568885E+02  0.00000000000E+00 0. -1.
         22    1    3    3    0    0 -0.29614225239E+02  0.80838944483E+02 -0.33980900749E+02  0.92556139166E+02  0.00000000000E+00 0. -1.
</event>
<event>
 7    1  0.6253338E-006  0.1118301E+03  0.7818608E-02  0.1257823E+00
          2   -1    0    0  502    0  0.00000000000E+00  0.00000000000E+00  0.65644622289E+03  0.65644622289E+03  0.00000000000E+00 0. -1.
          1   -1    0    0  501    0 -0.00000000000E+00 -0.00000000000E+00 -0.22574717458E+03  0.22574717458E+03  0.00000000000E+00 0. -1.
         25    2    1    2    0    0  0.11704957501E+02 -0.14697156101E+01  0.30476276762E+03  0.32961467457E+03  0.12500529218E+03 0.  0.
          2    1    1    2  501    0 -0.78205426239E+02 -0.87610714557E+02 -0.18681326076E+03  0.22066019214E+03  0.00000000000E+00 0. -1.
          1    1    1    2  502    0  0.66500468738E+02  0.89080430167E+02  0.31274954146E+03  0.33191853076E+03  0.00000000000E+00 0. -1.
         22    1    3    3    0    0 -0.39256658060E+02  0.14262539705E+01  0.28139318194E+02  0.48321223400E+02  0.00000000000E+00 0.  1.
         22    1    3    3    0    0  0.50961615561E+02 -0.28959695805E+01  0.27662344942E+03  0.28129345117E+03  0.00000000000E+00 0.  1.
</event>
<event>
 7    1  0.6253338E-006  0.1969015E+03  0.7818608E-02  0.1194669E+00
          2   -1    0    0  502    0  0.00000000000E+00  0.00000000000E+00  0.13463784111E+04  0.13463784111E+04  0.00000000000E+00 0. -1.
          1   -1    0    0  501    0 -0.00000000000E+00 -0.00000000000E+00 -0.92796506362E+03  0.92796506362E+03  0.00000000000E+00 0. -1.
         25    2    1    2    0    0  0.20894988245E+03 -0.11110710656E+03  0.22306016174E+02  0.26856747957E+03  0.12500436081E+03 0.  0.
          2    1    1    2  501    0 -0.10130959551E+03  0.16797070559E+03 -0.78971959884E+03  0.81371668096E+03  0.00000000000E+00 0. -1.
          1    1    1    2  502    0 -0.10764028694E+03 -0.56863599024E+02  0.11858269301E+04  0.11920593141E+04  0.00000000000E+00 0. -1.
         22    1    3    3    0    0 -0.57273106777E+01  0.16740152115E+02 -0.19612196183E+00  0.17693875897E+02  0.00000000000E+00 0.  1.
         22    1    3    3    0    0  0.21467719313E+03 -0.12784725868E+03  0.22502138135E+02  0.25087360368E+03  0.00000000000E+00 0.  1.
</event>
<event>
 7    1  0.6253338E-006  0.4141514E+02  0.7818608E-02  0.1518549E+00
          2   -1    0    0  502    0  0.00000000000E+00  0.00000000000E+00  0.93432182225E+03  0.93432182225E+03  0.00000000000E+00 0. -1.
          1   -1    0    0  501    0 -0.00000000000E+00 -0.00000000000E+00 -0.11907103823E+03  0.11907103823E+03  0.00000000000E+00 0. -1.
         25    2    1    2    0    0 -0.95933194492E+00  0.12230630388E+02 -0.34177570774E+02  0.13015944738E+03  0.12499146675E+03 0.  0.
          2    1    1    2  501    0  0.42284052026E+02 -0.14965859348E+02 -0.22597157633E+02  0.50224989147E+02  0.00000000000E+00 0. -1.
          1    1    1    2  502    0 -0.41324720081E+02  0.27352289594E+01  0.87202551243E+03  0.87300842396E+03  0.00000000000E+00 0. -1.
         22    1    3    3    0    0  0.34804376997E+02  0.12972177830E+02  0.35788393528E+02  0.51579367649E+02  0.00000000000E+00 0. -1.
         22    1    3    3    0    0 -0.35763708942E+02 -0.74154744119E+00 -0.69965964302E+02  0.78580079731E+02  0.00000000000E+00 0. -1.
</event>
<event>
 7    1  0.6253338E-006  0.4138096E+02  0.7818608E-02  0.1580191E+00
          2   -1    0    0  502    0  0.00000000000E+00  0.00000000000E+00  0.29134690179E+03  0.29134690179E+03  0.00000000000E+00 0. -1.
          1   -1    0    0  501    0 -0.00000000000E+00 -0.00000000000E+00 -0.15596284954E+03  0.15596284954E+03  0.00000000000E+00 0. -1.
         25    2    1    2    0    0 -0.14924243069E+02 -0.36815189578E+02  0.52324648121E+02  0.14120997860E+03  0.12499719214E+03 0.  0.
          2    1    1    2  501    0 -0.19963762827E+02  0.13781838040E+02 -0.10791249415E+03  0.11060559335E+03  0.00000000000E+00 0. -1.
          1    1    1    2  502    0  0.34888005896E+02  0.23033351538E+02  0.19097189828E+03  0.19549417938E+03  0.00000000000E+00 0. -1.
         22    1    3    3    0    0 -0.60406214701E+02 -0.68154172479E+01 -0.63728026491E+01  0.61122608750E+02  0.00000000000E+00 0.  1.
         22    1    3    3    0    0  0.45481971632E+02 -0.29999772330E+02  0.58697450771E+02  0.80087369855E+02  0.00000000000E+00 0.  1.
</event>
<event>
 7    1  0.6253338E-006  0.8396564E+02  0.7818608E-02  0.1327888E+00
          2   -1    0    0  502    0  0.00000000000E+00  0.00000000000E+00  0.91984602802E+03  0.91984602802E+03  0.00000000000E+00 0. -1.
          1   -1    0    0  501    0 -0.00000000000E+00 -0.00000000000E+00 -0.60418723225E+02  0.60418723225E+02  0.00000000000E+00 0. -1.
         25    2    1    2    0    0  0.12838822406E+03 -0.25079930545E+02  0.34779298180E+03  0.39204259068E+03  0.12499958290E+03 0.  0.
          2    1    1    2  501    0 -0.57795196953E+02  0.55850023426E+02  0.10323760535E+02  0.81031413285E+02  0.00000000000E+00 0. -1.
          1    1    1    2  502    0 -0.70593027103E+02 -0.30770092881E+02  0.50131056247E+03  0.50719074728E+03  0.00000000000E+00 0. -1.
         22    1    3    3    0    0  0.75517010696E+02  0.38776777982E+02  0.10233439580E+03  0.13296159588E+03  0.00000000000E+00 0. -1.
         22    1    3    3    0    0  0.52871213360E+02 -0.63856708526E+02  0.24545858599E+03  0.25908099480E+03  0.00000000000E+00 0. -1.
</event>
<event>
 7    1  0.6253338E-006  0.1183748E+03  0.7818608E-02  0.1417866E+00
          2   -1    0    0  502    0  0.00000000000E+00  0.00000000000E+00  0.92072382325E+03  0.92072382325E+03  0.00000000000E+00 0. -1.
          1   -1    0    0  501    0 -0.00000000000E+00 -0.00000000000E+00 -0.10146776458E+03  0.10146776458E+03  0.00000000000E+00 0. -1.
         25    2    1    2    0    0 -0.12124043151E+03  0.40102275369E+02  0.14365002670E+03  0.22927953720E+03  0.12500536502E+03 0.  0.
          2    1    1    2  501    0  0.11507605962E+03 -0.14846030106E+02 -0.77423639345E+00  0.11603233838E+03  0.00000000000E+00 0. -1.
          1    1    1    2  502    0  0.61643718901E+01 -0.25256245263E+02  0.67638026837E+03  0.67687971224E+03  0.00000000000E+00 0. -1.
         22    1    3    3    0    0  0.25137324735E+02  0.55584052715E+01  0.85932808175E+01  0.27140844482E+02  0.00000000000E+00 0.  1.
         22    1    3    3    0    0 -0.14637775625E+03  0.34543870098E+02  0.13505674588E+03  0.20213869272E+03  0.00000000000E+00 0.  1.
</event>
<event>
 7    1  0.6253338E-006  0.4737134E+02  0.7818608E-02  0.1487500E+00
          2   -1    0    0  502    0  0.00000000000E+00  0.00000000000E+00  0.60863743740E+03  0.60863743740E+03  0.00000000000E+00 0. -1.
          1   -1    0    0  501    0 -0.00000000000E+00 -0.00000000000E+00 -0.31364898478E+03  0.31364898478E+03  0.00000000000E+00 0. -1.
         25    2    1    2    0    0  0.83148103011E+01 -0.53496742511E+02 -0.14456725558E+03  0.19863290178E+03  0.12499720299E+03 0.  0.
          2    1    1    2  501    0  0.28017983727E+02  0.39438036083E+02 -0.13725376142E+03  0.14552993206E+03  0.00000000000E+00 0. -1.
          1    1    1    2  502    0 -0.36332794028E+02  0.14058706428E+02  0.57680946961E+03  0.57812358833E+03  0.00000000000E+00 0. -1.
         22    1    3    3    0    0 -0.51703727009E+02 -0.90043625288E+00 -0.83206788536E+02  0.97966605691E+02  0.00000000000E+00 0. -1.
         22    1    3    3    0    0  0.60018537310E+02 -0.52596306258E+02 -0.61360467043E+02  0.10066629609E+03  0.00000000000E+00 0. -1.
</event>
<event>
 7    1  0.6253338E-006  0.1475580E+03  0.7818608E-02  0.1300988E+00
          2   -1    0    0  502    0  0.00000000000E+00  0.00000000000E+00  0.15527763145E+04  0.15527763145E+04  0.00000000000E+00 0. -1.
          1   -1    0    0  501    0 -0.00000000000E+00 -0.00000000000E+00 -0.32138276497E+03  0.32138276497E+03  0.00000000000E+00 0. -1.
         25    2    1    2    0    0 -0.25446215204E+02  0.19039788933E+03 -0.33374769139E+02  0.23159830385E+03  0.12500013200E+03 0.  0.
          2    1    1    2  501    0  0.13941276096E+02 -0.13575380397E+03 -0.16363153652E+03  0.21306978719E+03  0.00000000000E+00 0. -1.
          1    1    1    2  502    0  0.11504939108E+02 -0.54644085365E+02  0.14283998552E+04  0.14294909884E+04  0.00000000000E+00 0. -1.
         22    1    3    3    0    0  0.18270802194E+02 -0.89404177019E+01  0.10452501682E+02  0.22869369754E+02  0.00000000000E+00 0.  1.
         22    1    3    3    0    0 -0.43717017399E+02  0.19933830703E+03 -0.43827270821E+02  0.20872893410E+03  0.00000000000E+00 0.  1.
</event>
<event>
 7    1  0.6253338E-006  0.8880646E+02  0.7818608E-02  0.1389079E+00
          2   -1    0    0  502    0  0.00000000000E+00  0.00000000000E+00  0.12609239126E+04  0.12609239126E+04  0.00000000000E+00 0. -1.
          1   -1    0    0  501    0 -0.00000000000E+00 -0.00000000000E+00 -0.19601456056E+03  0.19601456056E+03  0.00000000000E+00 0. -1.
         25    2    1    2    0    0 -0.31840197802E+02 -0.40323760504E+02  0.14299340671E+03  0.19675946228E+03  0.12500947074E+03 0.  0.
          2    1    1    2  501    0 -0.40462870886E+02 -0.15902941064E+02 -0.16437815973E+03  0.17003037038E+03  0.00000000000E+00 0. -1.
          1    1    1    2  502    0  0.72303068688E+02  0.56226701569E+02  0.10862941050E+04  0.10901486405E+04  0.00000000000E+00 0. -1.
         22    1    3    3    0    0 -0.94624330822E+01 -0.74488502120E+02  0.13596105068E+03  0.15531735863E+03  0.00000000000E+00 0.  1.
         22    1    3    3    0    0 -0.22377764719E+02  0.34164741616E+02  0.70323560287E+01  0.41442103649E+02  0.00000000000E+00 0.  1.
</event>
<event>
 7    1  0.6253338E-006  0.9316736E+02  0.7818608E-02  0.1339654E+00
          2   -1    0    0  502    0  0.00000000000E+00  0.00000000000E+00  0.17969335842E+04  0.17969335842E+04  0.00000000000E+00 0. -1.
          1   -1    0    0  501    0 -0.00000000000E+00 -0.00000000000E+00 -0.62804139282E+02  0.62804139282E+02  0.00000000000E+00 0. -1.
         25    2    1    2    0    0  0.58673504072E+02  0.39226573954E+02  0.11428329189E+04  0.11518129585E+04  0.12499882675E+03 0.  0.
          2    1    1    2  501    0  0.62607492962E+02  0.98187842687E+00 -0.32936389155E+02  0.70749332088E+02  0.00000000000E+00 0. -1.
          1    1    1    2  502    0 -0.12128099703E+03 -0.40208452381E+02  0.62423291516E+03  0.63717543287E+03  0.00000000000E+00 0. -1.
         22    1    3    3    0    0  0.12785789288E+02  0.43004844625E+02  0.12276270511E+03  0.13070415003E+03  0.00000000000E+00 0.  1.
         22    1    3    3    0    0  0.45887714783E+02 -0.37782706711E+01  0.10200702138E+04  0.10211088085E+04  0.00000000000E+00 0.  1.
</event>
<event>
 7    1  0.6253338E-006  0.2277474E+03  0.7818608E-02  0.1335652E+00
          2   -1    0    0  502    0  0.00000000000E+00  0.00000000000E+00  0.48315593163E+03  0.48315593163E+03  0.00000000000E+00 0. -1.
          1   -1    0    0  501    0 -0.00000000000E+00 -0.00000000000E+00 -0.88993485851E+03  0.88993485851E+03  0.00000000000E+00 0. -1.
         25    2    1    2    0    0  0.18384532295E+03 -0.11605303160E+03 -0.10205993741E+03  0.27075460007E+03  0.12499765487E+03 0.  0.
          2    1    1    2  501    0  0.22237278029E+02  0.14453653793E+02 -0.67014964086E+03  0.67067424714E+03  0.00000000000E+00 0. -1.
          1    1    1    2  502    0 -0.20608260097E+03  0.10159937781E+03  0.36543065139E+03  0.43166194293E+03  0.00000000000E+00 0. -1.
         22    1    3    3    0    0 -0.17892484399E+02 -0.81668718904E+00 -0.28857379034E+01  0.18142090816E+02  0.00000000000E+00 0. -1.
         22    1    3    3    0    0  0.20173780734E+03 -0.11523634441E+03 -0.99174199507E+02  0.25261250926E+03  0.00000000000E+00 0. -1.
</event>
<event>
 7    1  0.6253338E-006  0.9552009E+02  0.7818608E-02  0.1388464E+00
          2   -1    0    0  502    0  0.00000000000E+00  0.00000000000E+00  0.21659003220E+03  0.21659003220E+03  0.00000000000E+00 0. -1.
          1   -1    0    0  501    0 -0.00000000000E+00 -0.00000000000E+00 -0.50975861615E+03  0.50975861615E+03  0.00000000000E+00 0. -1.
         25    2    1    2    0    0  0.39221336048E+02  0.47347306183E+02 -0.19268685034E+03  0.23776800972E+03  0.12500129420E+03 0.  0.
          2    1    1    2  501    0  0.39173399633E+02  0.10745870154E+02 -0.28071055674E+03  0.28363435199E+03  0.00000000000E+00 0. -1.
          1    1    1    2  502    0 -0.78394735680E+02 -0.58093176336E+02  0.18022882312E+03  0.20494628663E+03  0.00000000000E+00 0. -1.
         22    1    3    3    0    0 -0.10547397911E+02  0.61244228478E+02 -0.17061152295E+03  0.18157751757E+03  0.00000000000E+00 0.  1.
         22    1    3    3    0    0  0.49768733958E+02 -0.13896922295E+02 -0.22075327386E+02  0.56190492152E+02  0.00000000000E+00 0.  1.
</event>
<event>
 7    1  0.6253338E-006  0.8156245E+02  0.7818608E-02  0.1350334E+00
          2   -1    0    0  502    0  0.00000000000E+00  0.00000000000E+00  0.35421131163E+03  0.35421131163E+03  0.00000000000E+00 0. -1.
          1   -1    0    0  501    0 -0.00000000000E+00 -0.00000000000E+00 -0.66320025931E+03  0.66320025931E+03  0.00000000000E+00 0. -1.
         25    2    1    2    0    0 -0.90569319052E+02  0.30497018802E+02 -0.28190576760E+03  0.32284577705E+03  0.12500265694E+03 0.  0.
          2    1    1    2  501    0  0.40526533683E+02 -0.72368907944E+02 -0.35277884630E+03  0.36239836253E+03  0.00000000000E+00 0. -1.
          1    1    1    2  502    0  0.50042785369E+02  0.41871889142E+02  0.32569566622E+03  0.33216743137E+03  0.00000000000E+00 0. -1.
         22    1    3    3    0    0 -0.44427689683E+02  0.78426336769E+02 -0.14716233188E+03  0.17257248284E+03  0.00000000000E+00 0.  1.
         22    1    3    3    0    0 -0.46141629369E+02 -0.47929317967E+02 -0.13474343572E+03  0.15027329421E+03  0.00000000000E+00 0.  1.
</event>
<event>
 7    1  0.6253338E-006  0.1955702E+03  0.7818608E-02  0.1229879E+00
          2   -1    0    0  502    0  0.00000000000E+00  0.00000000000E+00  0.23466411671E+04  0.23466411671E+04  0.00000000000E+00 0. -1.
          1   -1    0    0  501    0 -0.00000000000E+00 -0.00000000000E+00 -0.10039562675E+04  0.10039562675E+04  0.00000000000E+00 0. -1.
         25    2    1    2    0    0 -0.19210852137E+03 -0.34823132388E+02 -0.41280573514E+03  0.47344027708E+03  0.12497514340E+03 0.  0.
          2    1    1    2  501    0  0.27053656323E+01  0.84230898075E+02 -0.55350282210E+03  0.55988171721E+03  0.00000000000E+00 0. -1.
          1    1    1    2  502    0  0.18940315573E+03 -0.49407765688E+02  0.23089934568E+04  0.23172754403E+04  0.00000000000E+00 0. -1.
         22    1    3    3    0    0 -0.16504677813E+03  0.46388538344E+01 -0.22166137735E+03  0.27639776436E+03  0.00000000000E+00 0.  1.
         22    1    3    3    0    0 -0.27061743236E+02 -0.39461986222E+02 -0.19114435779E+03  0.19704251272E+03  0.00000000000E+00 0.  1.
</event>
<event>
 7    1  0.6253338E-006  0.1766070E+03  0.7818608E-02  0.1216587E+00
          2   -1    0    0  502    0  0.00000000000E+00  0.00000000000E+00  0.51084435032E+03  0.51084435032E+03  0.00000000000E+00 0. -1.
          1   -1    0    0  501    0 -0.00000000000E+00 -0.00000000000E+00 -0.10552297244E+04  0.10552297244E+04  0.00000000000E+00 0. -1.
         25    2    1    2    0    0 -0.23300176994E+03  0.37424724463E+02  0.34862189285E+03  0.43915014509E+03  0.12500076387E+03 0.  0.
          2    1    1    2  501    0  0.10633181775E+03 -0.13757856498E+02 -0.97060026557E+03  0.97650428039E+03  0.00000000000E+00 0. -1.
          1    1    1    2  502    0  0.12666995219E+03 -0.23666867965E+02  0.77592998674E+02  0.15041964922E+03  0.00000000000E+00 0. -1.
         22    1    3    3    0    0 -0.15435660771E+03 -0.11809507261E+02  0.13181732151E+03  0.20332543632E+03  0.00000000000E+00 0.  1.
         22    1    3    3    0    0 -0.78645162233E+02  0.49234231724E+02  0.21680457133E+03  0.23582470877E+03  0.00000000000E+00 0.  1.
</event>
<event>
 7    1  0.6253338E-006  0.9381581E+02  0.7818608E-02  0.1341837E+00
          2   -1    0    0  502    0  0.00000000000E+00  0.00000000000E+00  0.88912779061E+03  0.88912779061E+03  0.00000000000E+00 0. -1.
          1   -1    0    0  501    0 -0.00000000000E+00 -0.00000000000E+00 -0.27851329193E+03  0.27851329193E+03  0.00000000000E+00 0. -1.
         25    2    1    2    0    0  0.34768557091E+02 -0.12111490103E+03  0.52010251958E+03  0.54955154240E+03  0.12499037987E+03 0.  0.
          2    1    1    2  501    0 -0.48576395591E+02  0.36927667226E+02 -0.25500101048E+03  0.26219998887E+03  0.00000000000E+00 0. -1.
          1    1    1    2  502    0  0.13807838500E+02  0.84187233807E+02  0.34551298958E+03  0.35588955127E+03  0.00000000000E+00 0. -1.
         22    1    3    3    0    0  0.54242044505E+02 -0.88357418595E+02  0.49038605238E+03  0.50122620959E+03  0.00000000000E+00 0.  1.
         22    1    3    3    0    0 -0.19473487414E+02 -0.32757482437E+02  0.29716467205E+02  0.48325332806E+02  0.00000000000E+00 0.  1.
</event>
<event>
 7    1  0.7729763E-006  0.5311181E+02  0.7818608E-02  0.1472854E+00
          2   -1    0    0  502    0  0.00000000000E+00  0.00000000000E+00  0.13196476746E+04  0.13196476746E+04  0.00000000000E+00 0. -1.
          1   -1    0    0  501    0 -0.00000000000E+00 -0.00000000000E+00 -0.13162979313E+04  0.13162979313E+04  0.00000000000E+00 0. -1.
         25    2    1    2    0    0 -0.37533346874E+02  0.34969050585E+02 -0.53398081321E+03  0.55081070446E+03  0.12500134655E+03 0.  0.
          2    1    1    2  501    0  0.43522344173E+01 -0.54560976474E+02 -0.77265073929E+03  0.77458699126E+03  0.00000000000E+00 0. -1.
          1    1    1    2  502    0  0.33181112457E+02  0.19591925889E+02  0.13099812958E+04  0.13105479102E+04  0.00000000000E+00 0. -1.
         22    1    3    3    0    0 -0.23771346007E+02  0.81176128200E+02 -0.28868493570E+03  0.30082159627E+03  0.00000000000E+00 0.  1.
         22    1    3    3    0    0 -0.13762000868E+02 -0.46207077615E+02 -0.24529587751E+03  0.24998910819E+03  0.00000000000E+00 0.  1.
</event>
<event>
 7    1  0.6253338E-006  0.5957529E+02  0.7818608E-02  0.1441882E+00
          2   -1    0    0  502    0  0.00000000000E+00  0.00000000000E+00  0.27080347601E+04  0.27080347601E+04  0.00000000000E+00 0. -1.
          1   -1    0    0  501    0 -0.00000000000E+00 -0.00000000000E+00 -0.32618155586E+03  0.32618155586E+03  0.00000000000E+00 0. -1.
         25    2    1    2    0    0  0.70055122348E+02 -0.73229791285E+02  0.44139577292E+02  0.16689267747E+03  0.12503815822E+03 0.  0.
          2    1    1    2  501    0 -0.39602586057E+02  0.42790706723E+02 -0.26141518512E+03  0.26783821314E+03  0.00000000000E+00 0. -1.
          1    1    1    2  502    0 -0.30452536291E+02  0.30439084562E+02  0.25991288121E+04  0.25994854254E+04  0.00000000000E+00 0. -1.
         22    1    3    3    0    0  0.66010684616E+01  0.10292240159E+02 -0.33975833662E+02  0.36109023600E+02  0.00000000000E+00 0. -1.
         22    1    3    3    0    0  0.63454053887E+02 -0.83522031443E+02  0.78115410954E+02  0.13078365387E+03  0.00000000000E+00 0. -1.
</event>
<event>
 7    1  0.6253338E-006  0.1086922E+03  0.7818608E-02  0.1423149E+00
          2   -1    0    0  502    0  0.00000000000E+00  0.00000000000E+00  0.83174099058E+03  0.83174099058E+03  0.00000000000E+00 0. -1.
          1   -1    0    0  501    0 -0.00000000000E+00 -0.00000000000E+00 -0.10199019756E+03  0.10199019756E+03  0.00000000000E+00 0. -1.
         25    2    1    2    0    0  0.10539060110E+03 -0.64766520291E+01  0.82271860094E+02  0.18314177635E+03  0.12499250160E+03 0.  0.
          2    1    1    2  501    0 -0.14774695470E+01 -0.27146959736E+02 -0.43355647494E+02  0.51174725293E+02  0.00000000000E+00 0. -1.
          1    1    1    2  502    0 -0.10391313156E+03  0.33623611765E+02  0.69083458043E+03  0.69941468650E+03  0.00000000000E+00 0. -1.
         22    1    3    3    0    0  0.42062559714E+02 -0.17899186097E+02  0.10530098042E+03  0.11479519272E+03  0.00000000000E+00 0.  1.
         22    1    3    3    0    0  0.63328041390E+02  0.11422534068E+02 -0.23029120328E+02  0.68346583631E+02  0.00000000000E+00 0.  1.
</event>
<event>
 7    1  0.6253338E-006  0.4406099E+02  0.7818608E-02  0.1537544E+00
          2   -1    0    0  502    0  0.00000000000E+00  0.00000000000E+00  0.19408918485E+04  0.19408918485E+04  0.00000000000E+00 0. -1.
          1   -1    0    0  501    0 -0.00000000000E+00 -0.00000000000E+00 -0.11756581308E+03  0.11756581308E+03  0.00000000000E+00 0. -1.
         25    2    1    2    0    0 -0.60292788046E+01  0.20237149445E+02  0.25175757765E+03  0.28186626111E+03  0.12498326620E+03 0.  0.
          2    1    1    2  501    0 -0.14180296435E+02 -0.42229903449E+02 -0.97531975476E+02  0.10722374640E+03  0.00000000000E+00 0. -1.
          1    1    1    2  502    0  0.20209575240E+02  0.21992754004E+02  0.16691004332E+04  0.16693676540E+04  0.00000000000E+00 0. -1.
         22    1    3    3    0    0 -0.23631532308E+02  0.66797488987E+02  0.10312728774E+03  0.12512230549E+03  0.00000000000E+00 0. -1.
         22    1    3    3    0    0  0.17602253504E+02 -0.46560339542E+02  0.14863028991E+03  0.15674395562E+03  0.00000000000E+00 0. -1.
</event>
<event>
 7    1  0.6253338E-006  0.6370952E+02  0.7818608E-02  0.1446321E+00
          2   -1    0    0  502    0  0.00000000000E+00  0.00000000000E+00  0.50480322444E+02  0.50480322444E+02  0.00000000000E+00 0. -1.
          1   -1    0    0  501    0 -0.00000000000E+00 -0.00000000000E+00 -0.61611240404E+03  0.61611240404E+03  0.00000000000E+00 0. -1.
         25    2    1    2    0    0  0.89615695133E+02  0.24843402914E+02 -0.25761982614E+03  0.30106552239E+03  0.12499722584E+03 0.  0.
          2    1    1    2  501    0 -0.51275582384E+02 -0.31747787337E+02 -0.31931782811E+03  0.32496304821E+03  0.00000000000E+00 0. -1.
          1    1    1    2  502    0 -0.38340112749E+02  0.69043844229E+01  0.11305572659E+02  0.40564155889E+02  0.00000000000E+00 0. -1.
         22    1    3    3    0    0 -0.76781950649E+01 -0.27149712009E+02 -0.12699355293E+03  0.13009006122E+03  0.00000000000E+00 0.  1.
         22    1    3    3    0    0  0.97293890198E+02  0.51993114923E+02 -0.13062627321E+03  0.17097546117E+03  0.00000000000E+00 0.  1.
</event>
<event>
 7    1  0.6253338E-006  0.1436806E+03  0.7818608E-02  0.1268530E+00
          2   -1    0    0  502    0  0.00000000000E+00  0.00000000000E+00  0.26907244717E+04  0.26907244717E+04  0.00000000000E+00 0. -1.
          1   -1    0    0  501    0 -0.00000000000E+00 -0.00000000000E+00 -0.11434376672E+04  0.11434376672E+04  0.00000000000E+00 0. -1.
         25    2    1    2    0    0 -0.40959121474E+02 -0.80156967947E+02  0.42373344967E+03  0.45086300927E+03  0.12499851044E+03 0.  0.
          2    1    1    2  501    0 -0.74072276022E+02 -0.24190675304E+02 -0.11258486084E+04  0.11285419708E+04  0.00000000000E+00 0. -1.
          1    1    1    2  502    0  0.11503139750E+03  0.10434764325E+03  0.22494019632E+04  0.22547571588E+04  0.00000000000E+00 0. -1.
         22    1    3    3    0    0  0.84404425377E+01 -0.65485489549E+02  0.37210413267E+03  0.37791675798E+03  0.00000000000E+00 0. -1.
         22    1    3    3    0    0 -0.49399564012E+02 -0.14671478398E+02  0.51629317002E+02  0.72946251288E+02  0.00000000000E+00 0. -1.
</event>
<event>
 7    1  0.6253338E-006  0.2760202E+02  0.7818608E-02  0.1677804E+00
          2   -1    0    0  502    0  0.00000000000E+00  0.00000000000E+00  0.10074658928E+03  0.10074658928E+03  0.00000000000E+00 0. -1.
          1   -1    0    0  501    0 -0.00000000000E+00 -0.00000000000E+00 -0.81857465867E+03  0.81857465867E+03  0.00000000000E+00 0. -1.
         25    2    1    2    0    0 -0.27519721107E+02 -0.17088550812E+00 -0.14707058470E+02  0.12883730093E+03  0.12500155315E+03 0.  0.
          2    1    1    2  501    0  0.20015712805E+02 -0.19057005749E+02 -0.74409331271E+03  0.74460637672E+03  0.00000000000E+00 0. -1.
          1    1    1    2  502    0  0.75040083018E+01  0.19227891257E+02  0.40972301794E+02  0.45877570305E+02  0.00000000000E+00 0. -1.
         22    1    3    3    0    0 -0.19331020042E+02  0.12291897406E+02 -0.68911303402E+02  0.72619190399E+02  0.00000000000E+00 0.  1.
         22    1    3    3    0    0 -0.81887010642E+01 -0.12462782914E+02  0.54204244932E+02  0.56218110531E+02  0.00000000000E+00 0.  1.
</event>
<event>
 7    1  0.6253338E-006  0.7424187E+02  0.7818608E-02  0.1505336E+00
          2   -1    0    0  502    0  0.00000000000E+00  0.00000000000E+00  0.52998108375E+03  0.52998108375E+03  0.00000000000E+00 0. -1.
          1   -1    0    0  501    0 -0.00000000000E+00 -0.00000000000E+00 -0.71176921508E+03  0.71176921508E+03  0.00000000000E+00 0. -1.
         25    2    1    2    0    0 -0.79372132178E+02 -0.20742412268E+02 -0.25988975168E+03  0.29982961867E+03  0.12499973668E+03 0.  0.
          2    1    1    2  501    0  0.14967827203E+02 -0.16092381163E+02 -0.42892837784E+03  0.42949104054E+03  0.00000000000E+00 0. -1.
          1    1    1    2  502    0  0.64404304975E+02  0.36834793430E+02  0.50702999819E+03  0.51242963963E+03  0.00000000000E+00 0. -1.
         22    1    3    3    0    0 -0.69778685338E+02  0.45030683459E+02 -0.14451626682E+03  0.16667866917E+03  0.00000000000E+00 0. -1.
         22    1    3    3    0    0 -0.95934468406E+01 -0.65773095727E+02 -0.11537348486E+03  0.13315094950E+03  0.00000000000E+00 0. -1.
</event>
<event>
 7    1  0.6253338E-006  0.4315798E+02  0.7818608E-02  0.1489594E+00
          2   -1    0    0  502    0  0.00000000000E+00  0.00000000000E+00  0.52403457522E+03  0.52403457522E+03  0.00000000000E+00 0. -1.
          1   -1    0    0  501    0 -0.00000000000E+00 -0.00000000000E+00 -0.16462996969E+03  0.16462996969E+03  0.00000000000E+00 0. -1.
         25    2    1    2    0    0  0.61274354543E+02 -0.28521681464E+02  0.21824146416E+03  0.26042841721E+03  0.12500236387E+03 0.  0.
          2    1    1    2  501    0 -0.20205349730E+02  0.37965493827E+02 -0.13870170045E+03  0.14521637850E+03  0.00000000000E+00 0. -1.
          1    1    1    2  502    0 -0.41069004813E+02 -0.94438123627E+01  0.27986484181E+03  0.28301974919E+03  0.00000000000E+00 0. -1.
         22    1    3    3    0    0  0.31507001477E+02 -0.42394066623E+02  0.22123325520E+03  0.22745131619E+03  0.00000000000E+00 0.  1.
         22    1    3    3    0    0  0.29767353066E+02  0.13872385159E+02 -0.29917910400E+01  0.32977101028E+02  0.00000000000E+00 0.  1.
</event>
<event>
 7    1  0.6253338E-006  0.1060121E+03  0.7818608E-02  0.1366536E+00
          2   -1    0    0  502    0  0.00000000000E+00  0.00000000000E+00  0.35532659094E+03  0.35532659094E+03  0.00000000000E+00 0. -1.
          1   -1    0    0  501    0 -0.00000000000E+00 -0.00000000000E+00 -0.16566832859E+03  0.16566832859E+03  0.00000000000E+00 0. -1.
         25    2    1    2    0    0 -0.33708167804E+02  0.12953009460E+03  0.17365292276E+03  0.25237659437E+03  0.12499728725E+03 0.  0.
          2    1    1    2  501    0 -0.62812081752E+01 -0.43344129663E+02 -0.10558545497E+03  0.11430859746E+03  0.00000000000E+00 0. -1.
          1    1    1    2  502    0  0.39989375979E+02 -0.86185964932E+02  0.12159079455E+03  0.15430972770E+03  0.00000000000E+00 0. -1.
         22    1    3    3    0    0 -0.21473130936E+02 -0.10306916697E+02 -0.58291856937E+01  0.24521567850E+02  0.00000000000E+00 0. -1.
         22    1    3    3    0    0 -0.12235036868E+02  0.13983701129E+03  0.17948210846E+03  0.22785502652E+03  0.00000000000E+00 0. -1.
</event>
<event>
 7    1  0.6253338E-006  0.1244560E+03  0.7818608E-02  0.1247675E+00
          2   -1    0    0  502    0  0.00000000000E+00  0.00000000000E+00  0.61432811269E+03  0.61432811269E+03  0.00000000000E+00 0. -1.
          1   -1    0    0  501    0 -0.00000000000E+00 -0.00000000000E+00 -0.22737720898E+04  0.22737720898E+04  0.00000000000E+00 0. -1.
         25    2    1    2    0    0 -0.71330980956E+02  0.18585263094E+03  0.19368478859E+02  0.23587017950E+03  0.12502117553E+03 0.  0.
          2    1    1    2  501    0 -0.19058048575E+02 -0.12230253261E+03 -0.21574532904E+04  0.21610011150E+04  0.00000000000E+00 0. -1.
          1    1    1    2  502    0  0.90389029531E+02 -0.63550098329E+02  0.47864083445E+03  0.49122890800E+03  0.00000000000E+00 0. -1.
         22    1    3    3    0    0 -0.78736574254E+02  0.10056331589E+03  0.59995024390E+02  0.14110928949E+03  0.00000000000E+00 0. -1.
         22    1    3    3    0    0  0.74055932983E+01  0.85289315047E+02 -0.40626545530E+02  0.94760890008E+02  0.00000000000E+00 0. -1.
</event>
<event>
 7    1  0.6253338E-006  0.1283920E+03  0.7818608E-02  0.1363295E+00
          2   -1    0    0  502    0  0.00000000000E+00  0.00000000000E+00  0.91684198260E+03  0.91684198260E+03  0.00000000000E+00 0. -1.
          1   -1    0    0  501    0 -0.00000000000E+00 -0.00000000000E+00 -0.29805402685E+03  0.29805402685E+03  0.00000000000E+00 0. -1.
         25    2    1    2    0    0 -0.10497877383E+03  0.12871469554E+02  0.27352458125E+03  0.31878874668E+03  0.12499740308E+03 0.  0.
          2    1    1    2  501    0 -0.25327711241E+02  0.27182716285E+02 -0.26663299667E+03  0.26920911562E+03  0.00000000000E+00 0. -1.
          1    1    1    2  502    0  0.13030648507E+03 -0.40054185839E+02  0.61189637117E+03  0.62689814715E+03  0.00000000000E+00 0. -1.
         22    1    3    3    0    0 -0.43900225645E+02 -0.29059526325E+02  0.22296065749E+03  0.22909199172E+03  0.00000000000E+00 0. -1.
         22    1    3    3    0    0 -0.61078548185E+02  0.41930995879E+02  0.50563923762E+02  0.89696754958E+02  0.00000000000E+00 0. -1.
</event>
<event>
 7    1  0.6253338E-006  0.9320333E+02  0.7818608E-02  0.1302110E+00
          2   -1    0    0  502    0  0.00000000000E+00  0.00000000000E+00  0.49372848945E+03  0.49372848945E+03  0.00000000000E+00 0. -1.
          1   -1    0    0  501    0 -0.00000000000E+00 -0.00000000000E+00 -0.96606258839E+03  0.96606258839E+03  0.00000000000E+00 0. -1.
         25    2    1    2    0    0 -0.13696161173E+03 -0.74197328670E+02 -0.11819241635E+03  0.23207394502E+03  0.12500056801E+03 0.  0.
          2    1    1    2  501    0  0.44982653531E+02  0.75052325989E+02 -0.78362457580E+03  0.78849462050E+03  0.00000000000E+00 0. -1.
          1    1    1    2  502    0  0.91978958199E+02 -0.85499731885E+00  0.42948289322E+03  0.43922251233E+03  0.00000000000E+00 0. -1.
         22    1    3    3    0    0 -0.23758329895E+02 -0.43992908630E+02 -0.10226464233E+03  0.11383273395E+03  0.00000000000E+00 0. -1.
         22    1    3    3    0    0 -0.11320328184E+03 -0.30204420040E+02 -0.15927774025E+02  0.11824121106E+03  0.00000000000E+00 0. -1.
</event>
<event>
 7    1  0.6253338E-006  0.1566157E+03  0.7818608E-02  0.1271559E+00
          2   -1    0    0  502    0  0.00000000000E+00  0.00000000000E+00  0.13432588902E+04  0.13432588902E+04  0.00000000000E+00 0. -1.
          1   -1    0    0  501    0 -0.00000000000E+00 -0.00000000000E+00 -0.17453350827E+04  0.17453350827E+04  0.00000000000E+00 0. -1.
         25    2    1    2    0    0 -0.17016959584E+03 -0.91021586085E+02  0.33890371042E+03  0.40954038556E+03  0.12499992792E+03 0.  0.
          2    1    1    2  501    0  0.10525834039E+03  0.11564273979E+03 -0.17051912076E+04  0.17123462313E+04  0.00000000000E+00 0. -1.
          1    1    1    2  502    0  0.64911255451E+02 -0.24621153700E+02  0.96421130461E+03  0.96670735605E+03  0.00000000000E+00 0. -1.
         22    1    3    3    0    0 -0.13479310790E+03 -0.49607031298E+02  0.32188413300E+03  0.35247614751E+03  0.00000000000E+00 0. -1.
         22    1    3    3    0    0 -0.35376487946E+02 -0.41414554787E+02  0.17019577424E+02  0.57064238042E+02  0.00000000000E+00 0. -1.
</event>
<event>
 7    1  0.6253338E-006  0.3816901E+02  0.7818608E-02  0.1612936E+00
          2   -1    0    0  502    0  0.00000000000E+00  0.00000000000E+00  0.65377254302E+03  0.65377254302E+03  0.00000000000E+00 0. -1.
          1   -1    0    0  501    0 -0.00000000000E+00 -0.00000000000E+00 -0.14586200290E+04  0.14586200290E+04  0.00000000000E+00 0. -1.
         25    2    1    2    0    0 -0.55388495006E+01 -0.16191361674E+02 -0.24810258154E+03  0.27833759125E+03  0.12499633870E+03 0.  0.
          2    1    1    2  501    0 -0.29553257399E+00 -0.21575970066E+02 -0.11947307589E+04  0.11949256027E+04  0.00000000000E+00 0. -1.
          1    1    1    2  502    0  0.58343820746E+01  0.37767331740E+02  0.63798585446E+03  0.63912937802E+03  0.00000000000E+00 0. -1.
         22    1    3    3    0    0  0.40674653721E+02  0.29546208294E+02 -0.16692282574E+03  0.17432910151E+03  0.00000000000E+00 0.  1.
         22    1    3    3    0    0 -0.46213503222E+02 -0.45737569968E+02 -0.81179755801E+02  0.10400848974E+03  0.00000000000E+00 0.  1.
</event>
<event>
 7    1  0.6253338E-006  0.1056351E+03  0.7818608E-02  0.1282350E+00
          2   -1    0    0  502    0  0.00000000000E+00  0.00000000000E+00  0.15344680126E+04  0.15344680126E+04  0.00000000000E+00 0. -1.
          1   -1    0    0  501    0 -0.00000000000E+00 -0.00000000000E+00 -0.47276935741E+03  0.47276935741E+03  0.00000000000E+00 0. -1.
         25    2    1    2    0    0  0.30972133256E+02 -0.17745861606E+02  0.42837757191E+03  0.44766804822E+03  0.12500059458E+03 0.  0.
          2    1    1    2  501    0  0.68009089531E+02  0.80830248895E+02 -0.45390037354E+03  0.46603037937E+03  0.00000000000E+00 0. -1.
          1    1    1    2  502    0 -0.98981222787E+02 -0.63084387288E+02  0.10872214568E+04  0.10935389424E+04  0.00000000000E+00 0. -1.
         22    1    3    3    0    0  0.13785217063E+02 -0.67528882110E+02  0.31781665930E+03  0.32520395302E+03  0.00000000000E+00 0.  1.
         22    1    3    3    0    0  0.17186916193E+02  0.49783020503E+02  0.11056091260E+03  0.12246409521E+03  0.00000000000E+00 0.  1.
</event>
<event>
 7    1  0.6253338E-006  0.1028377E+03  0.7818608E-02  0.1384871E+00
          2   -1    0    0  502    0  0.00000000000E+00  0.00000000000E+00  0.69865248515E+03  0.69865248515E+03  0.00000000000E+00 0. -1.
          1   -1    0    0  501    0 -0.00000000000E+00 -0.00000000000E+00 -0.44892102631E+03  0.44892102631E+03  0.00000000000E+00 0. -1.
         25    2    1    2    0    0  0.12966656565E+03  0.38738442873E+02 -0.10878454126E+03  0.21394415687E+03  0.12499576249E+03 0.  0.
          2    1    1    2  501    0 -0.95716678365E+02 -0.19869875697E+02 -0.27863981241E+03  0.29529077117E+03  0.00000000000E+00 0. -1.
          1    1    1    2  502    0 -0.33949887283E+02 -0.18868567176E+02  0.63715581250E+03  0.63833858342E+03  0.00000000000E+00 0. -1.
         22    1    3    3    0    0  0.46263887627E+02  0.77392970558E+02 -0.37655256601E+02  0.97713548394E+02  0.00000000000E+00 0.  1.
         22    1    3    3    0    0  0.83402678021E+02 -0.38654527685E+02 -0.71129284658E+02  0.11623060848E+03  0.00000000000E+00 0.  1.
</event>
<event>
 7    1  0.6253338E-006  0.1575578E+03  0.7818608E-02  0.1249809E+00
          2   -1    0    0  502    0  0.00000000000E+00  0.00000000000E+00  0.85541161312E+03  0.85541161312E+03  0.00000000000E+00 0. -1.
          1   -1    0    0  501    0 -0.00000000000E+00 -0.00000000000E+00 -0.99400391751E+03  0.99400391751E+03  0.00000000000E+00 0. -1.
         25    2    1    2    0    0  0.13482680331E+02  0.13386949726E+03 -0.54766738894E+03  0.57763815804E+03  0.12499379084E+03 0.  0.
          2    1    1    2  501    0  0.48098678404E+02 -0.19308804352E+03 -0.40605012397E+03  0.45218710574E+03  0.00000000000E+00 0. -1.
          1    1    1    2  502    0 -0.61581358736E+02  0.59218546266E+02  0.81512520852E+03  0.81959026686E+03  0.00000000000E+00 0. -1.
         22    1    3    3    0    0  0.64586387691E+02  0.10419512420E+03 -0.32797014093E+03  0.35013203041E+03  0.00000000000E+00 0.  1.
         22    1    3    3    0    0 -0.51103707360E+02  0.29674373054E+02 -0.21969724801E+03  0.22750612762E+03  0.00000000000E+00 0.  1.
</event>
<event>
 7    1  0.6253338E-006  0.4432966E+02  0.7818608E-02  0.1485444E+00
          2   -1    0    0  502    0  0.00000000000E+00  0.00000000000E+00  0.23447550362E+04  0.23447550362E+04  0.00000000000E+00 0. -1.
          1   -1    0    0  501    0 -0.00000000000E+00 -0.00000000000E+00 -0.69654842737E+03  0.69654842737E+03  0.00000000000E+00 0. -1.
         25    2    1    2    0    0 -0.80880245205E+01  0.70409033696E+02  0.18240720521E+03  0.23220736302E+03  0.12500009105E+03 0.  0.
          2    1    1    2  501    0  0.28821743891E+02 -0.33614253201E+02 -0.67070964451E+03  0.67216964984E+03  0.00000000000E+00 0. -1.
          1    1    1    2  502    0 -0.20733719370E+02 -0.36794780495E+02  0.21365090481E+04  0.21369264507E+04  0.00000000000E+00 0. -1.
         22    1    3    3    0    0 -0.42039593689E+02  0.18969671190E+02  0.16018065161E+03  0.16668838296E+03  0.00000000000E+00 0.  1.
         22    1    3    3    0    0  0.33951569169E+02  0.51439362505E+02  0.22226553605E+02  0.65518980068E+02  0.00000000000E+00 0.  1.
</event>
<event>
 7    1  0.6253338E-006  0.5165803E+02  0.7818608E-02  0.1453654E+00
          2   -1    0    0  502    0  0.00000000000E+00  0.00000000000E+00  0.54978725225E+03  0.54978725225E+03  0.00000000000E+00 0. -1.
          1   -1    0    0  501    0 -0.00000000000E+00 -0.00000000000E+00 -0.11950580419E+04  0.11950580419E+04  0.00000000000E+00 0. -1.
         25    2    1    2    0    0 -0.71377493850E+01  0.72913185191E+02  0.13722710363E+03  0.19954635691E+03  0.12498076070E+03 0.  0.
          2    1    1    2  501    0  0.35607164231E+02 -0.37396835450E+02 -0.11619648724E+04  0.11631116705E+04  0.00000000000E+00 0. -1.
          1    1    1    2  502    0 -0.28469414846E+02 -0.35516349741E+02  0.37946697907E+03  0.38218726677E+03  0.00000000000E+00 0. -1.
         22    1    3    3    0    0 -0.18453190176E+01 -0.27322957965E+02  0.78757312847E+02  0.83382633451E+02  0.00000000000E+00 0. -1.
         22    1    3    3    0    0 -0.52924303674E+01  0.10023614316E+03  0.58469790780E+02  0.11616372346E+03  0.00000000000E+00 0. -1.
</event>
<event>
 7    1  0.6253338E-006  0.6437984E+02  0.7818608E-02  0.1429199E+00
          2   -1    0    0  502    0  0.00000000000E+00  0.00000000000E+00  0.64372626851E+03  0.64372626851E+03  0.00000000000E+00 0. -1.
          1   -1    0    0  501    0 -0.00000000000E+00 -0.00000000000E+00 -0.27671003372E+02  0.27671003372E+02  0.00000000000E+00 0. -1.
         25    2    1    2    0    0  0.19444172415E+02 -0.38728736969E+02  0.26341168706E+03  0.29476810392E+03  0.12499810919E+03 0.  0.
          2    1    1    2  501    0  0.43635351680E+02  0.41410412042E+01  0.54550544294E+02  0.69978239626E+02  0.00000000000E+00 0. -1.
          1    1    1    2  502    0 -0.63079524094E+02  0.34587695765E+02  0.29809303379E+03  0.30665092834E+03  0.00000000000E+00 0. -1.
         22    1    3    3    0    0 -0.18321687206E+02  0.98955602280E+01 -0.32640887318E+01  0.21077490590E+02  0.00000000000E+00 0.  1.
         22    1    3    3    0    0  0.37765859621E+02 -0.48624297197E+02  0.26667577579E+03  0.27369061333E+03  0.00000000000E+00 0.  1.
</event>
<event>
 7    1  0.6253338E-006  0.9030202E+02  0.7818608E-02  0.1384952E+00
          2   -1    0    0  502    0  0.00000000000E+00  0.00000000000E+00  0.28162954795E+04  0.28162954795E+04  0.00000000000E+00 0. -1.
          1   -1    0    0  501    0 -0.00000000000E+00 -0.00000000000E+00 -0.34325797150E+03  0.34325797150E+03  0.00000000000E+00 0. -1.
         25    2    1    2    0    0 -0.65249308550E+02  0.28050435141E+02  0.71537319074E+02  0.16058217041E+03  0.12499898501E+03 0.  0.
          2    1    1    2  501    0  0.91661900167E+02  0.73944036007E+01 -0.29147288473E+03  0.30563544245E+03  0.00000000000E+00 0. -1.
          1    1    1    2  502    0 -0.26412591616E+02 -0.35444838742E+02  0.26929730736E+04  0.26933358381E+04  0.00000000000E+00 0. -1.
         22    1    3    3    0    0 -0.75225806860E+02 -0.17131459181E+02  0.82579800722E+02  0.11301253204E+03  0.00000000000E+00 0. -1.
         22    1    3    3    0    0  0.99764983100E+01  0.45181894322E+02 -0.11042481648E+02  0.47569638363E+02  0.00000000000E+00 0. -1.
</event>
<event>
 7    1  0.6253338E-006  0.1360913E+03  0.7818608E-02  0.1403582E+00
          2   -1    0    0  502    0  0.00000000000E+00  0.00000000000E+00  0.21364756636E+04  0.21364756636E+04  0.00000000000E+00 0. -1.
          1   -1    0    0  501    0 -0.00000000000E+00 -0.00000000000E+00 -0.40114928760E+02  0.40114928760E+02  0.00000000000E+00 0. -1.
         25    2    1    2    0    0 -0.63398147460E+02  0.99241942296E+02  0.10524194538E+04  0.10663398989E+04  0.12500314032E+03 0.  0.
          2    1    1    2  501    0  0.87141453736E+02 -0.10791169416E+03  0.11283779929E+03  0.17880418240E+03  0.00000000000E+00 0. -1.
          1    1    1    2  502    0 -0.23743306276E+02  0.86697518661E+01  0.93110348178E+03  0.93144651106E+03  0.00000000000E+00 0. -1.
         22    1    3    3    0    0 -0.54656655235E+01  0.76164080419E+02  0.87413745999E+03  0.87746631822E+03  0.00000000000E+00 0. -1.
         22    1    3    3    0    0 -0.57932481937E+02  0.23077861877E+02  0.17828199378E+03  0.18887358068E+03  0.00000000000E+00 0. -1.
</event>
<event>
 7    1  0.6253338E-006  0.9587292E+02  0.7818608E-02  0.1397069E+00
          2   -1    0    0  502    0  0.00000000000E+00  0.00000000000E+00  0.16429757668E+04  0.16429757668E+04  0.00000000000E+00 0. -1.
          1   -1    0    0  501    0 -0.00000000000E+00 -0.00000000000E+00 -0.38818428903E+03  0.38818428903E+03  0.00000000000E+00 0. -1.
         25    2    1    2    0    0 -0.89973086209E+02 -0.20281906113E+02 -0.51337480313E+02  0.16360503208E+03  0.12499823071E+03 0.  0.
          2    1    1    2  501    0 -0.44891320331E+01  0.37510412966E+02 -0.27798165175E+03  0.28053695317E+03  0.00000000000E+00 0. -1.
          1    1    1    2  502    0  0.94462218243E+02 -0.17228506852E+02  0.15841106098E+04  0.15870180706E+04  0.00000000000E+00 0. -1.
         22    1    3    3    0    0 -0.20247869140E+01  0.45468493041E+02 -0.13874452772E+02  0.47581341524E+02  0.00000000000E+00 0.  1.
         22    1    3    3    0    0 -0.87948299296E+02 -0.65750399154E+02 -0.37463027541E+02  0.11602369056E+03  0.00000000000E+00 0.  1.
</event>
<event>
 7    1  0.6253338E-006  0.4222213E+02  0.7818608E-02  0.1519039E+00
          2   -1    0    0  502    0  0.00000000000E+00  0.00000000000E+00  0.12194756166E+03  0.12194756166E+03  0.00000000000E+00 0. -1.
          1   -1    0    0  501    0 -0.00000000000E+00 -0.00000000000E+00 -0.82789768627E+03  0.82789768627E+03  0.00000000000E+00 0. -1.
         25    2    1    2    0    0 -0.17093522533E+02 -0.59070945417E+02 -0.41161356658E+03  0.43454807208E+03  0.12499893460E+03 0.  0.
          2    1    1    2  501    0 -0.12153717761E+02  0.39437251801E+02 -0.40092262619E+03  0.40304089355E+03  0.00000000000E+00 0. -1.
          1    1    1    2  502    0  0.29247240294E+02  0.19633693616E+02  0.10658606815E+03  0.11225628229E+03  0.00000000000E+00 0. -1.
         22    1    3    3    0    0 -0.46716684311E+02  0.60088799037E+01 -0.28731174985E+03  0.29114703645E+03  0.00000000000E+00 0. -1.
         22    1    3    3    0    0  0.29623161778E+02 -0.65079825321E+02 -0.12430181673E+03  0.14340103563E+03  0.00000000000E+00 0. -1.
</event>
<event>
 7    1  0.6253338E-006  0.3259387E+03  0.7818608E-02  0.1241462E+00
          2   -1    0    0  502    0  0.00000000000E+00  0.00000000000E+00  0.93496243005E+03  0.93496243005E+03  0.00000000000E+00 0. -1.
          1   -1    0    0  501    0 -0.00000000000E+00 -0.00000000000E+00 -0.42879080369E+03  0.42879080369E+03  0.00000000000E+00 0. -1.
         25    2    1    2    0    0 -0.25541251034E+03  0.24494940952E+03  0.21949644737E+03  0.43478767657E+03  0.12500347844E+03 0.  0.
          2    1    1    2  501    0  0.24855949085E+03 -0.20055825958E+03 -0.24054583380E+03  0.39983463348E+03  0.00000000000E+00 0. -1.
          1    1    1    2  502    0  0.68530194961E+01 -0.44391149946E+02  0.52722101279E+03  0.52913092368E+03  0.00000000000E+00 0. -1.
         22    1    3    3    0    0 -0.22561488954E+03  0.13943554236E+03  0.16486999988E+03  0.31229227610E+03  0.00000000000E+00 0. -1.
         22    1    3    3    0    0 -0.29797620805E+02  0.10551386717E+03  0.54626447493E+02  0.12249540047E+03  0.00000000000E+00 0. -1.
</event>
<event>
 7    1  0.6253338E-006  0.1012888E+03  0.7818608E-02  0.1398997E+00
          2   -1    0    0  502    0  0.00000000000E+00  0.00000000000E+00  0.22601472684E+03  0.22601472684E+03  0.00000000000E+00 0. -1.
          1   -1    0    0  501    0 -0.00000000000E+00 -0.00000000000E+00 -0.64800653926E+03  0.64800653926E+03  0.00000000000E+00 0. -1.
         25    2    1    2    0    0  0.68928091686E+02 -0.35291233746E+02 -0.34051991279E+01  0.14707233576E+03  0.12498849372E+03 0.  0.
          2    1    1    2  501    0 -0.10092852450E+03  0.20592489798E+02 -0.56604640018E+03  0.57534263257E+03  0.00000000000E+00 0. -1.
          1    1    1    2  502    0  0.32000432811E+02  0.14698743949E+02  0.14745978689E+03  0.15160629777E+03  0.00000000000E+00 0. -1.
         22    1    3    3    0    0 -0.18866721472E+02 -0.39392754298E+02 -0.32553390721E+02  0.54474448301E+02  0.00000000000E+00 0.  1.
         22    1    3    3    0    0  0.87794813158E+02  0.41015205518E+01  0.29148191593E+02  0.92597887456E+02  0.00000000000E+00 0.  1.
</event>
<event>
 7    1  0.6253338E-006  0.3283420E+02  0.7818608E-02  0.1644615E+00
          2   -1    0    0  502    0  0.00000000000E+00  0.00000000000E+00  0.95619259438E+03  0.95619259438E+03  0.00000000000E+00 0. -1.
          1   -1    0    0  501    0 -0.00000000000E+00 -0.00000000000E+00 -0.57345965901E+02  0.57345965901E+02  0.00000000000E+00 0. -1.
         25    2    1    2    0    0 -0.19328845555E+02  0.10664756964E+02  0.43503351366E+03  0.45317257365E+03  0.12499552870E+03 0.  0.
          2    1    1    2  501    0  0.32576936563E+02  0.54658681489E+01 -0.42385611929E+02  0.53737069227E+02  0.00000000000E+00 0. -1.
          1    1    1    2  502    0 -0.13248091008E+02 -0.16130625113E+02  0.50619872675E+03  0.50662891740E+03  0.00000000000E+00 0. -1.
         22    1    3    3    0    0 -0.47313421669E+02  0.18796862435E+02  0.67808929670E+02  0.84793471744E+02  0.00000000000E+00 0.  1.
         22    1    3    3    0    0  0.27984576114E+02 -0.81321054715E+01  0.36722458399E+03  0.36837910191E+03  0.00000000000E+00 0.  1.
</event>
<event>
 7    1  0.6253338E-006  0.1024043E+03  0.7818608E-02  0.1348577E+00
          2   -1    0    0  502    0  0.00000000000E+00  0.00000000000E+00  0.79320339632E+03  0.79320339632E+03  0.00000000000E+00 0. -1.
          1   -1    0    0  501    0 -0.00000000000E+00 -0.00000000000E+00 -0.10505594791E+03  0.10505594791E+03  0.00000000000E+00 0. -1.
         25    2    1    2    0    0 -0.15040647328E+03 -0.18879345065E+01  0.34924494690E+03  0.40027565381E+03  0.12499157810E+03 0.  0.
          2    1    1    2  501    0  0.98071591717E+02  0.85359674498E+01 -0.46581150906E+02  0.10890685682E+03  0.00000000000E+00 0. -1.
          1    1    1    2  502    0  0.52334881567E+02 -0.66480329433E+01  0.38548365241E+03  0.38907683360E+03  0.00000000000E+00 0. -1.
         22    1    3    3    0    0 -0.16870642499E+02  0.81253510564E+01  0.19547803635E+03  0.19637286626E+03  0.00000000000E+00 0.  1.
         22    1    3    3    0    0 -0.13353583078E+03 -0.10013285563E+02  0.15376691055E+03  0.20390278755E+03  0.00000000000E+00 0.  1.
</event>
<event>
 7    1  0.6253338E-006  0.7166741E+02  0.7818608E-02  0.1437772E+00
          2   -1    0    0  502    0  0.00000000000E+00  0.00000000000E+00  0.19945678737E+04  0.19945678737E+04  0.00000000000E+00 0. -1.
          1   -1    0    0  501    0 -0.00000000000E+00 -0.00000000000E+00 -0.12324858087E+04  0.12324858087E+04  0.00000000000E+00 0. -1.
         25    2    1    2    0    0  0.88228353522E+02  0.32294989890E+01  0.34623716989E+03  0.37854600489E+03  0.12498891142E+03 0.  0.
          2    1    1    2  501    0 -0.22073371521E+02 -0.29580934090E+02 -0.12152743790E+04  0.12158347263E+04  0.00000000000E+00 0. -1.
          1    1    1    2  502    0 -0.66154982001E+02  0.26351435101E+02  0.16311192741E+04  0.16326729513E+04  0.00000000000E+00 0. -1.
         22    1    3    3    0    0  0.70716315027E+02 -0.10220663377E+02  0.65464672827E+02  0.96906566130E+02  0.00000000000E+00 0.  1.
         22    1    3    3    0    0  0.17512038495E+02  0.13450162366E+02  0.28077249706E+03  0.28163943876E+03  0.00000000000E+00 0.  1.
</event>
<event>
 7    1  0.6253338E-006  0.1319113E+03  0.7818608E-02  0.1401139E+00
          2   -1    0    0  502    0  0.00000000000E+00  0.00000000000E+00  0.37449306179E+03  0.37449306179E+03  0.00000000000E+00 0. -1.
          1   -1    0    0  501    0 -0.00000000000E+00 -0.00000000000E+00 -0.95008686581E+03  0.95008686581E+03  0.00000000000E+00 0. -1.
         25    2    1    2    0    0  0.10123712819E+03  0.11962266900E+03 -0.15227761430E+01  0.20046741862E+03  0.12500531196E+03 0.  0.
          2    1    1    2  501    0 -0.80650557580E+02 -0.10280126742E+03 -0.84340672594E+03  0.85346793636E+03  0.00000000000E+00 0. -1.
          1    1    1    2  502    0 -0.20586570615E+02 -0.16821401583E+02  0.26933569806E+03  0.27064457263E+03  0.00000000000E+00 0. -1.
         22    1    3    3    0    0  0.83536127630E+02  0.78975130492E+02  0.55975454480E+02  0.12786167276E+03  0.00000000000E+00 0.  1.
         22    1    3    3    0    0  0.17701000564E+02  0.40647538508E+02 -0.57498230623E+02  0.72605745865E+02  0.00000000000E+00 0.  1.
</event>
<event>
 7    1  0.6253338E-006  0.5798837E+02  0.7818608E-02  0.1524591E+00
          2   -1    0    0  502    0  0.00000000000E+00  0.00000000000E+00  0.40636413315E+02  0.40636413315E+02  0.00000000000E+00 0. -1.
          1   -1    0    0  501    0 -0.00000000000E+00 -0.00000000000E+00 -0.76048352135E+03  0.76048352135E+03  0.00000000000E+00 0. -1.
         25    2    1    2    0    0 -0.61610786852E+02 -0.50186089415E+02 -0.28913616505E+03  0.32486371983E+03  0.12498872709E+03 0.  0.
          2    1    1    2  501    0  0.15281254714E+02  0.19425927428E+02 -0.41861582423E+03  0.41934483626E+03  0.00000000000E+00 0. -1.
          1    1    1    2  502    0  0.46329532138E+02  0.30760161987E+02 -0.12095118766E+02  0.56911378578E+02  0.00000000000E+00 0. -1.
         22    1    3    3    0    0 -0.35833292591E+02 -0.43466918986E+02 -0.28985324208E+02  0.63352560513E+02  0.00000000000E+00 0.  1.
         22    1    3    3    0    0 -0.25777494261E+02 -0.67191704294E+01 -0.26015084084E+03  0.26151115932E+03  0.00000000000E+00 0.  1.
</event>
<event>
 7    1  0.6253338E-006  0.6765838E+02  0.7818608E-02  0.1375538E+00
          2   -1    0    0  502    0  0.00000000000E+00  0.00000000000E+00  0.67421517140E+03  0.67421517140E+03  0.00000000000E+00 0. -1.
          1   -1    0    0  501    0 -0.00000000000E+00 -0.00000000000E+00 -0.67685838124E+02  0.67685838124E+02  0.00000000000E+00 0. -1.
         25    2    1    2    0    0 -0.40102553457E+01  0.86697619803E+01  0.55158014910E+03  0.56563871682E+03  0.12496099458E+03 0.  0.
          2    1    1    2  501    0 -0.21765500695E+02 -0.66926011594E+02 -0.24417336608E+02  0.74491840999E+02  0.00000000000E+00 0. -1.
          1    1    1    2  502    0  0.25775756041E+02  0.58256249614E+02  0.79366520785E+02  0.10177045170E+03  0.00000000000E+00 0. -1.
         22    1    3    3    0    0  0.45182671582E+02 -0.35178748335E+02  0.20490642752E+03  0.21275728468E+03  0.00000000000E+00 0. -1.
         22    1    3    3    0    0 -0.49192926928E+02  0.43848510316E+02  0.34667372158E+03  0.35288143214E+03  0.00000000000E+00 0. -1.
</event>
<event>
 7    1  0.6253338E-006  0.1923585E+03  0.7818608E-02  0.1236857E+00
          2   -1    0    0  502    0  0.00000000000E+00  0.00000000000E+00  0.19498222065E+04  0.19498222065E+04  0.00000000000E+00 0. -1.
          1   -1    0    0  501    0 -0.00000000000E+00 -0.00000000000E+00 -0.19267252204E+03  0.19267252204E+03  0.00000000000E+00 0. -1.
         25    2    1    2    0    0 -0.79622235608E+02 -0.23825540811E+03  0.11908009080E+03  0.30481196055E+03  0.12499969349E+03 0.  0.
          2    1    1    2  501    0 -0.20050847344E+02  0.77195644534E+02 -0.77783821766E+02  0.11140703273E+03  0.00000000000E+00 0. -1.
          1    1    1    2  502    0  0.99673082953E+02  0.16105976357E+03  0.17158534154E+04  0.17262757353E+04  0.00000000000E+00 0. -1.
         22    1    3    3    0    0 -0.92902490911E+02 -0.86146942123E+02  0.68096806701E+02  0.14383790716E+03  0.00000000000E+00 0.  1.
         22    1    3    3    0    0  0.13280255303E+02 -0.15210846598E+03  0.50983284098E+02  0.16097405338E+03  0.00000000000E+00 0.  1.
</event>
<event>
 7    1  0.6253338E-006  0.5922301E+02  0.7818608E-02  0.1532292E+00
          2   -1    0    0  502    0  0.00000000000E+00  0.00000000000E+00  0.93154705071E+03  0.93154705071E+03  0.00000000000E+00 0. -1.
          1   -1    0    0  501    0 -0.00000000000E+00 -0.00000000000E+00 -0.22837024522E+03  0.22837024522E+03  0.00000000000E+00 0. -1.
         25    2    1    2    0    0  0.65599169310E+02  0.28981160256E+02  0.14888594080E+03  0.20720219002E+03  0.12499026169E+03 0.  0.
          2    1    1    2  501    0 -0.44673161309E+02 -0.38525195746E+02 -0.19466465805E+03  0.20340651697E+03  0.00000000000E+00 0. -1.
          1    1    1    2  502    0 -0.20926008001E+02  0.95440354904E+01  0.74895552274E+03  0.74930858895E+03  0.00000000000E+00 0. -1.
         22    1    3    3    0    0  0.38353915809E+02  0.18696382744E+02 -0.11502415783E+02  0.44191437569E+02  0.00000000000E+00 0.  1.
         22    1    3    3    0    0  0.27245253501E+02  0.10284777512E+02  0.16038835658E+03  0.16301075245E+03  0.00000000000E+00 0.  1.
</event>
<event>
 7    1  0.6253338E-006  0.5173536E+02  0.7818608E-02  0.1482798E+00
          2   -1    0    0  502    0  0.00000000000E+00  0.00000000000E+00  0.11948057945E+04  0.11948057945E+04  0.00000000000E+00 0. -1.
          1   -1    0    0  501    0 -0.00000000000E+00 -0.00000000000E+00 -0.18296816821E+03  0.18296816821E+03  0.00000000000E+00 0. -1.
         25    2    1    2    0    0  0.27512153324E+02 -0.32477399226E+02  0.33599242669E+01  0.13209198734E+03  0.12500121594E+03 0.  0.
          2    1    1    2  501    0  0.28046217850E+01  0.53456186400E+02 -0.11224353648E+03  0.12435449831E+03  0.00000000000E+00 0. -1.
          1    1    1    2  502    0 -0.30316775109E+02 -0.20978787174E+02  0.11207212386E+04  0.11213274771E+04  0.00000000000E+00 0. -1.
         22    1    3    3    0    0  0.53405507927E+02 -0.40301597754E+02  0.46284831064E+02  0.81355102146E+02  0.00000000000E+00 0. -1.
         22    1    3    3    0    0 -0.25893354603E+02  0.78241985274E+01 -0.42924906798E+02  0.50736885190E+02  0.00000000000E+00 0. -1.
</event>
<event>
 7    1  0.6253338E-006  0.1090655E+03  0.7818608E-02  0.1431378E+00
          2   -1    0    0  502    0  0.00000000000E+00  0.00000000000E+00  0.17441757541E+03  0.17441757541E+03  0.00000000000E+00 0. -1.
          1   -1    0    0  501    0 -0.00000000000E+00 -0.00000000000E+00 -0.55406292203E+03  0.55406292203E+03  0.00000000000E+00 0. -1.
         25    2    1    2    0    0  0.74951573013E+02 -0.99879783776E+02  0.45854166435E+02  0.18254141941E+03  0.12500022286E+03 0.  0.
          2    1    1    2  501    0 -0.78455234983E+02  0.74672711085E+02 -0.47665332423E+03  0.48880428514E+03  0.00000000000E+00 0. -1.
          1    1    1    2  502    0  0.35036619694E+01  0.25207072691E+02  0.51153811169E+02  0.57134792884E+02  0.00000000000E+00 0. -1.
         22    1    3    3    0    0 -0.32645623014E+02 -0.14286998334E+02 -0.49269521920E+01  0.35974016752E+02  0.00000000000E+00 0. -1.
         22    1    3    3    0    0  0.10759719603E+03 -0.85592785442E+02  0.50781118627E+02  0.14656740266E+03  0.00000000000E+00 0. -1.
</event>
<event>
 7    1  0.6253338E-006  0.5929920E+02  0.7818608E-02  0.1405951E+00
          2   -1    0    0  502    0  0.00000000000E+00  0.00000000000E+00  0.34357527895E+03  0.34357527895E+03  0.00000000000E+00 0. -1.
          1   -1    0    0  501    0 -0.00000000000E+00 -0.00000000000E+00 -0.20962120125E+03  0.20962120125E+03  0.00000000000E+00 0. -1.
         25    2    1    2    0    0  0.11335962904E+02  0.71176142154E+02  0.14815166632E+02  0.14504454401E+03  0.12499553319E+03 0.  0.
          2    1    1    2  501    0 -0.50672846212E+02 -0.25967523771E+02 -0.13527799955E+03  0.14677256827E+03  0.00000000000E+00 0. -1.
          1    1    1    2  502    0  0.39336883308E+02 -0.45208618383E+02  0.25441691062E+03  0.26137936792E+03  0.00000000000E+00 0. -1.
         22    1    3    3    0    0  0.52444031032E+02  0.84613196455E+01  0.39390869167E+02  0.66133281294E+02  0.00000000000E+00 0. -1.
         22    1    3    3    0    0 -0.41108068128E+02  0.62714822509E+02 -0.24575702535E+02  0.78911262711E+02  0.00000000000E+00 0. -1.
</event>
<event>
 7    1  0.6253338E-006  0.8990107E+02  0.7818608E-02  0.1416961E+00
          2   -1    0    0  502    0  0.00000000000E+00  0.00000000000E+00  0.54424808324E+03  0.54424808324E+03  0.00000000000E+00 0. -1.
          1   -1    0    0  501    0 -0.00000000000E+00 -0.00000000000E+00 -0.47802843505E+03  0.47802843505E+03  0.00000000000E+00 0. -1.
         25    2    1    2    0    0 -0.51057759897E+01 -0.57379487244E+02 -0.63109899488E+02  0.15141285593E+03  0.12499807607E+03 0.  0.
          2    1    1    2  501    0  0.69235264940E+01 -0.33769349705E+02 -0.36579506655E+03  0.36741575213E+03  0.00000000000E+00 0. -1.
          1    1    1    2  502    0 -0.18177505044E+01  0.91148836948E+02  0.49512461423E+03  0.50344791023E+03  0.00000000000E+00 0. -1.
         22    1    3    3    0    0  0.20363387567E+02  0.14652230429E+02 -0.70330204358E+02  0.74670563509E+02  0.00000000000E+00 0. -1.
         22    1    3    3    0    0 -0.25469163556E+02 -0.72031717672E+02  0.72203048705E+01  0.76742292418E+02  0.00000000000E+00 0. -1.
</event>
<event>
 7    1  0.6253338E-006  0.1168987E+03  0.7818608E-02  0.1288095E+00
          2   -1    0    0  502    0  0.00000000000E+00  0.00000000000E+00  0.32907213969E+04  0.32907213969E+04  0.00000000000E+00 0. -1.
          1   -1    0    0  501    0 -0.00000000000E+00 -0.00000000000E+00 -0.25774793950E+03  0.25774793950E+03  0.00000000000E+00 0. -1.
         25    2    1    2    0    0 -0.19023350548E+03  0.36745441479E+02  0.39387371306E+03  0.45640121734E+03  0.12500622093E+03 0.  0.
          2    1    1    2  501    0  0.11214291907E+03 -0.22029334265E+02 -0.21147767096E+03  0.24038330055E+03  0.00000000000E+00 0. -1.
          1    1    1    2  502    0  0.78090586407E+02 -0.14716107214E+02  0.28505774153E+04  0.28516848186E+04  0.00000000000E+00 0. -1.
         22    1    3    3    0    0 -0.78419712143E+02  0.11303597986E+01  0.49888988374E+02  0.92950740324E+02  0.00000000000E+00 0. -1.
         22    1    3    3    0    0 -0.11181379334E+03  0.35615081680E+02  0.34398472469E+03  0.36345047701E+03  0.00000000000E+00 0. -1.
</event>
<event>
 7    1  0.6253338E-006  0.1918607E+03  0.7818608E-02  0.1254287E+00
          2   -1    0    0  502    0  0.00000000000E+00  0.00000000000E+00  0.13899768980E+04  0.13899768980E+04  0.00000000000E+00 0. -1.
          1   -1    0    0  501    0 -0.00000000000E+00 -0.00000000000E+00 -0.47663838747E+03  0.47663838747E+03  0.00000000000E+00 0. -1.
         25    2    1    2    0    0  0.24725366360E+02 -0.13253666461E+03  0.72907858612E+02  0.19778323902E+03  0.12500137031E+03 0.  0.
          2    1    1    2  501    0  0.34118979436E+02 -0.57778767437E+02 -0.40350538355E+03  0.40904655637E+03  0.00000000000E+00 0. -1.
          1    1    1    2  502    0 -0.58844345796E+02  0.19031543205E+03  0.12439360355E+04  0.12597854901E+04  0.00000000000E+00 0. -1.
         22    1    3    3    0    0  0.54136337986E+02 -0.96644112854E+02 -0.69235228441E+00  0.11077593146E+03  0.00000000000E+00 0. -1.
         22    1    3    3    0    0 -0.29410971626E+02 -0.35892551760E+02  0.73600210897E+02  0.87007307554E+02  0.00000000000E+00 0. -1.
</event>
<event>
 7    1  0.6253338E-006  0.7695189E+02  0.7818608E-02  0.1338670E+00
          2   -1    0    0  502    0  0.00000000000E+00  0.00000000000E+00  0.43521270250E+03  0.43521270250E+03  0.00000000000E+00 0. -1.
          1   -1    0    0  501    0 -0.00000000000E+00 -0.00000000000E+00 -0.24019494294E+03  0.24019494294E+03  0.00000000000E+00 0. -1.
         25    2    1    2    0    0  0.39143964973E+00  0.16334333248E+02  0.76286782104E+02  0.14734943984E+03  0.12500088251E+03 0.  0.
          2    1    1    2  501    0 -0.56283357619E+02  0.51752073888E+02 -0.19116337253E+03  0.20588717418E+03  0.00000000000E+00 0. -1.
          1    1    1    2  502    0  0.55891917969E+02 -0.68086407136E+02  0.30989434998E+03  0.32217103141E+03  0.00000000000E+00 0. -1.
         22    1    3    3    0    0  0.28239640254E+02  0.31184169130E+02 -0.19592842078E+02  0.46409149386E+02  0.00000000000E+00 0. -1.
         22    1    3    3    0    0 -0.27848200604E+02 -0.14849835882E+02  0.95879624183E+02  0.10094029045E+03  0.00000000000E+00 0. -1.
</event>
<event>
 7    1  0.6253338E-006  0.3733384E+02  0.7818608E-02  0.1556358E+00
          2   -1    0    0  502    0  0.00000000000E+00  0.00000000000E+00  0.23414436012E+04  0.23414436012E+04  0.00000000000E+00 0. -1.
          1   -1    0    0  501    0 -0.00000000000E+00 -0.00000000000E+00 -0.38213029514E+02  0.38213029514E+02  0.00000000000E+00 0. -1.
         25    2    1    2    0    0 -0.41565813253E+02  0.53963587855E+02  0.83916498127E+03  0.85115373843E+03  0.12500014002E+03 0.  0.
          2    1    1    2  501    0  0.21469711374E+02 -0.30068342085E+02 -0.21408293335E+02  0.42700921837E+02  0.00000000000E+00 0. -1.
          1    1    1    2  502    0  0.20096101879E+02 -0.23895245770E+02  0.14854738838E+04  0.14858019705E+04  0.00000000000E+00 0. -1.
         22    1    3    3    0    0 -0.73946771936E+02  0.51257925054E+02  0.36686282439E+03  0.37773513456E+03  0.00000000000E+00 0.  1.
         22    1    3    3    0    0  0.32380958683E+02  0.27056628013E+01  0.47230215688E+03  0.47341860387E+03  0.00000000000E+00 0.  1.
</event>
<event>
 7    1  0.6253338E-006  0.7344796E+02  0.7818608E-02  0.1394803E+00
          2   -1    0    0  502    0  0.00000000000E+00  0.00000000000E+00  0.16342071496E+04  0.16342071496E+04  0.00000000000E+00 0. -1.
          1   -1    0    0  501    0 -0.00000000000E+00 -0.00000000000E+00 -0.76057784464E+02  0.76057784464E+02  0.00000000000E+00 0. -1.
         25    2    1    2    0    0  0.58904450850E+01  0.24399518051E+02  0.13348090097E+03  0.18458626939E+03  0.12499962440E+03 0.  0.
          2    1    1    2  501    0  0.14634007236E+02  0.48030364492E+02 -0.36812942001E+02  0.62259640055E+02  0.00000000000E+00 0. -1.
          1    1    1    2  502    0 -0.20524452321E+02 -0.72429882543E+02  0.14614814061E+04  0.14634190246E+04  0.00000000000E+00 0. -1.
         22    1    3    3    0    0 -0.20062239048E+01  0.43573554282E+02  0.15116540874E+03  0.15733296021E+03  0.00000000000E+00 0.  1.
         22    1    3    3    0    0  0.78966689899E+01 -0.19174036231E+02 -0.17684507774E+02  0.27253309188E+02  0.00000000000E+00 0.  1.
</event>
<event>
 7    1  0.6253338E-006  0.1027968E+03  0.7818608E-02  0.1401786E+00
          2   -1    0    0  502    0  0.00000000000E+00  0.00000000000E+00  0.12633497477E+03  0.12633497477E+03  0.00000000000E+00 0. -1.
          1   -1    0    0  501    0 -0.00000000000E+00 -0.00000000000E+00 -0.63902238601E+03  0.63902238601E+03  0.00000000000E+00 0. -1.
         25    2    1    2    0    0 -0.39640418453E+02 -0.11466748749E+03 -0.26217245124E+03  0.31476815567E+03  0.12499840866E+03 0.  0.
          2    1    1    2  501    0  0.10072301446E+02  0.98003187630E+02 -0.34047351256E+03  0.35444081141E+03  0.00000000000E+00 0. -1.
          1    1    1    2  502    0  0.29568117007E+02  0.16664299862E+02  0.89958552554E+02  0.96148393698E+02  0.00000000000E+00 0. -1.
         22    1    3    3    0    0  0.20291073860E+02 -0.31103630433E+02 -0.45927688021E+01  0.37420008415E+02  0.00000000000E+00 0.  1.
         22    1    3    3    0    0 -0.59931492313E+02 -0.83563857059E+02 -0.25757968244E+03  0.27734814725E+03  0.00000000000E+00 0.  1.
</event>
<event>
 7    1  0.6253338E-006  0.2292512E+03  0.7818608E-02  0.1188933E+00
          2   -1    0    0  502    0  0.00000000000E+00  0.00000000000E+00  0.16257149145E+04  0.16257149145E+04  0.00000000000E+00 0. -1.
          1   -1    0    0  501    0 -0.00000000000E+00 -0.00000000000E+00 -0.48241144457E+03  0.48241144457E+03  0.00000000000E+00 0. -1.
         25    2    1    2    0    0  0.22749877600E+00  0.15983339221E+03  0.25256919056E+03  0.32397573423E+03  0.12498926084E+03 0.  0.
          2    1    1    2  501    0  0.72723873719E+02  0.84355610077E+02 -0.42736503045E+03  0.44163955893E+03  0.00000000000E+00 0. -1.
          1    1    1    2  502    0 -0.72951372495E+02 -0.24418900228E+03  0.13180993098E+04  0.13425110659E+04  0.00000000000E+00 0. -1.
         22    1    3    3    0    0 -0.42242603984E+02  0.42286799612E+02  0.25918978653E+02  0.65149094139E+02  0.00000000000E+00 0. -1.
         22    1    3    3    0    0  0.42470102760E+02  0.11754659259E+03  0.22665021191E+03  0.25882664009E+03  0.00000000000E+00 0. -1.
</event>
<event>
 7    1  0.6253338E-006  0.9015024E+02  0.7818608E-02  0.1353837E+00
          2   -1    0    0  502    0  0.00000000000E+00  0.00000000000E+00  0.16694504354E+03  0.16694504354E+03  0.00000000000E+00 0. -1.
          1   -1    0    0  501    0 -0.00000000000E+00 -0.00000000000E+00 -0.45759810394E+03  0.45759810394E+03  0.00000000000E+00 0. -1.
         25    2    1    2    0    0  0.40479850363E+02 -0.24497218901E+02 -0.27548019502E+01  0.13367934204E+03  0.12499538206E+03 0.  0.
          2    1    1    2  501    0 -0.48128956920E+02  0.81285714979E+02 -0.37493818135E+03  0.38665540704E+03  0.00000000000E+00 0. -1.
          1    1    1    2  502    0  0.76491065567E+01 -0.56788496078E+02  0.87039922904E+02  0.10420839840E+03  0.00000000000E+00 0. -1.
         22    1    3    3    0    0  0.68333732423E+02 -0.57029468530E+02  0.84655812739E+01  0.89406517290E+02  0.00000000000E+00 0.  1.
         22    1    3    3    0    0 -0.27853882060E+02  0.32532249629E+02 -0.11220383224E+02  0.44272824751E+02  0.00000000000E+00 0.  1.
</event>
<event>
 7    1  0.6253338E-006  0.7359545E+02  0.7818608E-02  0.1480682E+00
          2   -1    0    0  502    0  0.00000000000E+00  0.00000000000E+00  0.11874398077E+04  0.11874398077E+04  0.00000000000E+00 0. -1.
          1   -1    0    0  501    0 -0.00000000000E+00 -0.00000000000E+00 -0.99388677652E+03  0.99388677652E+03  0.00000000000E+00 0. -1.
         25    2    1    2    0    0 -0.66810298280E+02 -0.71138922076E+02  0.35367337602E+03  0.38759713159E+03  0.12498926884E+03 0.  0.
          2    1    1    2  501    0  0.43248888678E+02  0.59439603285E+02 -0.97532964257E+03  0.97809582582E+03  0.00000000000E+00 0. -1.
          1    1    1    2  502    0  0.23561409603E+02  0.11699318792E+02  0.81520929777E+03  0.81563362685E+03  0.00000000000E+00 0. -1.
         22    1    3    3    0    0 -0.37613273850E+01 -0.28830823880E+01  0.24318228382E+03  0.24322845827E+03  0.00000000000E+00 0. -1.
         22    1    3    3    0    0 -0.63048970895E+02 -0.68255839688E+02  0.11049109219E+03  0.14436867332E+03  0.00000000000E+00 0. -1.
</event>
<event>
 7    1  0.6253338E-006  0.8360935E+02  0.7818608E-02  0.1378140E+00
          2   -1    0    0  502    0  0.00000000000E+00  0.00000000000E+00  0.65889860528E+02  0.65889860528E+02  0.00000000000E+00 0. -1.
          1   -1    0    0  501    0 -0.00000000000E+00 -0.00000000000E+00 -0.84603036767E+03  0.84603036767E+03  0.00000000000E+00 0. -1.
         25    2    1    2    0    0  0.36229984518E+02 -0.71146517358E+02 -0.49297007590E+03  0.51480069400E+03  0.12500328036E+03 0.  0.
          2    1    1    2  501    0  0.39011655646E+02  0.32009731655E+02 -0.30609123391E+03  0.31022310629E+03  0.00000000000E+00 0. -1.
          1    1    1    2  502    0 -0.75241640164E+02  0.39136785704E+02  0.18920802669E+02  0.86896427910E+02  0.00000000000E+00 0. -1.
         22    1    3    3    0    0  0.21035831902E+02 -0.39874947939E+02 -0.47210533174E+03  0.47425305687E+03  0.00000000000E+00 0. -1.
         22    1    3    3    0    0  0.15194152616E+02 -0.31271569419E+02 -0.20864744158E+02  0.40547637125E+02  0.00000000000E+00 0. -1.
</event>
<event>
 7    1  0.6253338E-006  0.1206830E+03  0.7818608E-02  0.1354830E+00
          2   -1    0    0  502    0  0.00000000000E+00  0.00000000000E+00  0.20183494553E+04  0.20183494553E+04  0.00000000000E+00 0. -1.
          1   -1    0    0  501    0 -0.00000000000E+00 -0.00000000000E+00 -0.44965916850E+03  0.44965916850E+03  0.00000000000E+00 0. -1.
         25    2    1    2    0    0 -0.89386246008E+01 -0.14885948957E+03 -0.38813809548E+01  0.19462607309E+03  0.12500078626E+03 0.  0.
          2    1    1    2  501    0 -0.25738865908E+02  0.33750971386E+02 -0.34723294075E+03  0.34981757022E+03  0.00000000000E+00 0. -1.
          1    1    1    2  502    0  0.34677490509E+02  0.11510851818E+03  0.19198046086E+04  0.19235649805E+04  0.00000000000E+00 0. -1.
         22    1    3    3    0    0  0.36750251159E+02 -0.53444783908E+02  0.44131662888E+02  0.78450809789E+02  0.00000000000E+00 0.  1.
         22    1    3    3    0    0 -0.45688875760E+02 -0.95414705659E+02 -0.48013043843E+02  0.11617526330E+03  0.00000000000E+00 0.  1.
</event>
<event>
 7    1  0.6253338E-006  0.1296757E+03  0.7818608E-02  0.1353260E+00
          2   -1    0    0  502    0  0.00000000000E+00  0.00000000000E+00  0.98158832776E+03  0.98158832776E+03  0.00000000000E+00 0. -1.
          1   -1    0    0  501    0 -0.00000000000E+00 -0.00000000000E+00 -0.32119472732E+04  0.32119472732E+04  0.00000000000E+00 0. -1.
         25    2    1    2    0    0 -0.96348470935E+01  0.12660157710E+03 -0.13201297734E+03  0.22175134929E+03  0.12500178048E+03 0.  0.
          2    1    1    2  501    0 -0.30395496791E+02 -0.12633934099E+03 -0.30332457194E+04  0.30360278506E+04  0.00000000000E+00 0. -1.
          1    1    1    2  502    0  0.40030343885E+02 -0.26223611085E+00  0.93489975130E+03  0.93575640109E+03  0.00000000000E+00 0. -1.
         22    1    3    3    0    0  0.39291370524E+01  0.68465977298E+02  0.84804525370E+01  0.69100985815E+02  0.00000000000E+00 0. -1.
         22    1    3    3    0    0 -0.13563984146E+02  0.58135599799E+02 -0.14049342987E+03  0.15265036347E+03  0.00000000000E+00 0. -1.
</event>
<event>
 7    1  0.6253338E-006  0.1592099E+03  0.7818608E-02  0.1292215E+00
          2   -1    0    0  502    0  0.00000000000E+00  0.00000000000E+00  0.38871378147E+03  0.38871378147E+03  0.00000000000E+00 0. -1.
          1   -1    0    0  501    0 -0.00000000000E+00 -0.00000000000E+00 -0.53700278897E+03  0.53700278897E+03  0.00000000000E+00 0. -1.
         25    2    1    2    0    0  0.64916789186E+02 -0.95706990520E+02 -0.74533237656E+01  0.17044985867E+03  0.12499433880E+03 0.  0.
          2    1    1    2  501    0  0.21397841943E+02 -0.51901022801E+02 -0.42225567522E+03  0.42597117163E+03  0.00000000000E+00 0. -1.
          1    1    1    2  502    0 -0.86314631128E+02  0.14760801332E+03  0.28141999149E+03  0.32929554013E+03  0.00000000000E+00 0. -1.
         22    1    3    3    0    0  0.63298637460E+02 -0.30548148704E+02 -0.55434526834E+02  0.89514767826E+02  0.00000000000E+00 0.  1.
         22    1    3    3    0    0  0.16181517254E+01 -0.65158841816E+02  0.47981203069E+02  0.80935090843E+02  0.00000000000E+00 0.  1.
</event>
<event>
 7    1  0.6253338E-006  0.1040346E+03  0.7818608E-02  0.1303759E+00
          2   -1    0    0  502    0  0.00000000000E+00  0.00000000000E+00  0.12810702429E+04  0.12810702429E+04  0.00000000000E+00 0. -1.
          1   -1    0    0  501    0 -0.00000000000E+00 -0.00000000000E+00 -0.11755123214E+04  0.11755123214E+04  0.00000000000E+00 0. -1.
         25    2    1    2    0    0  0.87100916869E+02 -0.65776811076E+02  0.40333529238E+03  0.43614253430E+03  0.12501117371E+03 0.  0.
          2    1    1    2  501    0 -0.10371847958E+03 -0.96276835651E+01 -0.11550298086E+04  0.11597172388E+04  0.00000000000E+00 0. -1.
          1    1    1    2  502    0  0.16617562716E+02  0.75404494641E+02  0.85725243774E+03  0.86072279115E+03  0.00000000000E+00 0. -1.
         22    1    3    3    0    0  0.13989590976E+02 -0.13461826046E+01  0.27321405195E+03  0.27357528953E+03  0.00000000000E+00 0. -1.
         22    1    3    3    0    0  0.73111325893E+02 -0.64430628471E+02  0.13012124043E+03  0.16256724477E+03  0.00000000000E+00 0. -1.
</event>
<event>
 7    1  0.6253338E-006  0.3533597E+02  0.7818608E-02  0.1560892E+00
          2   -1    0    0  502    0  0.00000000000E+00  0.00000000000E+00  0.83254582611E+03  0.83254582611E+03  0.00000000000E+00 0. -1.
          1   -1    0    0  501    0 -0.00000000000E+00 -0.00000000000E+00 -0.39681214605E+03  0.39681214605E+03  0.00000000000E+00 0. -1.
         25    2    1    2    0    0  0.54950775982E+02  0.34153049099E+02  0.49371465428E+03  0.51338564290E+03  0.12499855977E+03 0.  0.
          2    1    1    2  501    0 -0.25627535276E+02 -0.19248958287E+02 -0.38548771699E+03  0.38681788081E+03  0.00000000000E+00 0. -1.
          1    1    1    2  502    0 -0.29323240706E+02 -0.14904090812E+02  0.32750674277E+03  0.32915444845E+03  0.00000000000E+00 0. -1.
         22    1    3    3    0    0 -0.23178931620E+02  0.44780984027E+02  0.10163456935E+03  0.11345565252E+03  0.00000000000E+00 0. -1.
         22    1    3    3    0    0  0.78129707602E+02 -0.10627934928E+02  0.39208008493E+03  0.39992999039E+03  0.00000000000E+00 0. -1.
</event>
<event>
 7    1  0.6253338E-006  0.6244108E+02  0.7818608E-02  0.1401324E+00
          2   -1    0    0  502    0  0.00000000000E+00  0.00000000000E+00  0.26314263134E+04  0.26314263134E+04  0.00000000000E+00 0. -1.
          1   -1    0    0  501    0 -0.00000000000E+00 -0.00000000000E+00 -0.20466975792E+03  0.20466975792E+03  0.00000000000E+00 0. -1.
         25    2    1    2    0    0 -0.20458394407E+02  0.28862224120E+02  0.21337650426E+03  0.24981040718E+03  0.12499653228E+03 0.  0.
          2    1    1    2  501    0  0.63043512128E+02  0.76288325339E+01 -0.18070777904E+03  0.19154107892E+03  0.00000000000E+00 0. -1.
          1    1    1    2  502    0 -0.42585117721E+02 -0.36491056654E+02  0.23940878302E+04  0.23947445852E+04  0.00000000000E+00 0. -1.
         22    1    3    3    0    0  0.92768035398E+01  0.56801073825E+02  0.36188838022E+02  0.67985682824E+02  0.00000000000E+00 0. -1.
         22    1    3    3    0    0 -0.29735197946E+02 -0.27938849705E+02  0.17718766624E+03  0.18182472436E+03  0.00000000000E+00 0. -1.
</event>
<event>
 7    1  0.6253338E-006  0.8180549E+02  0.7818608E-02  0.1331285E+00
          2   -1    0    0  502    0  0.00000000000E+00  0.00000000000E+00  0.53017851935E+03  0.53017851935E+03  0.00000000000E+00 0. -1.
          1   -1    0    0  501    0 -0.00000000000E+00 -0.00000000000E+00 -0.56072324738E+03  0.56072324738E+03  0.00000000000E+00 0. -1.
         25    2    1    2    0    0  0.75081323188E+02  0.48872201220E+02  0.53116295913E+02  0.16270405050E+03  0.12500228003E+03 0.  0.
          2    1    1    2  501    0 -0.77829662774E+02  0.27791366969E+02 -0.49901854879E+03  0.50581550838E+03  0.00000000000E+00 0. -1.
          1    1    1    2  502    0  0.27483395861E+01 -0.76663568189E+02  0.41535752485E+03  0.42238220785E+03  0.00000000000E+00 0. -1.
         22    1    3    3    0    0  0.78201960352E+02 -0.13843410268E+02 -0.15738887257E+01  0.79433391823E+02  0.00000000000E+00 0.  1.
         22    1    3    3    0    0 -0.31206371641E+01  0.62715611488E+02  0.54690184639E+02  0.83270658677E+02  0.00000000000E+00 0.  1.
</event>
<event>
 7    1  0.6253338E-006  0.1151581E+03  0.7818608E-02  0.1353644E+00
          2   -1    0    0  502    0  0.00000000000E+00  0.00000000000E+00  0.17166901762E+03  0.17166901762E+03  0.00000000000E+00 0. -1.
          1   -1    0    0  501    0 -0.00000000000E+00 -0.00000000000E+00 -0.48218683010E+03  0.48218683010E+03  0.00000000000E+00 0. -1.
         25    2    1    2    0    0  0.80473165991E+01 -0.12215527226E+03 -0.64961961174E+02  0.18662588365E+03  0.12498997641E+03 0.  0.
          2    1    1    2  501    0  0.41111086038E+02  0.18130226989E+02 -0.32456382561E+03  0.32765912687E+03  0.00000000000E+00 0. -1.
          1    1    1    2  502    0 -0.49158402637E+02  0.10402504527E+03  0.79007974305E+02  0.13957083720E+03  0.00000000000E+00 0. -1.
         22    1    3    3    0    0  0.53177643275E+02 -0.24506797144E+02 -0.51935188845E+02  0.78266906742E+02  0.00000000000E+00 0. -1.
         22    1    3    3    0    0 -0.45130326676E+02 -0.97648475120E+02 -0.13026772329E+02  0.10835897691E+03  0.00000000000E+00 0. -1.
</event>
<event>
 7    1  0.6253338E-006  0.2788663E+03  0.7818608E-02  0.1183317E+00
          2   -1    0    0  502    0  0.00000000000E+00  0.00000000000E+00  0.77985993730E+03  0.77985993730E+03  0.00000000000E+00 0. -1.
          1   -1    0    0  501    0 -0.00000000000E+00 -0.00000000000E+00 -0.11124321527E+04  0.11124321527E+04  0.00000000000E+00 0. -1.
         25    2    1    2    0    0  0.19726378451E+03 -0.18510742302E+03  0.43804306074E+02  0.30119877700E+03  0.12499650915E+03 0.  0.
          2    1    1    2  501    0 -0.69023787584E+02 -0.68807225560E+02 -0.94779099981E+03  0.95278879971E+03  0.00000000000E+00 0. -1.
          1    1    1    2  502    0 -0.12823999692E+03  0.25391464858E+03  0.57141447836E+03  0.63830451327E+03  0.00000000000E+00 0. -1.
         22    1    3    3    0    0  0.21406424926E+03 -0.18021794997E+03  0.36336617163E+02  0.28217434691E+03  0.00000000000E+00 0. -1.
         22    1    3    3    0    0 -0.16800464756E+02 -0.48894730509E+01  0.74676889104E+01  0.19024430094E+02  0.00000000000E+00 0. -1.
</event>
<event>
 7    1  0.6253338E-006  0.3944595E+02  0.7818608E-02  0.1521267E+00
          2   -1    0    0  502    0  0.00000000000E+00  0.00000000000E+00  0.18068703792E+03  0.18068703792E+03  0.00000000000E+00 0. -1.
          1   -1    0    0  501    0 -0.00000000000E+00 -0.00000000000E+00 -0.23548119695E+04  0.23548119695E+04  0.00000000000E+00 0. -1.
         25    2    1    2    0    0  0.53662412789E+00  0.52189275289E+02 -0.15839388834E+03  0.20841725350E+03  0.12500047708E+03 0.  0.
          2    1    1    2  501    0  0.27772071053E+02 -0.24671238640E+02 -0.21687417720E+04  0.21690598958E+04  0.00000000000E+00 0. -1.
          1    1    1    2  502    0 -0.28308695181E+02 -0.27518036649E+02  0.15301072871E+03  0.15802185818E+03  0.00000000000E+00 0. -1.
         22    1    3    3    0    0 -0.75254537834E+01  0.73889194159E+02 -0.33641483459E+02  0.81535237029E+02  0.00000000000E+00 0. -1.
         22    1    3    3    0    0  0.80620779113E+01 -0.21699918870E+02 -0.12475240489E+03  0.12688201647E+03  0.00000000000E+00 0. -1.
</event>
<event>
 7    1  0.6253338E-006  0.3803690E+02  0.7818608E-02  0.1547260E+00
          2   -1    0    0  502    0  0.00000000000E+00  0.00000000000E+00  0.30427153538E+03  0.30427153538E+03  0.00000000000E+00 0. -1.
          1   -1    0    0  501    0 -0.00000000000E+00 -0.00000000000E+00 -0.54813399337E+03  0.54813399337E+03  0.00000000000E+00 0. -1.
         25    2    1    2    0    0  0.56398397177E+02 -0.29225431080E+02  0.11995445132E+03  0.18452397839E+03  0.12500049274E+03 0.  0.
          2    1    1    2  501    0 -0.20008625845E+02  0.25591517248E+02 -0.51312891597E+03  0.51415615844E+03  0.00000000000E+00 0. -1.
          1    1    1    2  502    0 -0.36389771332E+02  0.36339138313E+01  0.14931200665E+03  0.15372539191E+03  0.00000000000E+00 0. -1.
         22    1    3    3    0    0 -0.27906996558E+02 -0.36977397347E+02  0.12996795577E+02  0.48114915221E+02  0.00000000000E+00 0.  1.
         22    1    3    3    0    0  0.84305393735E+02  0.77519662672E+01  0.10695765574E+03  0.13640906317E+03  0.00000000000E+00 0.  1.
</event>
<event>
 7    1  0.6253338E-006  0.7668949E+02  0.7818608E-02  0.1339529E+00
          2   -1    0    0  502    0  0.00000000000E+00  0.00000000000E+00  0.32895484787E+04  0.32895484787E+04  0.00000000000E+00 0. -1.
          1   -1    0    0  501    0 -0.00000000000E+00 -0.00000000000E+00 -0.10723498778E+03  0.10723498778E+03  0.00000000000E+00 0. -1.
         25    2    1    2    0    0 -0.95917824993E+02  0.22936739236E+02  0.79039855495E+03  0.80627717827E+03  0.12500675730E+03 0.  0.
          2    1    1    2  501    0  0.34098947852E+02 -0.68691622123E+02 -0.83801432971E+02  0.11359558690E+03  0.00000000000E+00 0. -1.
          1    1    1    2  502    0  0.61818877141E+02  0.45754882886E+02  0.24757163689E+04  0.24769107013E+04  0.00000000000E+00 0. -1.
         22    1    3    3    0    0 -0.25735731658E+02  0.11753959794E+02  0.25513026862E+02  0.38097217674E+02  0.00000000000E+00 0.  1.
         22    1    3    3    0    0 -0.70182093335E+02  0.11182779442E+02  0.76488552809E+03  0.76817996060E+03  0.00000000000E+00 0.  1.
</event>
<event>
 7    1  0.6253338E-006  0.8470235E+02  0.7818608E-02  0.1410011E+00
          2   -1    0    0  502    0  0.00000000000E+00  0.00000000000E+00  0.75791426931E+03  0.75791426931E+03  0.00000000000E+00 0. -1.
          1   -1    0    0  501    0 -0.00000000000E+00 -0.00000000000E+00 -0.11077401503E+04  0.11077401503E+04  0.00000000000E+00 0. -1.
         25    2    1    2    0    0  0.94064901549E+02  0.59467900766E+02  0.14168803375E+02  0.16795742951E+03  0.12499722482E+03 0.  0.
          2    1    1    2  501    0 -0.55640256370E+02 -0.63306647305E+02 -0.10285616573E+04  0.10320090371E+04  0.00000000000E+00 0. -1.
          1    1    1    2  502    0 -0.38424645179E+02  0.38387465385E+01  0.66456697292E+03  0.66568795305E+03  0.00000000000E+00 0. -1.
         22    1    3    3    0    0  0.10270421017E+03  0.51879346181E+02  0.53562706763E+02  0.12691960015E+03  0.00000000000E+00 0.  1.
         22    1    3    3    0    0 -0.86393086235E+01  0.75885545853E+01 -0.39393903387E+02  0.41037829356E+02  0.00000000000E+00 0.  1.
</event>
<event>
 7    1  0.8597152E-006  0.1222999E+03  0.7818608E-02  0.1301458E+00
          2   -1    0    0  502    0  0.00000000000E+00  0.00000000000E+00  0.21010603850E+04  0.21010603850E+04  0.00000000000E+00 0. -1.
          1   -1    0    0  501    0 -0.00000000000E+00 -0.00000000000E+00 -0.56977523792E+03  0.56977523792E+03  0.00000000000E+00 0. -1.
         25    2    1    2    0    0  0.58913121232E+02 -0.24252617886E+02 -0.21817047947E+03  0.25938880870E+03  0.12500100256E+03 0.  0.
          2    1    1    2  501    0  0.63811652085E+02  0.20697264123E+02 -0.32576342500E+03  0.33259902699E+03  0.00000000000E+00 0. -1.
          1    1    1    2  502    0 -0.12272477332E+03  0.35553537632E+01  0.20752190516E+04  0.20788477872E+04  0.00000000000E+00 0. -1.
         22    1    3    3    0    0  0.15339131168E+02  0.47701377624E+02 -0.47163227277E+02  0.68811920329E+02  0.00000000000E+00 0. -1.
         22    1    3    3    0    0  0.43573990065E+02 -0.71953995510E+02 -0.17100725219E+03  0.19057688838E+03  0.00000000000E+00 0. -1.
</event>
<event>
 7    1  0.6253338E-006  0.1467144E+03  0.7818608E-02  0.1271526E+00
          2   -1    0    0  502    0  0.00000000000E+00  0.00000000000E+00  0.30894789528E+04  0.30894789528E+04  0.00000000000E+00 0. -1.
          1   -1    0    0  501    0 -0.00000000000E+00 -0.00000000000E+00 -0.57790787319E+03  0.57790787319E+03  0.00000000000E+00 0. -1.
         25    2    1    2    0    0 -0.19847403958E+03 -0.88030901408E+02 -0.15236539810E+03  0.29322665427E+03  0.12500108899E+03 0.  0.
          2    1    1    2  501    0  0.72961499132E+02  0.13121713429E+02 -0.34945211009E+03  0.35722869001E+03  0.00000000000E+00 0. -1.
          1    1    1    2  502    0  0.12551254045E+03  0.74909187979E+02  0.30133885878E+04  0.30169314817E+04  0.00000000000E+00 0. -1.
         22    1    3    3    0    0 -0.16725973387E+03 -0.35309260063E+02 -0.15657215466E+03  0.23181329133E+03  0.00000000000E+00 0. -1.
         22    1    3    3    0    0 -0.31214305714E+02 -0.52721641345E+02  0.42067565675E+01  0.61413362944E+02  0.00000000000E+00 0. -1.
</event>
<event>
 7    1  0.6253338E-006  0.4166973E+02  0.7818608E-02  0.1515496E+00
          2   -1    0    0  502    0  0.00000000000E+00  0.00000000000E+00  0.96149737116E+03  0.96149737116E+03  0.00000000000E+00 0. -1.
          1   -1    0    0  501    0 -0.00000000000E+00 -0.00000000000E+00 -0.47856799674E+03  0.47856799674E+03  0.00000000000E+00 0. -1.
         25    2    1    2    0    0  0.29876571254E+02  0.67838828481E+02 -0.21815476645E+02  0.14695387416E+03  0.12499923979E+03 0.  0.
          2    1    1    2  501    0 -0.26572047834E+02 -0.31436657587E+02 -0.39273570992E+03  0.39488691421E+03  0.00000000000E+00 0. -1.
          1    1    1    2  502    0 -0.33045234193E+01 -0.36402170894E+02  0.89748056099E+03  0.89822457954E+03  0.00000000000E+00 0. -1.
         22    1    3    3    0    0 -0.12401024946E+02  0.10965293564E+02 -0.62898583010E+02  0.65040409188E+02  0.00000000000E+00 0.  1.
         22    1    3    3    0    0  0.42277596199E+02  0.56873534917E+02  0.41083106365E+02  0.81913464967E+02  0.00000000000E+00 0.  1.
</event>
<event>
 7    1  0.6253338E-006  0.3340064E+02  0.7818608E-02  0.1565243E+00
          2   -1    0    0  502    0  0.00000000000E+00  0.00000000000E+00  0.15290690174E+03  0.15290690174E+03  0.00000000000E+00 0. -1.
          1   -1    0    0  501    0 -0.00000000000E+00 -0.00000000000E+00 -0.15807940600E+03  0.15807940600E+03  0.00000000000E+00 0. -1.
         25    2    1    2    0    0 -0.20832267391E+02 -0.44555283169E+02 -0.73485323987E+01  0.13453277296E+03  0.12500363774E+03 0.  0.
          2    1    1    2  501    0 -0.97277195301E+01  0.31523117353E+02 -0.80691219214E+02  0.87174585249E+02  0.00000000000E+00 0. -1.
          1    1    1    2  502    0  0.30559986921E+02  0.13032165816E+02  0.82867247347E+02  0.89278949530E+02  0.00000000000E+00 0. -1.
         22    1    3    3    0    0  0.34181081669E+02 -0.38407992970E+02  0.37213328163E+02  0.63469300146E+02  0.00000000000E+00 0.  1.
         22    1    3    3    0    0 -0.55013349059E+02 -0.61472901990E+01 -0.44561860562E+02  0.71063472813E+02  0.00000000000E+00 0.  1.
</event>
<event>
 7    1  0.6253338E-006  0.5689385E+02  0.7818608E-02  0.1421476E+00
          2   -1    0    0  502    0  0.00000000000E+00  0.00000000000E+00  0.41607067398E+03  0.41607067398E+03  0.00000000000E+00 0. -1.
          1   -1    0    0  501    0 -0.00000000000E+00 -0.00000000000E+00 -0.97229524333E+02  0.97229524333E+02  0.00000000000E+00 0. -1.
         25    2    1    2    0    0  0.19165422671E+02 -0.23529073938E+02  0.21281204614E+03  0.24866585161E+03  0.12499923211E+03 0.  0.
          2    1    1    2  501    0 -0.57754613288E+02 -0.12229388808E+02 -0.63752761643E+02  0.86888249630E+02  0.00000000000E+00 0. -1.
          1    1    1    2  502    0  0.38589190617E+02  0.35758462746E+02  0.16978186515E+03  0.17774609707E+03  0.00000000000E+00 0. -1.
         22    1    3    3    0    0  0.32687017006E+02 -0.35874905637E+02  0.22265146268E+03  0.22787962561E+03  0.00000000000E+00 0.  1.
         22    1    3    3    0    0 -0.13521594335E+02  0.12345831700E+02 -0.98394165360E+01  0.20786226004E+02  0.00000000000E+00 0.  1.
</event>
<event>
 7    1  0.6253338E-006  0.1613233E+03  0.7818608E-02  0.1303502E+00
          2   -1    0    0  502    0  0.00000000000E+00  0.00000000000E+00  0.80263854686E+03  0.80263854686E+03  0.00000000000E+00 0. -1.
          1   -1    0    0  501    0 -0.00000000000E+00 -0.00000000000E+00 -0.83617383734E+03  0.83617383734E+03  0.00000000000E+00 0. -1.
         25    2    1    2    0    0  0.17475269401E+02  0.13600746261E+03 -0.40664839843E+03  0.44698064051E+03  0.12500143245E+03 0.  0.
          2    1    1    2  501    0 -0.25841437924E+02 -0.18521258116E+03 -0.38714079381E+03  0.42994124525E+03  0.00000000000E+00 0. -1.
          1    1    1    2  502    0  0.83661685234E+01  0.49205118546E+02  0.76025390177E+03  0.76189049844E+03  0.00000000000E+00 0. -1.
         22    1    3    3    0    0  0.48823015463E+02  0.23473766524E+02 -0.22174750539E+03  0.22826883427E+03  0.00000000000E+00 0.  1.
         22    1    3    3    0    0 -0.31347746062E+02  0.11253369609E+03 -0.18490089304E+03  0.21871180624E+03  0.00000000000E+00 0.  1.
</event>
<event>
 7    1  0.6253338E-006  0.7640099E+02  0.7818608E-02  0.1347557E+00
          2   -1    0    0  502    0  0.00000000000E+00  0.00000000000E+00  0.10383130044E+04  0.10383130044E+04  0.00000000000E+00 0. -1.
          1   -1    0    0  501    0 -0.00000000000E+00 -0.00000000000E+00 -0.55824937560E+02  0.55824937560E+02  0.00000000000E+00 0. -1.
         25    2    1    2    0    0 -0.17679988687E+02  0.46324429216E+01  0.25444266899E+03  0.28407690078E+03  0.12499828888E+03 0.  0.
          2    1    1    2  501    0 -0.66555594048E+02 -0.25659609221E+02 -0.53626947616E+01  0.71531958868E+02  0.00000000000E+00 0. -1.
          1    1    1    2  502    0  0.84235582735E+02  0.21027166300E+02  0.73340809266E+03  0.73852908236E+03  0.00000000000E+00 0. -1.
         22    1    3    3    0    0 -0.10982289620E+01  0.66641954197E+01  0.26449414338E+03  0.26458036490E+03  0.00000000000E+00 0.  1.
         22    1    3    3    0    0 -0.16581759725E+02 -0.20317524981E+01 -0.10051474389E+02  0.19496535877E+02  0.00000000000E+00 0.  1.
</event>
<event>
 7    1  0.6253338E-006  0.2618057E+03  0.7818608E-02  0.1165475E+00
          2   -1    0    0  502    0  0.00000000000E+00  0.00000000000E+00  0.20192359808E+04  0.20192359808E+04  0.00000000000E+00 0. -1.
          1   -1    0    0  501    0 -0.00000000000E+00 -0.00000000000E+00 -0.68735212977E+03  0.68735212977E+03  0.00000000000E+00 0. -1.
         25    2    1    2    0    0 -0.15361207753E+03 -0.20500947434E+03  0.29258241255E+03  0.40848102860E+03  0.12500691047E+03 0.  0.
          2    1    1    2  501    0  0.23981825049E+03  0.11159216768E+03 -0.59904127194E+03  0.65484047724E+03  0.00000000000E+00 0. -1.
          1    1    1    2  502    0 -0.86206172962E+02  0.93417306661E+02  0.16383427104E+04  0.16432666047E+04  0.00000000000E+00 0. -1.
         22    1    3    3    0    0  0.69299553495E+01 -0.67997637376E+02  0.10949178216E+03  0.12907421637E+03  0.00000000000E+00 0. -1.
         22    1    3    3    0    0 -0.16054203288E+03 -0.13701183696E+03  0.18309063039E+03  0.27940681224E+03  0.00000000000E+00 0. -1.
</event>
<event>
 7    1  0.6253338E-006  0.2879521E+03  0.7818608E-02  0.1209587E+00
          2   -1    0    0  502    0  0.00000000000E+00  0.00000000000E+00  0.26361297478E+04  0.26361297478E+04  0.00000000000E+00 0. -1.
          1   -1    0    0  501    0 -0.00000000000E+00 -0.00000000000E+00 -0.45367295961E+03  0.45367295961E+03  0.00000000000E+00 0. -1.
         25    2    1    2    0    0 -0.22735440560E+03 -0.27494269050E+03 -0.28685994638E+03  0.47454918173E+03  0.12499915293E+03 0.  0.
          2    1    1    2  501    0  0.50946214884E+02  0.49213427790E+02 -0.45488752660E+02  0.84182568887E+02  0.00000000000E+00 0. -1.
          1    1    1    2  502    0  0.17640819072E+03  0.22572926271E+03  0.25148054872E+04  0.25310709568E+04  0.00000000000E+00 0. -1.
         22    1    3    3    0    0 -0.14552363458E+03 -0.20933737245E+03 -0.26438523524E+03  0.36728574209E+03  0.00000000000E+00 0. -1.
         22    1    3    3    0    0 -0.81830771023E+02 -0.65605318053E+02 -0.22474711136E+02  0.10726343964E+03  0.00000000000E+00 0. -1.
</event>
<event>
 7    1  0.6253338E-006  0.8183474E+02  0.7818608E-02  0.1368515E+00
          2   -1    0    0  502    0  0.00000000000E+00  0.00000000000E+00  0.16873035023E+04  0.16873035023E+04  0.00000000000E+00 0. -1.
          1   -1    0    0  501    0 -0.00000000000E+00 -0.00000000000E+00 -0.82222859432E+02  0.82222859432E+02  0.00000000000E+00 0. -1.
         25    2    1    2    0    0  0.91450415586E+02 -0.67129850002E+02  0.38402525325E+03  0.41948748881E+03  0.12499905143E+03 0.  0.
          2    1    1    2  501    0 -0.79581299528E+02  0.12595140366E+02 -0.38464982546E+02  0.89282560882E+02  0.00000000000E+00 0. -1.
          1    1    1    2  502    0 -0.11869116058E+02  0.54534709635E+02  0.12595203721E+04  0.12607563120E+04  0.00000000000E+00 0. -1.
         22    1    3    3    0    0  0.79647426893E+02 -0.60064193291E+02  0.12421578054E+03  0.15931409248E+03  0.00000000000E+00 0.  1.
         22    1    3    3    0    0  0.11802988692E+02 -0.70656567104E+01  0.25980947271E+03  0.26017339633E+03  0.00000000000E+00 0.  1.
</event>
<event>
 7    1  0.6253338E-006  0.4880167E+02  0.7818608E-02  0.1481626E+00
          2   -1    0    0  502    0  0.00000000000E+00  0.00000000000E+00  0.60458851211E+03  0.60458851211E+03  0.00000000000E+00 0. -1.
          1   -1    0    0  501    0 -0.00000000000E+00 -0.00000000000E+00 -0.12561944364E+03  0.12561944364E+03  0.00000000000E+00 0. -1.
         25    2    1    2    0    0  0.28163565878E+02 -0.15821002100E+01  0.67967325393E+02  0.14505396694E+03  0.12500162607E+03 0.  0.
          2    1    1    2  501    0  0.16066901767E+00 -0.39407421565E+02 -0.81294724084E+02  0.90342696732E+02  0.00000000000E+00 0. -1.
          1    1    1    2  502    0 -0.28324234896E+02  0.40989521775E+02  0.49229646716E+03  0.49481129207E+03  0.00000000000E+00 0. -1.
         22    1    3    3    0    0  0.33925317733E+02 -0.59084036605E+02  0.50087719209E+02  0.84561398879E+02  0.00000000000E+00 0.  1.
         22    1    3    3    0    0 -0.57617518547E+01  0.57501936395E+02  0.17879606184E+02  0.60492568064E+02  0.00000000000E+00 0.  1.
</event>
<event>
 7    1  0.6253338E-006  0.6503611E+02  0.7818608E-02  0.1483221E+00
          2   -1    0    0  502    0  0.00000000000E+00  0.00000000000E+00  0.25630104198E+04  0.25630104198E+04  0.00000000000E+00 0. -1.
          1   -1    0    0  501    0 -0.00000000000E+00 -0.00000000000E+00 -0.21911035712E+03  0.21911035712E+03  0.00000000000E+00 0. -1.
         25    2    1    2    0    0  0.60033081571E+02 -0.33067369318E+02  0.29139714806E+03  0.32439896703E+03  0.12499988045E+03 0.  0.
          2    1    1    2  501    0  0.49439545004E+01  0.28819634907E+02 -0.20108172043E+03  0.20319663465E+03  0.00000000000E+00 0. -1.
          1    1    1    2  502    0 -0.64977036071E+02  0.42477344117E+01  0.22535846351E+04  0.22545251753E+04  0.00000000000E+00 0. -1.
         22    1    3    3    0    0  0.56618349708E+02 -0.65739383236E+02  0.27362342106E+03  0.28704891671E+03  0.00000000000E+00 0.  1.
         22    1    3    3    0    0  0.34147318630E+01  0.32672013918E+02  0.17773727000E+02  0.37350050316E+02  0.00000000000E+00 0.  1.
</event>
<event>
 7    1  0.6253338E-006  0.4476649E+02  0.7818608E-02  0.1487177E+00
          2   -1    0    0  502    0  0.00000000000E+00  0.00000000000E+00  0.11468253250E+04  0.11468253250E+04  0.00000000000E+00 0. -1.
          1   -1    0    0  501    0 -0.00000000000E+00 -0.00000000000E+00 -0.10684542845E+03  0.10684542845E+03  0.00000000000E+00 0. -1.
         25    2    1    2    0    0 -0.24914628365E+02  0.34746117487E+02  0.22493493160E+02  0.13401998008E+03  0.12500946540E+03 0.  0.
          2    1    1    2  501    0 -0.15151406896E+02 -0.44839351027E+02 -0.39627926675E+02  0.61729288867E+02  0.00000000000E+00 0. -1.
          1    1    1    2  502    0  0.40066035261E+02  0.10093233540E+02  0.10571143300E+04  0.10579214845E+04  0.00000000000E+00 0. -1.
         22    1    3    3    0    0  0.19924181460E+02 -0.19722820309E+02  0.50784104208E+02  0.58008515651E+02  0.00000000000E+00 0.  1.
         22    1    3    3    0    0 -0.44838809825E+02  0.54468937795E+02 -0.28290611048E+02  0.76011464429E+02  0.00000000000E+00 0.  1.
</event>
<event>
 7    1  0.6253338E-006  0.2074206E+03  0.7818608E-02  0.1291071E+00
          2   -1    0    0  502    0  0.00000000000E+00  0.00000000000E+00  0.32998918480E+03  0.32998918480E+03  0.00000000000E+00 0. -1.
          1   -1    0    0  501    0 -0.00000000000E+00 -0.00000000000E+00 -0.52336725461E+03  0.52336725461E+03  0.00000000000E+00 0. -1.
         25    2    1    2    0    0  0.17189578591E+03 -0.16521433061E+03 -0.12920778501E+03  0.29860220071E+03  0.12499874522E+03 0.  0.
          2    1    1    2  501    0 -0.14749995261E+03  0.12913482488E+03 -0.27597514400E+03  0.33851782689E+03  0.00000000000E+00 0. -1.
          1    1    1    2  502    0 -0.24395833301E+02  0.36079505730E+02  0.21180485920E+03  0.21623641182E+03  0.00000000000E+00 0. -1.
         22    1    3    3    0    0  0.10656110843E+03 -0.38611879191E+02 -0.10419366831E+03  0.15395605723E+03  0.00000000000E+00 0.  1.
         22    1    3    3    0    0  0.65334677485E+02 -0.12660245142E+03 -0.25014116701E+02  0.14464614347E+03  0.00000000000E+00 0.  1.
</event>
<event>
 7    1  0.6253338E-006  0.1667160E+03  0.7818608E-02  0.1212156E+00
          2   -1    0    0  502    0  0.00000000000E+00  0.00000000000E+00  0.78754331775E+03  0.78754331775E+03  0.00000000000E+00 0. -1.
          1   -1    0    0  501    0 -0.00000000000E+00 -0.00000000000E+00 -0.37746687296E+03  0.37746687296E+03  0.00000000000E+00 0. -1.
         25    2    1    2    0    0  0.11858046080E+03  0.18457674325E+03  0.73093825100E+02  0.26286437943E+03  0.12500029950E+03 0.  0.
          2    1    1    2  501    0 -0.11724958167E+03 -0.20568389163E+02 -0.25844477981E+03  0.28454213615E+03  0.00000000000E+00 0. -1.
          1    1    1    2  502    0 -0.13308791328E+01 -0.16400835408E+03  0.59542739950E+03  0.61760367512E+03  0.00000000000E+00 0. -1.
         22    1    3    3    0    0  0.11933017831E+03  0.14689530692E+03  0.10234437577E+03  0.21515644053E+03  0.00000000000E+00 0. -1.
         22    1    3    3    0    0 -0.74971750456E+00  0.37681436326E+02 -0.29250550667E+02  0.47707938902E+02  0.00000000000E+00 0. -1.
</event>
<event>
 7    1  0.6253338E-006  0.1065819E+03  0.7818608E-02  0.1389578E+00
          2   -1    0    0  502    0  0.00000000000E+00  0.00000000000E+00  0.12906152564E+04  0.12906152564E+04  0.00000000000E+00 0. -1.
          1   -1    0    0  501    0 -0.00000000000E+00 -0.00000000000E+00 -0.19425138218E+04  0.19425138218E+04  0.00000000000E+00 0. -1.
         25    2    1    2    0    0  0.83680051739E+02  0.57203925669E+02 -0.13084897764E+04  0.13183493701E+04  0.12499970642E+03 0.  0.
          2    1    1    2  501    0 -0.11009056058E+03 -0.32622777056E+02 -0.62359862254E+03  0.63408155560E+03  0.00000000000E+00 0. -1.
          1    1    1    2  502    0  0.26410508838E+02 -0.24581148612E+02  0.12801898336E+04  0.12806981525E+04  0.00000000000E+00 0. -1.
         22    1    3    3    0    0  0.51864717354E+02  0.93440878786E+02 -0.10479028494E+04  0.10533382783E+04  0.00000000000E+00 0.  1.
         22    1    3    3    0    0  0.31815334385E+02 -0.36236953117E+02 -0.26058692703E+03  0.26501109186E+03  0.00000000000E+00 0.  1.
</event>
<event>
 7    1  0.6253338E-006  0.7962565E+02  0.7818608E-02  0.1384987E+00
          2   -1    0    0  502    0  0.00000000000E+00  0.00000000000E+00  0.11224512763E+04  0.11224512763E+04  0.00000000000E+00 0. -1.
          1   -1    0    0  501    0 -0.00000000000E+00 -0.00000000000E+00 -0.40581422788E+03  0.40581422788E+03  0.00000000000E+00 0. -1.
         25    2    1    2    0    0 -0.32870585226E+02 -0.49778842716E+02  0.96278952387E+02  0.16867999186E+03  0.12499957770E+03 0.  0.
          2    1    1    2  501    0  0.39321656090E+02 -0.31072250283E+02 -0.36624301430E+03  0.36965608733E+03  0.00000000000E+00 0. -1.
          1    1    1    2  502    0 -0.64510708636E+01  0.80851092999E+02  0.98660111030E+03  0.98992942496E+03  0.00000000000E+00 0. -1.
         22    1    3    3    0    0  0.24504382199E+02  0.28320920986E+02  0.95986329738E+01  0.38661001893E+02  0.00000000000E+00 0. -1.
         22    1    3    3    0    0 -0.57374967425E+02 -0.78099763702E+02  0.86680319413E+02  0.13001898996E+03  0.00000000000E+00 0. -1.
</event>
<event>
 7    1  0.1110580E-005  0.6052857E+02  0.7818608E-02  0.1445227E+00
          2   -1    0    0  502    0  0.00000000000E+00  0.00000000000E+00  0.25856994670E+04  0.25856994670E+04  0.00000000000E+00 0. -1.
          1   -1    0    0  501    0 -0.00000000000E+00 -0.00000000000E+00 -0.16959510775E+04  0.16959510775E+04  0.00000000000E+00 0. -1.
         25    2    1    2    0    0  0.66958077406E+02 -0.55790120379E+02 -0.13850753782E+03  0.20592628563E+03  0.12500150168E+03 0.  0.
          2    1    1    2  501    0 -0.58198630150E+02  0.15391005885E+02 -0.15229720752E+04  0.15241613777E+04  0.00000000000E+00 0. -1.
          1    1    1    2  502    0 -0.87594472562E+01  0.40399114494E+02  0.25512280025E+04  0.25515628812E+04  0.00000000000E+00 0. -1.
         22    1    3    3    0    0  0.97286011514E+02 -0.12157797022E+02 -0.77149267668E+02  0.12475732270E+03  0.00000000000E+00 0. -1.
         22    1    3    3    0    0 -0.30327934109E+02 -0.43632323357E+02 -0.61358270148E+02  0.81168962938E+02  0.00000000000E+00 0. -1.
</event>
<event>
 7    1  0.6253338E-006  0.1511199E+03  0.7818608E-02  0.1300404E+00
          2   -1    0    0  502    0  0.00000000000E+00  0.00000000000E+00  0.64214671315E+03  0.64214671315E+03  0.00000000000E+00 0. -1.
          1   -1    0    0  501    0 -0.00000000000E+00 -0.00000000000E+00 -0.15205018128E+04  0.15205018128E+04  0.00000000000E+00 0. -1.
         25    2    1    2    0    0  0.11180264103E+03 -0.11243717032E+02  0.14114209694E+00  0.16809714879E+03  0.12502151733E+03 0.  0.
          2    1    1    2  501    0 -0.15075049220E+03 -0.27334076626E+02 -0.14310786591E+04  0.14392564022E+04  0.00000000000E+00 0. -1.
          1    1    1    2  502    0  0.38947851174E+02  0.38577793658E+02  0.55258241736E+03  0.55529497499E+03  0.00000000000E+00 0. -1.
         22    1    3    3    0    0  0.13653448279E+03 -0.25033282191E+02  0.69125050538E+01  0.13898241952E+03  0.00000000000E+00 0.  1.
         22    1    3    3    0    0 -0.24731841764E+02  0.13789565158E+02 -0.67713629569E+01  0.29114729272E+02  0.00000000000E+00 0.  1.
</event>
<event>
 7    1  0.6253338E-006  0.2737815E+02  0.7818608E-02  0.1632361E+00
          2   -1    0    0  502    0  0.00000000000E+00  0.00000000000E+00  0.14751052367E+03  0.14751052367E+03  0.00000000000E+00 0. -1.
          1   -1    0    0  501    0 -0.00000000000E+00 -0.00000000000E+00 -0.19542030939E+03  0.19542030939E+03  0.00000000000E+00 0. -1.
         25    2    1    2    0    0  0.25129899592E+02 -0.44451055961E+01  0.23385877208E+02  0.12970196098E+03  0.12499771443E+03 0.  0.
          2    1    1    2  501    0 -0.92000967408E+01  0.26064045445E+02 -0.13830449697E+03  0.14103939211E+03  0.00000000000E+00 0. -1.
          1    1    1    2  502    0 -0.15929802851E+02 -0.21618939849E+02  0.67008834037E+02  0.72189479968E+02  0.00000000000E+00 0. -1.
         22    1    3    3    0    0  0.42916349539E+02  0.21219718232E+02 -0.37806198195E+02  0.61003263204E+02  0.00000000000E+00 0. -1.
         22    1    3    3    0    0 -0.17786449947E+02 -0.25664823828E+02  0.61192075403E+02  0.68698697775E+02  0.00000000000E+00 0. -1.
</event>
<event>
 7    1  0.6253338E-006  0.5640794E+02  0.7818608E-02  0.1414884E+00
          2   -1    0    0  502    0  0.00000000000E+00  0.00000000000E+00  0.92313748702E+02  0.92313748702E+02  0.00000000000E+00 0. -1.
          1   -1    0    0  501    0 -0.00000000000E+00 -0.00000000000E+00 -0.25781318083E+04  0.25781318083E+04  0.00000000000E+00 0. -1.
         25    2    1    2    0    0 -0.47723237246E+02 -0.25486348571E+02 -0.12616560621E+04  0.12689871891E+04  0.12500162264E+03 0.  0.
          2    1    1    2  501    0  0.52152574192E+02 -0.30747424092E+02 -0.13030623732E+04  0.13044680309E+04  0.00000000000E+00 0. -1.
          1    1    1    2  502    0 -0.44293369469E+01  0.56233772663E+02  0.78900375660E+02  0.96990337111E+02  0.00000000000E+00 0. -1.
         22    1    3    3    0    0 -0.59973475051E+02 -0.41362505046E+02 -0.12253289477E+04  0.12274928532E+04  0.00000000000E+00 0. -1.
         22    1    3    3    0    0  0.12250237806E+02  0.15876156475E+02 -0.36327114397E+02  0.41494335892E+02  0.00000000000E+00 0. -1.
</event>
<event>
 7    1  0.6253338E-006  0.6948305E+02  0.7818608E-02  0.1365769E+00
          2   -1    0    0  502    0  0.00000000000E+00  0.00000000000E+00  0.11282147284E+04  0.11282147284E+04  0.00000000000E+00 0. -1.
          1   -1    0    0  501    0 -0.00000000000E+00 -0.00000000000E+00 -0.13520206669E+03  0.13520206669E+03  0.00000000000E+00 0. -1.
         25    2    1    2    0    0 -0.66462783850E+02 -0.69486238950E+02  0.48215103288E+02  0.16490069929E+03  0.12498762099E+03 0.  0.
          2    1    1    2  501    0 -0.29841547398E+01  0.67183929304E+02 -0.60716547285E+02  0.90603999086E+02  0.00000000000E+00 0. -1.
          1    1    1    2  502    0  0.69446938590E+02  0.23023096461E+01  0.10055141057E+04  0.10079120967E+04  0.00000000000E+00 0. -1.
         22    1    3    3    0    0  0.30046649864E+02 -0.40701621630E+02  0.38789684395E+02  0.63750002250E+02  0.00000000000E+00 0. -1.
         22    1    3    3    0    0 -0.96509433715E+02 -0.28784617321E+02  0.94254188927E+01  0.10115069704E+03  0.00000000000E+00 0. -1.
</event>
<event>
 7    1  0.6253338E-006  0.5921840E+02  0.7818608E-02  0.1491109E+00
          2   -1    0    0  502    0  0.00000000000E+00  0.00000000000E+00  0.17334474686E+04  0.17334474686E+04  0.00000000000E+00 0. -1.
          1   -1    0    0  501    0 -0.00000000000E+00 -0.00000000000E+00 -0.81318855769E+03  0.81318855769E+03  0.00000000000E+00 0. -1.
         25    2    1    2    0    0 -0.80674802663E+01  0.78869713861E+02 -0.18138815316E+02  0.14913908715E+03  0.12501173822E+03 0.  0.
          2    1    1    2  501    0  0.21645851875E+02 -0.21330263412E+02 -0.72870893771E+03  0.72934233316E+03  0.00000000000E+00 0. -1.
          1    1    1    2  502    0 -0.13578371609E+02 -0.57539450448E+02  0.16671066639E+04  0.16681546060E+04  0.00000000000E+00 0. -1.
         22    1    3    3    0    0  0.55915214763E+02  0.33140513122E+02 -0.26204892305E+02  0.70082103513E+02  0.00000000000E+00 0. -1.
         22    1    3    3    0    0 -0.63982695030E+02  0.45729200739E+02  0.80660769889E+01  0.79056983635E+02  0.00000000000E+00 0. -1.
</event>
<event>
 7    1  0.6253338E-006  0.6581832E+02  0.7818608E-02  0.1430504E+00
          2   -1    0    0  502    0  0.00000000000E+00  0.00000000000E+00  0.23233399298E+04  0.23233399298E+04  0.00000000000E+00 0. -1.
          1   -1    0    0  501    0 -0.00000000000E+00 -0.00000000000E+00 -0.81264551378E+02  0.81264551378E+02  0.00000000000E+00 0. -1.
         25    2    1    2    0    0  0.32112451304E+02 -0.12620309624E+02  0.38217888156E+03  0.40357924754E+03  0.12500011917E+03 0.  0.
          2    1    1    2  501    0  0.34691069561E+02  0.24466912969E+02 -0.63527090305E+02  0.76405440514E+02  0.00000000000E+00 0. -1.
          1    1    1    2  502    0 -0.66803520865E+02 -0.11846603345E+02  0.19234235872E+04  0.19246197932E+04  0.00000000000E+00 0. -1.
         22    1    3    3    0    0  0.68462477841E+02  0.23229041370E+02  0.28227559258E+03  0.29138670079E+03  0.00000000000E+00 0.  1.
         22    1    3    3    0    0 -0.36350026537E+02 -0.35849350994E+02  0.99903288978E+02  0.11219254674E+03  0.00000000000E+00 0.  1.
</event>
<event>
 7    1  0.6253338E-006  0.5406874E+02  0.7818608E-02  0.1461419E+00
          2   -1    0    0  502    0  0.00000000000E+00  0.00000000000E+00  0.85111163273E+03  0.85111163273E+03  0.00000000000E+00 0. -1.
          1   -1    0    0  501    0 -0.00000000000E+00 -0.00000000000E+00 -0.39531843912E+03  0.39531843912E+03  0.00000000000E+00 0. -1.
         25    2    1    2    0    0  0.40922535621E+01  0.40912492607E+02  0.10912768967E+03  0.17095409179E+03  0.12500348098E+03 0.  0.
          2    1    1    2  501    0 -0.44175392664E+02 -0.31845369581E+02 -0.36177188072E+03  0.36584762751E+03  0.00000000000E+00 0. -1.
          1    1    1    2  502    0  0.40083139102E+02 -0.90671230263E+01  0.70843738465E+03  0.70962835254E+03  0.00000000000E+00 0. -1.
         22    1    3    3    0    0 -0.26878973409E+01  0.19713520374E+02 -0.26709647021E+02  0.33305448828E+02  0.00000000000E+00 0.  1.
         22    1    3    3    0    0  0.67801509030E+01  0.21198972234E+02  0.13583733669E+03  0.13764864297E+03  0.00000000000E+00 0.  1.
</event>
<event>
 7    1  0.6253338E-006  0.7725409E+02  0.7818608E-02  0.1456629E+00
          2   -1    0    0  502    0  0.00000000000E+00  0.00000000000E+00  0.21352025323E+04  0.21352025323E+04  0.00000000000E+00 0. -1.
          1   -1    0    0  501    0 -0.00000000000E+00 -0.00000000000E+00 -0.21897580527E+03  0.21897580527E+03  0.00000000000E+00 0. -1.
         25    2    1    2    0    0  0.63990129013E+01 -0.90183945842E+02  0.93534648645E+03  0.94798111803E+03  0.12498423484E+03 0.  0.
          2    1    1    2  501    0 -0.29465476007E+02  0.71345021380E+02 -0.20546087421E+03  0.21948233911E+03  0.00000000000E+00 0. -1.
          1    1    1    2  502    0  0.23066463106E+02  0.18838924462E+02  0.11863411147E+04  0.11867148804E+04  0.00000000000E+00 0. -1.
         22    1    3    3    0    0  0.19041231174E+02 -0.86873594655E+02  0.31018381304E+03  0.32268186780E+03  0.00000000000E+00 0. -1.
         22    1    3    3    0    0 -0.12642218272E+02 -0.33103511875E+01  0.62516267341E+03  0.62529925022E+03  0.00000000000E+00 0. -1.
</event>
<event>
 7    1  0.6253338E-006  0.1115831E+03  0.7818608E-02  0.1279112E+00
          2   -1    0    0  502    0  0.00000000000E+00  0.00000000000E+00  0.28011033261E+04  0.28011033261E+04  0.00000000000E+00 0. -1.
          1   -1    0    0  501    0 -0.00000000000E+00 -0.00000000000E+00 -0.31930410843E+04  0.31930410843E+04  0.00000000000E+00 0. -1.
         25    2    1    2    0    0  0.18011192740E+02 -0.99374148907E+02  0.45318008301E+03  0.48082884477E+03  0.12499826313E+03 0.  0.
          2    1    1    2  501    0 -0.90229485941E+02  0.85654643049E+01 -0.31771281881E+04  0.31784207164E+04  0.00000000000E+00 0. -1.
          1    1    1    2  502    0  0.72218293201E+02  0.90808684602E+02  0.23320103468E+04  0.23348948492E+04  0.00000000000E+00 0. -1.
         22    1    3    3    0    0  0.71863034829E+02 -0.60255888235E+02  0.24910677945E+03  0.26617523440E+03  0.00000000000E+00 0.  1.
         22    1    3    3    0    0 -0.53851842089E+02 -0.39118260671E+02  0.20407330357E+03  0.21465361037E+03  0.00000000000E+00 0.  1.
</event>
<event>
 7    1  0.6253338E-006  0.4636942E+02  0.7818608E-02  0.1478838E+00
          2   -1    0    0  502    0  0.00000000000E+00  0.00000000000E+00  0.13906326567E+04  0.13906326567E+04  0.00000000000E+00 0. -1.
          1   -1    0    0  501    0 -0.00000000000E+00 -0.00000000000E+00 -0.29786298003E+03  0.29786298003E+03  0.00000000000E+00 0. -1.
         25    2    1    2    0    0 -0.34363477056E+02 -0.28267971987E+02  0.36994605896E+03  0.39302130521E+03  0.12500293202E+03 0.  0.
          2    1    1    2  501    0  0.44689791761E+02 -0.12751596484E+02 -0.28399256738E+03  0.28776997589E+03  0.00000000000E+00 0. -1.
          1    1    1    2  502    0 -0.10326314704E+02  0.41019568471E+02  0.10068161851E+04  0.10077043557E+04  0.00000000000E+00 0. -1.
         22    1    3    3    0    0 -0.80685326531E+02 -0.54647808197E+01  0.23581645417E+03  0.24929778540E+03  0.00000000000E+00 0. -1.
         22    1    3    3    0    0  0.46321849475E+02 -0.22803191168E+02  0.13412960478E+03  0.14372351981E+03  0.00000000000E+00 0. -1.
</event>
<event>
 7    1  0.6253338E-006  0.1035834E+03  0.7818608E-02  0.1411449E+00
          2   -1    0    0  502    0  0.00000000000E+00  0.00000000000E+00  0.14832718878E+04  0.14832718878E+04  0.00000000000E+00 0. -1.
          1   -1    0    0  501    0 -0.00000000000E+00 -0.00000000000E+00 -0.49724380168E+02  0.49724380168E+02  0.00000000000E+00 0. -1.
         25    2    1    2    0    0 -0.11959344384E+02  0.75973792660E+02  0.13620666685E+03  0.20023024664E+03  0.12499940995E+03 0.  0.
          2    1    1    2  501    0  0.10436785740E+02  0.29429107599E+02  0.75727280864E-01  0.31225063735E+02  0.00000000000E+00 0. -1.
          1    1    1    2  502    0  0.15225586435E+01 -0.10540290026E+03  0.12972651135E+04  0.13015409576E+04  0.00000000000E+00 0. -1.
         22    1    3    3    0    0 -0.61940889907E+02  0.47315487764E+02  0.11481416193E+03  0.13877219104E+03  0.00000000000E+00 0. -1.
         22    1    3    3    0    0  0.49981545523E+02  0.28658304896E+02  0.21392504914E+02  0.61458055606E+02  0.00000000000E+00 0. -1.
</event>
<event>
 7    1  0.6253338E-006  0.1412733E+03  0.7818608E-02  0.1272508E+00
          2   -1    0    0  502    0  0.00000000000E+00  0.00000000000E+00  0.94548989086E+03  0.94548989086E+03  0.00000000000E+00 0. -1.
          1   -1    0    0  501    0 -0.00000000000E+00 -0.00000000000E+00 -0.13087752408E+03  0.13087752408E+03  0.00000000000E+00 0. -1.
         25    2    1    2    0    0 -0.74858384132E+02 -0.35425420236E+02  0.16108672881E+03  0.22007255742E+03  0.12499703299E+03 0.  0.
          2    1    1    2  501    0 -0.60307954830E+02 -0.46678783724E+02 -0.77279857762E+02  0.10857317662E+03  0.00000000000E+00 0. -1.
          1    1    1    2  502    0  0.13516633896E+03  0.82104203959E+02  0.73080549573E+03  0.74772168090E+03  0.00000000000E+00 0. -1.
         22    1    3    3    0    0 -0.22943166484E+02 -0.27656621401E+01 -0.18943449333E+02  0.29881299303E+02  0.00000000000E+00 0.  1.
         22    1    3    3    0    0 -0.51915217648E+02 -0.32659758096E+02  0.18003017815E+03  0.19019125812E+03  0.00000000000E+00 0.  1.
</event>
<event>
 7    1  0.6253338E-006  0.1291005E+03  0.7818608E-02  0.1279273E+00
          2   -1    0    0  502    0  0.00000000000E+00  0.00000000000E+00  0.40239838983E+04  0.40239838983E+04  0.00000000000E+00 0. -1.
          1   -1    0    0  501    0 -0.00000000000E+00 -0.00000000000E+00 -0.82211486780E+02  0.82211486780E+02  0.00000000000E+00 0. -1.
         25    2    1    2    0    0 -0.60259184857E+02  0.33858977216E+02  0.14042559108E+04  0.14115017894E+04  0.12500015556E+03 0.  0.
          2    1    1    2  501    0  0.70402860423E+02 -0.11141506924E+03 -0.22312227068E+02  0.13367017576E+03  0.00000000000E+00 0. -1.
          1    1    1    2  502    0 -0.10143675566E+02  0.77556092026E+02  0.25598287278E+04  0.25610234199E+04  0.00000000000E+00 0. -1.
         22    1    3    3    0    0 -0.40050660833E+02 -0.45683346482E+02  0.60738524925E+03  0.61041614050E+03  0.00000000000E+00 0.  1.
         22    1    3    3    0    0 -0.20208524024E+02  0.79542323699E+02  0.79687066152E+03  0.80108564892E+03  0.00000000000E+00 0.  1.
</event>
<event>
 7    1  0.6253338E-006  0.5314194E+02  0.7818608E-02  0.1469532E+00
          2   -1    0    0  502    0  0.00000000000E+00  0.00000000000E+00  0.14635220784E+04  0.14635220784E+04  0.00000000000E+00 0. -1.
          1   -1    0    0  501    0 -0.00000000000E+00 -0.00000000000E+00 -0.26845314073E+03  0.26845314073E+03  0.00000000000E+00 0. -1.
         25    2    1    2    0    0 -0.85351363811E+01 -0.91521678062E+02  0.75786192483E+03  0.77358202508E+03  0.12500154520E+03 0.  0.
          2    1    1    2  501    0  0.56507796838E-01  0.53006474695E+02 -0.25733243246E+03  0.26273498120E+03  0.00000000000E+00 0. -1.
          1    1    1    2  502    0  0.84786285842E+01  0.38515203367E+02  0.69453944525E+03  0.69565821280E+03  0.00000000000E+00 0. -1.
         22    1    3    3    0    0  0.36376696304E+02 -0.10105188243E+03  0.47266825746E+03  0.48471644142E+03  0.00000000000E+00 0. -1.
         22    1    3    3    0    0 -0.44911832685E+02  0.95302043636E+01  0.28519366738E+03  0.28886558366E+03  0.00000000000E+00 0. -1.
</event>
<event>
 7    1  0.6253338E-006  0.6619281E+02  0.7818608E-02  0.1451369E+00
          2   -1    0    0  502    0  0.00000000000E+00  0.00000000000E+00  0.14392646174E+04  0.14392646174E+04  0.00000000000E+00 0. -1.
          1   -1    0    0  501    0 -0.00000000000E+00 -0.00000000000E+00 -0.74850460519E+03  0.74850460519E+03  0.00000000000E+00 0. -1.
         25    2    1    2    0    0 -0.26764481601E+02 -0.14746817550E+02  0.53143506897E+01  0.12879243421E+03  0.12500177072E+03 0.  0.
          2    1    1    2  501    0 -0.32498483723E+02 -0.15773825569E+02 -0.68548011086E+03  0.68643131296E+03  0.00000000000E+00 0. -1.
          1    1    1    2  502    0  0.59262965323E+02  0.30520643119E+02  0.13709257724E+04  0.13725454755E+04  0.00000000000E+00 0. -1.
         22    1    3    3    0    0  0.89542557098E+01 -0.42534147009E+02 -0.44007829441E+02  0.61854841438E+02  0.00000000000E+00 0.  1.
         22    1    3    3    0    0 -0.35718737310E+02  0.27787329459E+02  0.49322180131E+02  0.66937592774E+02  0.00000000000E+00 0.  1.
</event>
<event>
 7    1  0.6253338E-006  0.7603605E+02  0.7818608E-02  0.1473937E+00
          2   -1    0    0  502    0  0.00000000000E+00  0.00000000000E+00  0.82426941848E+02  0.82426941848E+02  0.00000000000E+00 0. -1.
          1   -1    0    0  501    0 -0.00000000000E+00 -0.00000000000E+00 -0.23564021277E+04  0.23564021277E+04  0.00000000000E+00 0. -1.
         25    2    1    2    0    0  0.94652081205E+02 -0.37536194451E+02 -0.54735589394E+03  0.57060590861E+03  0.12499858374E+03 0.  0.
          2    1    1    2  501    0 -0.24742895472E+02  0.10057693940E+02 -0.17773695672E+04  0.17775702367E+04  0.00000000000E+00 0. -1.
          1    1    1    2  502    0 -0.69909185733E+02  0.27478500511E+02  0.50750275240E+02  0.90652924261E+02  0.00000000000E+00 0. -1.
         22    1    3    3    0    0  0.20757005120E+01 -0.62862197834E+02 -0.26581862576E+03  0.27315839041E+03  0.00000000000E+00 0.  1.
         22    1    3    3    0    0  0.92576380693E+02  0.25326003382E+02 -0.28153726818E+03  0.29744751820E+03  0.00000000000E+00 0.  1.
</event>
<event>
 7    1  0.6253338E-006  0.6310862E+02  0.7818608E-02  0.1530881E+00
          2   -1    0    0  502    0  0.00000000000E+00  0.00000000000E+00  0.19875000891E+04  0.19875000891E+04  0.00000000000E+00 0. -1.
          1   -1    0    0  501    0 -0.00000000000E+00 -0.00000000000E+00 -0.10647089640E+03  0.10647089640E+03  0.00000000000E+00 0. -1.
         25    2    1    2    0    0 -0.34970432575E+02  0.43891934438E+02  0.24735300996E+01  0.13704207596E+03  0.12499991668E+03 0.  0.
          2    1    1    2  501    0  0.14795921476E+02  0.15989553755E+02 -0.35596732664E+02  0.41733829179E+02  0.00000000000E+00 0. -1.
          1    1    1    2  502    0  0.20174511100E+02 -0.59881488193E+02  0.19141523952E+04  0.19151950803E+04  0.00000000000E+00 0. -1.
         22    1    3    3    0    0  0.45121556204E+02  0.33554350169E+02  0.24960731890E+01  0.56285696504E+02  0.00000000000E+00 0. -1.
         22    1    3    3    0    0 -0.80091988780E+02  0.10337584269E+02 -0.22543089427E-01  0.80756379460E+02  0.00000000000E+00 0. -1.
</event>
<event>
 7    1  0.6253338E-006  0.8822886E+02  0.7818608E-02  0.1433479E+00
          2   -1    0    0  502    0  0.00000000000E+00  0.00000000000E+00  0.16038117483E+04  0.16038117483E+04  0.00000000000E+00 0. -1.
          1   -1    0    0  501    0 -0.00000000000E+00 -0.00000000000E+00 -0.13992758016E+03  0.13992758016E+03  0.00000000000E+00 0. -1.
         25    2    1    2    0    0  0.46898905242E+02  0.36839843429E+02  0.20239545488E+03  0.24524673229E+03  0.12500143266E+03 0.  0.
          2    1    1    2  501    0 -0.73459607033E+02 -0.52755725886E+02 -0.10104438730E+03  0.13560770142E+03  0.00000000000E+00 0. -1.
          1    1    1    2  502    0  0.26560701791E+02  0.15915882458E+02  0.13625331006E+04  0.13628848948E+04  0.00000000000E+00 0. -1.
         22    1    3    3    0    0  0.84256155060E+02  0.79076784411E+01  0.91127948564E+02  0.12436210859E+03  0.00000000000E+00 0. -1.
         22    1    3    3    0    0 -0.37357249818E+02  0.28932164987E+02  0.11126750632E+03  0.12088462370E+03  0.00000000000E+00 0. -1.
</event>
<event>
 7    1  0.6253338E-006  0.7891690E+02  0.7818608E-02  0.1422546E+00
          2   -1    0    0  502    0  0.00000000000E+00  0.00000000000E+00  0.12153292073E+04  0.12153292073E+04  0.00000000000E+00 0. -1.
          1   -1    0    0  501    0 -0.00000000000E+00 -0.00000000000E+00 -0.10444953739E+04  0.10444953739E+04  0.00000000000E+00 0. -1.
         25    2    1    2    0    0  0.10195309395E+03  0.36936403592E+02 -0.53771953765E+03  0.56260751815E+03  0.12500474807E+03 0.  0.
          2    1    1    2  501    0 -0.71059420411E+02 -0.15472327734E+02 -0.49136074484E+03  0.49671341408E+03  0.00000000000E+00 0. -1.
          1    1    1    2  502    0 -0.30893673540E+02 -0.21464075858E+02  0.11999141159E+04  0.12005036489E+04  0.00000000000E+00 0. -1.
         22    1    3    3    0    0  0.11686724666E+03  0.37689873487E+02 -0.53297658603E+03  0.54693922986E+03  0.00000000000E+00 0. -1.
         22    1    3    3    0    0 -0.14914152708E+02 -0.75346989527E+00 -0.47429516132E+01  0.15668288289E+02  0.00000000000E+00 0. -1.
</event>
<event>
 7    1  0.6253338E-006  0.2171881E+03  0.7818608E-02  0.1224215E+00
          2   -1    0    0  502    0  0.00000000000E+00  0.00000000000E+00  0.26121298930E+03  0.26121298930E+03  0.00000000000E+00 0. -1.
          1   -1    0    0  501    0 -0.00000000000E+00 -0.00000000000E+00 -0.15254097729E+04  0.15254097729E+04  0.00000000000E+00 0. -1.
         25    2    1    2    0    0 -0.53352429967E+02  0.13885252583E+03 -0.49807321047E+03  0.53462936500E+03  0.12500051684E+03 0.  0.
          2    1    1    2  501    0 -0.57967150865E+02  0.55827366369E+02 -0.95524847196E+03  0.95863263485E+03  0.00000000000E+00 0. -1.
          1    1    1    2  502    0  0.11131958083E+03 -0.19467989220E+03  0.18912489887E+03  0.29336076233E+03  0.00000000000E+00 0. -1.
         22    1    3    3    0    0  0.23910033730E+02  0.31143902858E+02 -0.25278304995E+03  0.25581419573E+03  0.00000000000E+00 0. -1.
         22    1    3    3    0    0 -0.77262463697E+02  0.10770862297E+03 -0.24529016053E+03  0.27881516926E+03  0.00000000000E+00 0. -1.
</event>
<event>
 7    1  0.6253338E-006  0.1489719E+03  0.7818608E-02  0.1318450E+00
          2   -1    0    0  502    0  0.00000000000E+00  0.00000000000E+00  0.13972876373E+03  0.13972876373E+03  0.00000000000E+00 0. -1.
          1   -1    0    0  501    0 -0.00000000000E+00 -0.00000000000E+00 -0.51033541993E+03  0.51033541993E+03  0.00000000000E+00 0. -1.
         25    2    1    2    0    0  0.30580139086E+02 -0.11955878816E+03 -0.15634990384E+03  0.23516011554E+03  0.12500215509E+03 0.  0.
          2    1    1    2  501    0 -0.12911716691E+02  0.16333020921E+03 -0.28565932267E+03  0.32930945674E+03  0.00000000000E+00 0. -1.
          1    1    1    2  502    0 -0.17668422395E+02 -0.43771421049E+02  0.71402570314E+02  0.85594611384E+02  0.00000000000E+00 0. -1.
         22    1    3    3    0    0 -0.20071271567E+02 -0.10907974598E+03 -0.14439127848E+03  0.18207165684E+03  0.00000000000E+00 0. -1.
         22    1    3    3    0    0  0.50651410653E+02 -0.10479042182E+02 -0.11958625359E+02  0.53088458696E+02  0.00000000000E+00 0. -1.
</event>
<event>
 7    1  0.6253338E-006  0.7095240E+02  0.7818608E-02  0.1487549E+00
          2   -1    0    0  502    0  0.00000000000E+00  0.00000000000E+00  0.19311512661E+03  0.19311512661E+03  0.00000000000E+00 0. -1.
          1   -1    0    0  501    0 -0.00000000000E+00 -0.00000000000E+00 -0.75526510229E+03  0.75526510229E+03  0.00000000000E+00 0. -1.
         25    2    1    2    0    0 -0.35462182575E+01  0.66051721465E+02  0.15524324476E+02  0.14225549906E+03  0.12498086570E+03 0.  0.
          2    1    1    2  501    0  0.25833140975E+02  0.29523548777E+01 -0.68011745391E+03  0.68061429510E+03  0.00000000000E+00 0. -1.
          1    1    1    2  502    0 -0.22286922718E+02 -0.69004076343E+02  0.10244315376E+03  0.12551043474E+03  0.00000000000E+00 0. -1.
         22    1    3    3    0    0 -0.25154167546E+02  0.96429274854E+02  0.27002853673E+02  0.10324965521E+03  0.00000000000E+00 0. -1.
         22    1    3    3    0    0  0.21607949289E+02 -0.30377553389E+02 -0.11478529197E+02  0.39005843856E+02  0.00000000000E+00 0. -1.
</event>
<event>
 7    1  0.6253338E-006  0.1067943E+03  0.7818608E-02  0.1352247E+00
          2   -1    0    0  502    0  0.00000000000E+00  0.00000000000E+00  0.95658693291E+03  0.95658693291E+03  0.00000000000E+00 0. -1.
          1   -1    0    0  501    0 -0.00000000000E+00 -0.00000000000E+00 -0.11593538557E+04  0.11593538557E+04  0.00000000000E+00 0. -1.
         25    2    1    2    0    0  0.43561725235E+02  0.54894821917E+02 -0.83979235700E+01  0.14354722390E+03  0.12499685992E+03 0.  0.
          2    1    1    2  501    0 -0.92564420480E+02 -0.56485769083E+02 -0.10799880859E+04  0.10854183892E+04  0.00000000000E+00 0. -1.
          1    1    1    2  502    0  0.49002695245E+02  0.15909471659E+01  0.88561908666E+03  0.88697517548E+03  0.00000000000E+00 0. -1.
         22    1    3    3    0    0  0.25102056781E+02  0.92677047969E+02 -0.23528717036E+02  0.98857215216E+02  0.00000000000E+00 0.  1.
         22    1    3    3    0    0  0.18459668455E+02 -0.37782226052E+02  0.15130793466E+02  0.44690008680E+02  0.00000000000E+00 0.  1.
</event>
<event>
 7    1  0.6253338E-006  0.1339021E+03  0.7818608E-02  0.1339823E+00
          2   -1    0    0  502    0  0.00000000000E+00  0.00000000000E+00  0.18392351876E+04  0.18392351876E+04  0.00000000000E+00 0. -1.
          1   -1    0    0  501    0 -0.00000000000E+00 -0.00000000000E+00 -0.14297868263E+04  0.14297868263E+04  0.00000000000E+00 0. -1.
         25    2    1    2    0    0  0.14363006625E+02 -0.12562125402E+03  0.44577571315E+03  0.47992505641E+03  0.12500031163E+03 0.  0.
          2    1    1    2  501    0 -0.57618092670E+02  0.12098008821E+03 -0.14091892508E+04  0.14155459622E+04  0.00000000000E+00 0. -1.
          1    1    1    2  502    0  0.43255086046E+02  0.46411658129E+01  0.13728618990E+04  0.13735509953E+04  0.00000000000E+00 0. -1.
         22    1    3    3    0    0 -0.18109132447E+02  0.12048202872E+02  0.14741673140E+02  0.26275783479E+02  0.00000000000E+00 0. -1.
         22    1    3    3    0    0  0.32472139072E+02 -0.13766945690E+03  0.43103404001E+03  0.45364927293E+03  0.00000000000E+00 0. -1.
</event>
<event>
 7    1  0.6253338E-006  0.3724000E+02  0.7818608E-02  0.1538533E+00
          2   -1    0    0  502    0  0.00000000000E+00  0.00000000000E+00  0.96958988515E+03  0.96958988515E+03  0.00000000000E+00 0. -1.
          1   -1    0    0  501    0 -0.00000000000E+00 -0.00000000000E+00 -0.23879372864E+03  0.23879372864E+03  0.00000000000E+00 0. -1.
         25    2    1    2    0    0  0.30263660184E+02 -0.16366863080E+02 -0.10256945954E+03  0.16532326334E+03  0.12501009574E+03 0.  0.
          2    1    1    2  501    0 -0.28235085692E+02 -0.20871269042E+02 -0.10152555912E+03  0.10742564447E+03  0.00000000000E+00 0. -1.
          1    1    1    2  502    0 -0.20285744929E+01  0.37238132122E+02  0.93489117518E+03  0.93563470597E+03  0.00000000000E+00 0. -1.
         22    1    3    3    0    0  0.13873641993E+02  0.46189989909E+02 -0.85945116403E+02  0.98552301564E+02  0.00000000000E+00 0. -1.
         22    1    3    3    0    0  0.16390018191E+02 -0.62556852989E+02 -0.16624343137E+02  0.66770961780E+02  0.00000000000E+00 0. -1.
</event>
<event>
 7    1  0.6253338E-006  0.4702354E+02  0.7818608E-02  0.1562833E+00
          2   -1    0    0  502    0  0.00000000000E+00  0.00000000000E+00  0.80592502875E+03  0.80592502875E+03  0.00000000000E+00 0. -1.
          1   -1    0    0  501    0 -0.00000000000E+00 -0.00000000000E+00 -0.13656659842E+03  0.13656659842E+03  0.00000000000E+00 0. -1.
         25    2    1    2    0    0 -0.60803651184E+02  0.30519717198E+02 -0.21695513038E+01  0.14231809371E+03  0.12498478191E+03 0.  0.
          2    1    1    2  501    0  0.38107164989E+02 -0.23385302545E+02 -0.56335344474E+02  0.71921481045E+02  0.00000000000E+00 0. -1.
          1    1    1    2  502    0  0.22696486195E+02 -0.71344146528E+01  0.72786332611E+03  0.72825205242E+03  0.00000000000E+00 0. -1.
         22    1    3    3    0    0 -0.42723525482E+02  0.28856476445E+02 -0.61511912982E+02  0.80260272247E+02  0.00000000000E+00 0. -1.
         22    1    3    3    0    0 -0.18080125702E+02  0.16632407523E+01  0.59342361678E+02  0.62057821463E+02  0.00000000000E+00 0. -1.
</event>
<event>
 7    1  0.6253338E-006  0.1452860E+03  0.7818608E-02  0.1234797E+00
          2   -1    0    0  502    0  0.00000000000E+00  0.00000000000E+00  0.18942726256E+04  0.18942726256E+04  0.00000000000E+00 0. -1.
          1   -1    0    0  501    0 -0.00000000000E+00 -0.00000000000E+00 -0.52665397183E+03  0.52665397183E+03  0.00000000000E+00 0. -1.
         25    2    1    2    0    0 -0.13196261104E+03 -0.11410485845E+03  0.10707246063E+03  0.23983997293E+03  0.12499860542E+03 0.  0.
          2    1    1    2  501    0 -0.13436252877E+02  0.10700612570E+03 -0.45082003764E+03  0.46354023576E+03  0.00000000000E+00 0. -1.
          1    1    1    2  502    0  0.14539886392E+03  0.70987327437E+01  0.17113662308E+04  0.17175463888E+04  0.00000000000E+00 0. -1.
         22    1    3    3    0    0 -0.13221330864E+03 -0.72382254820E+02  0.12363535117E+03  0.19494935202E+03  0.00000000000E+00 0.  1.
         22    1    3    3    0    0  0.25069759963E+00 -0.41722603628E+02 -0.16562890539E+02  0.44890620912E+02  0.00000000000E+00 0.  1.
</event>
<event>
 7    1  0.6253338E-006  0.1316007E+03  0.7818608E-02  0.1286185E+00
          2   -1    0    0  502    0  0.00000000000E+00  0.00000000000E+00  0.10257521191E+04  0.10257521191E+04  0.00000000000E+00 0. -1.
          1   -1    0    0  501    0 -0.00000000000E+00 -0.00000000000E+00 -0.49811024032E+03  0.49811024032E+03  0.00000000000E+00 0. -1.
         25    2    1    2    0    0  0.19517101051E+03  0.43160488210E+02  0.62068151272E+02  0.24379286931E+03  0.12501182599E+03 0.  0.
          2    1    1    2  501    0 -0.70560970072E+02 -0.13641273756E+02 -0.39932565141E+03  0.40574118687E+03  0.00000000000E+00 0. -1.
          1    1    1    2  502    0 -0.12461004044E+03 -0.29519214454E+02  0.86489937893E+03  0.87432830326E+03  0.00000000000E+00 0. -1.
         22    1    3    3    0    0  0.13603686489E+03  0.45176943284E+00  0.92761516544E+02  0.16465397552E+03  0.00000000000E+00 0.  1.
         22    1    3    3    0    0  0.59134145622E+02  0.42708718777E+02 -0.30693365272E+02  0.79138893787E+02  0.00000000000E+00 0.  1.
</event>
<event>
 7    1  0.6253338E-006  0.7459926E+02  0.7818608E-02  0.1370139E+00
          2   -1    0    0  502    0  0.00000000000E+00  0.00000000000E+00  0.14210525343E+04  0.14210525343E+04  0.00000000000E+00 0. -1.
          1   -1    0    0  501    0 -0.00000000000E+00 -0.00000000000E+00 -0.21035375347E+03  0.21035375347E+03  0.00000000000E+00 0. -1.
         25    2    1    2    0    0 -0.11105521624E+03  0.73761370506E+02  0.35486993862E+03  0.39917380378E+03  0.12503220166E+03 0.  0.
          2    1    1    2  501    0  0.64402526475E+02 -0.35389608840E+02 -0.18011501447E+03  0.19452899082E+03  0.00000000000E+00 0. -1.
          1    1    1    2  502    0  0.46652689765E+02 -0.38371761665E+02  0.10359438566E+04  0.10377034931E+04  0.00000000000E+00 0. -1.
         22    1    3    3    0    0 -0.66348584293E+02  0.76772691707E+02  0.33523041393E+03  0.35025078337E+03  0.00000000000E+00 0.  1.
         22    1    3    3    0    0 -0.44706631947E+02 -0.30113212016E+01  0.19639524692E+02  0.48923020406E+02  0.00000000000E+00 0.  1.
</event>
<event>
 7    1  0.6253338E-006  0.7166677E+02  0.7818608E-02  0.1384977E+00
          2   -1    0    0  502    0  0.00000000000E+00  0.00000000000E+00  0.15170408126E+03  0.15170408126E+03  0.00000000000E+00 0. -1.
          1   -1    0    0  501    0 -0.00000000000E+00 -0.00000000000E+00 -0.95906939957E+03  0.95906939957E+03  0.00000000000E+00 0. -1.
         25    2    1    2    0    0  0.96475291139E+02 -0.88940706178E+01 -0.64882460898E+03  0.66782087669E+03  0.12499905536E+03 0.  0.
          2    1    1    2  501    0 -0.58031690694E+02 -0.31393578172E+02 -0.29146262067E+03  0.29883723517E+03  0.00000000000E+00 0. -1.
          1    1    1    2  502    0 -0.38443600445E+02  0.40287648790E+02  0.13292191134E+03  0.14411536897E+03  0.00000000000E+00 0. -1.
         22    1    3    3    0    0  0.81234529771E+02  0.42516261967E+02 -0.26823887156E+03  0.28347623106E+03  0.00000000000E+00 0. -1.
         22    1    3    3    0    0  0.15240761368E+02 -0.51410332585E+02 -0.38058573742E+03  0.38434464563E+03  0.00000000000E+00 0. -1.
</event>
<event>
 7    1  0.6253338E-006  0.7784457E+02  0.7818608E-02  0.1434923E+00
          2   -1    0    0  502    0  0.00000000000E+00  0.00000000000E+00  0.15275426816E+04  0.15275426816E+04  0.00000000000E+00 0. -1.
          1   -1    0    0  501    0 -0.00000000000E+00 -0.00000000000E+00 -0.73964624853E+02  0.73964624853E+02  0.00000000000E+00 0. -1.
         25    2    1    2    0    0  0.56318980214E+01  0.18344785486E+02  0.10512658194E+02  0.12689778918E+03  0.12499713392E+03 0.  0.
          2    1    1    2  501    0  0.70633793316E+02 -0.33943543744E+02  0.90123847796E+02  0.11943033476E+03  0.00000000000E+00 0. -1.
          1    1    1    2  502    0 -0.76265691337E+02  0.15598758258E+02  0.13529415508E+04  0.13551791825E+04  0.00000000000E+00 0. -1.
         22    1    3    3    0    0 -0.38805610741E+02 -0.29605597251E+02  0.31670396793E+02  0.58184025699E+02  0.00000000000E+00 0.  1.
         22    1    3    3    0    0  0.44437508762E+02  0.47950382737E+02 -0.21157738599E+02  0.68713763484E+02  0.00000000000E+00 0.  1.
</event>
<event>
 7    1  0.6253338E-006  0.8784884E+02  0.7818608E-02  0.1324501E+00
          2   -1    0    0  502    0  0.00000000000E+00  0.00000000000E+00  0.12591720818E+04  0.12591720818E+04  0.00000000000E+00 0. -1.
          1   -1    0    0  501    0 -0.00000000000E+00 -0.00000000000E+00 -0.21715330488E+03  0.21715330488E+03  0.00000000000E+00 0. -1.
         25    2    1    2    0    0 -0.45482656107E+02 -0.13268062458E+02  0.25774945759E+03  0.29035163875E+03  0.12499831099E+03 0.  0.
          2    1    1    2  501    0  0.68038270193E+02 -0.59143428167E+02 -0.18918651853E+03  0.20956786514E+03  0.00000000000E+00 0. -1.
          1    1    1    2  502    0 -0.22555614085E+02  0.72411490626E+02  0.97345583783E+03  0.97640588277E+03  0.00000000000E+00 0. -1.
         22    1    3    3    0    0 -0.82518918452E+02  0.18213966622E+02  0.15052373713E+03  0.17262246644E+03  0.00000000000E+00 0.  1.
         22    1    3    3    0    0  0.37036262345E+02 -0.31482029081E+02  0.10722572046E+03  0.11772917230E+03  0.00000000000E+00 0.  1.
</event>
<event>
 7    1  0.6253338E-006  0.2408863E+03  0.7818608E-02  0.1199250E+00
          2   -1    0    0  502    0  0.00000000000E+00  0.00000000000E+00  0.27338558658E+04  0.27338558658E+04  0.00000000000E+00 0. -1.
          1   -1    0    0  501    0 -0.00000000000E+00 -0.00000000000E+00 -0.23020162966E+03  0.23020162966E+03  0.00000000000E+00 0. -1.
         25    2    1    2    0    0  0.19523155736E+03 -0.11113892882E+03  0.17317866261E+03  0.30997346072E+03  0.12500189871E+03 0.  0.
          2    1    1    2  501    0 -0.46858490299E+02 -0.82241384348E+02 -0.14143475852E+03  0.17018564667E+03  0.00000000000E+00 0. -1.
          1    1    1    2  502    0 -0.14837306706E+03  0.19338031317E+03  0.24719103321E+04  0.24838983881E+04  0.00000000000E+00 0. -1.
         22    1    3    3    0    0 -0.84058036432E+00 -0.45473868750E+02  0.56562601614E+02  0.72580350067E+02  0.00000000000E+00 0.  1.
         22    1    3    3    0    0  0.19607213772E+03 -0.65665060075E+02  0.11661606099E+03  0.23739311066E+03  0.00000000000E+00 0.  1.
</event>
<event>
 7    1  0.6253338E-006  0.9578431E+02  0.7818608E-02  0.1314783E+00
          2   -1    0    0  502    0  0.00000000000E+00  0.00000000000E+00  0.61108716910E+03  0.61108716910E+03  0.00000000000E+00 0. -1.
          1   -1    0    0  501    0 -0.00000000000E+00 -0.00000000000E+00 -0.29835024416E+03  0.29835024416E+03  0.00000000000E+00 0. -1.
         25    2    1    2    0    0  0.45270833995E+02 -0.35033474143E+02  0.16440287551E+03  0.21431420455E+03  0.12500192028E+03 0.  0.
          2    1    1    2  501    0 -0.36957359714E+01  0.98501034636E+02 -0.26090817785E+03  0.27890713429E+03  0.00000000000E+00 0. -1.
          1    1    1    2  502    0 -0.41575098024E+02 -0.63467560493E+02  0.40924222728E+03  0.41621607442E+03  0.00000000000E+00 0. -1.
         22    1    3    3    0    0  0.60383226863E+02  0.74764918493E+01  0.15728041594E+03  0.16863914508E+03  0.00000000000E+00 0. -1.
         22    1    3    3    0    0 -0.15112392868E+02 -0.42509965993E+02  0.71224595704E+01  0.45675059466E+02  0.00000000000E+00 0. -1.
</event>
<event>
 7    1  0.6253338E-006  0.9732999E+02  0.7818608E-02  0.1319991E+00
          2   -1    0    0  502    0  0.00000000000E+00  0.00000000000E+00  0.59008362367E+03  0.59008362367E+03  0.00000000000E+00 0. -1.
          1   -1    0    0  501    0 -0.00000000000E+00 -0.00000000000E+00 -0.67795739428E+03  0.67795739428E+03  0.00000000000E+00 0. -1.
         25    2    1    2    0    0  0.66699952359E+02  0.43221600185E+01 -0.14617223381E+03  0.20361150483E+03  0.12499503291E+03 0.  0.
          2    1    1    2  501    0  0.59161312860E+01 -0.71013238673E+02 -0.49617123546E+03  0.50126218247E+03  0.00000000000E+00 0. -1.
          1    1    1    2  502    0 -0.72616083645E+02  0.66691078655E+02  0.55446969866E+03  0.56316733065E+03  0.00000000000E+00 0. -1.
         22    1    3    3    0    0  0.89871420017E+02  0.39639330499E+02 -0.11422797268E+03  0.15065250878E+03  0.00000000000E+00 0.  1.
         22    1    3    3    0    0 -0.23171467658E+02 -0.35317170480E+02 -0.31944261132E+02  0.52958996057E+02  0.00000000000E+00 0.  1.
</event>
<event>
 7    1  0.6253338E-006  0.4344543E+02  0.7818608E-02  0.1554055E+00
          2   -1    0    0  502    0  0.00000000000E+00  0.00000000000E+00  0.17044604583E+04  0.17044604583E+04  0.00000000000E+00 0. -1.
          1   -1    0    0  501    0 -0.00000000000E+00 -0.00000000000E+00 -0.79793413477E+03  0.79793413477E+03  0.00000000000E+00 0. -1.
         25    2    1    2    0    0 -0.18588905738E+02  0.59497565462E+01  0.21356139888E+03  0.24822313327E+03  0.12500122312E+03 0.  0.
          2    1    1    2  501    0  0.43114991742E+02  0.58738960147E+01 -0.77987095555E+03  0.78108393434E+03  0.00000000000E+00 0. -1.
          1    1    1    2  502    0 -0.24526086004E+02 -0.11823652561E+02  0.14728358802E+04  0.14730875254E+04  0.00000000000E+00 0. -1.
         22    1    3    3    0    0 -0.38602264676E+02  0.30437634172E+02  0.21635830730E+02  0.53709343539E+02  0.00000000000E+00 0.  1.
         22    1    3    3    0    0  0.20013358937E+02 -0.24487877625E+02  0.19192556815E+03  0.19451378973E+03  0.00000000000E+00 0.  1.
</event>
<event>
 7    1  0.6253338E-006  0.7247582E+02  0.7818608E-02  0.1467080E+00
          2   -1    0    0  502    0  0.00000000000E+00  0.00000000000E+00  0.12614713773E+04  0.12614713773E+04  0.00000000000E+00 0. -1.
          1   -1    0    0  501    0 -0.00000000000E+00 -0.00000000000E+00 -0.73207593574E+03  0.73207593574E+03  0.00000000000E+00 0. -1.
         25    2    1    2    0    0 -0.67419968931E+02 -0.22313619147E+02  0.98090548362E+01  0.14409825450E+03  0.12499895832E+03 0.  0.
          2    1    1    2  501    0  0.72353577346E+02 -0.67004287719E+01 -0.66276253120E+03  0.66673391144E+03  0.00000000000E+00 0. -1.
          1    1    1    2  502    0 -0.49336084148E+01  0.29014047919E+02  0.11823489179E+04  0.11827151471E+04  0.00000000000E+00 0. -1.
         22    1    3    3    0    0  0.10282179669E+02 -0.49247686434E+02 -0.23303142253E+02  0.55444515299E+02  0.00000000000E+00 0. -1.
         22    1    3    3    0    0 -0.77702148601E+02  0.26934067287E+02  0.33112197089E+02  0.88653739198E+02  0.00000000000E+00 0. -1.
</event>
<event>
 7    1  0.6253338E-006  0.7174939E+02  0.7818608E-02  0.1500508E+00
          2   -1    0    0  502    0  0.00000000000E+00  0.00000000000E+00  0.77873689712E+02  0.77873689712E+02  0.00000000000E+00 0. -1.
          1   -1    0    0  501    0 -0.00000000000E+00 -0.00000000000E+00 -0.64610581997E+03  0.64610581997E+03  0.00000000000E+00 0. -1.
         25    2    1    2    0    0 -0.33793358752E+01 -0.61444501054E+02 -0.16947979424E+02  0.14035720587E+03  0.12500425838E+03 0.  0.
          2    1    1    2  501    0 -0.18583410988E+02  0.69817338657E+02 -0.55512432629E+03  0.55980605711E+03  0.00000000000E+00 0. -1.
          1    1    1    2  502    0  0.21962746863E+02 -0.83728376026E+01  0.38401754570E+01  0.23816246699E+02  0.00000000000E+00 0. -1.
         22    1    3    3    0    0 -0.97630294073E+01 -0.37095895024E+02 -0.71017857950E+02  0.80715291728E+02  0.00000000000E+00 0.  1.
         22    1    3    3    0    0  0.63836935321E+01 -0.24348606031E+02  0.54069878526E+02  0.59641914142E+02  0.00000000000E+00 0.  1.
</event>
<event>
 7    1  0.6253338E-006  0.6737862E+02  0.7818608E-02  0.1411795E+00
          2   -1    0    0  502    0  0.00000000000E+00  0.00000000000E+00  0.49275146477E+03  0.49275146477E+03  0.00000000000E+00 0. -1.
          1   -1    0    0  501    0 -0.00000000000E+00 -0.00000000000E+00 -0.45039490493E+03  0.45039490493E+03  0.00000000000E+00 0. -1.
         25    2    1    2    0    0  0.81352393543E+02 -0.25795063586E+02  0.11302327140E+03  0.18889985448E+03  0.12500119161E+03 0.  0.
          2    1    1    2  501    0 -0.64563178091E+02 -0.19038673331E+02 -0.40800897903E+03  0.41352412508E+03  0.00000000000E+00 0. -1.
          1    1    1    2  502    0 -0.16789215452E+02  0.44833736916E+02  0.33734226747E+03  0.34072239014E+03  0.00000000000E+00 0. -1.
         22    1    3    3    0    0  0.50057881010E+02 -0.37472605678E+02 -0.82855086989E+01  0.63076439991E+02  0.00000000000E+00 0. -1.
         22    1    3    3    0    0  0.31294512532E+02  0.11677542093E+02  0.12130878010E+03  0.12582341449E+03  0.00000000000E+00 0. -1.
</event>
<event>
 7    1  0.6253338E-006  0.1498006E+03  0.7818608E-02  0.1294735E+00
          2   -1    0    0  502    0  0.00000000000E+00  0.00000000000E+00  0.52405770895E+03  0.52405770895E+03  0.00000000000E+00 0. -1.
          1   -1    0    0  501    0 -0.00000000000E+00 -0.00000000000E+00 -0.56923750597E+03  0.56923750597E+03  0.00000000000E+00 0. -1.
         25    2    1    2    0    0 -0.14589438317E+03  0.12301230781E+03 -0.30428514259E+03  0.38029465805E+03  0.12496951640E+03 0.  0.
          2    1    1    2  501    0  0.12833511683E+02 -0.56850427170E+02 -0.21155613757E+03  0.21943716512E+03  0.00000000000E+00 0. -1.
          1    1    1    2  502    0  0.13306087149E+03 -0.66161880637E+02  0.47066148313E+03  0.49356339175E+03  0.00000000000E+00 0. -1.
         22    1    3    3    0    0 -0.77705994120E+02 -0.33639718470E+01 -0.65630816118E+02  0.10176906137E+03  0.00000000000E+00 0.  1.
         22    1    3    3    0    0 -0.68188389048E+02  0.12637627965E+03 -0.23865432647E+03  0.27852559667E+03  0.00000000000E+00 0.  1.
</event>
<event>
 7    1  0.6253338E-006  0.9810370E+02  0.7818608E-02  0.1477494E+00
          2   -1    0    0  502    0  0.00000000000E+00  0.00000000000E+00  0.27788627656E+03  0.27788627656E+03  0.00000000000E+00 0. -1.
          1   -1    0    0  501    0 -0.00000000000E+00 -0.00000000000E+00 -0.40266595787E+03  0.40266595787E+03  0.00000000000E+00 0. -1.
         25    2    1    2    0    0 -0.94596935300E+02  0.49339851191E+02  0.53222826988E+02  0.17274301892E+03  0.12499792073E+03 0.  0.
          2    1    1    2  501    0  0.17997666808E+02  0.91372129474E+01 -0.32849011613E+03  0.32910964900E+03  0.00000000000E+00 0. -1.
          1    1    1    2  502    0  0.76599268491E+02 -0.58477064138E+02  0.15048760782E+03  0.17869956651E+03  0.00000000000E+00 0. -1.
         22    1    3    3    0    0 -0.25103055324E+02 -0.38391167781E+02 -0.57627563361E+01  0.46230450039E+02  0.00000000000E+00 0. -1.
         22    1    3    3    0    0 -0.69493879976E+02  0.87731018972E+02  0.58985583324E+02  0.12651256888E+03  0.00000000000E+00 0. -1.
</event>
<event>
 7    1  0.6253338E-006  0.1044791E+03  0.7818608E-02  0.1327246E+00
          2   -1    0    0  502    0  0.00000000000E+00  0.00000000000E+00  0.55055871167E+03  0.55055871167E+03  0.00000000000E+00 0. -1.
          1   -1    0    0  501    0 -0.00000000000E+00 -0.00000000000E+00 -0.14941500647E+03  0.14941500647E+03  0.00000000000E+00 0. -1.
         25    2    1    2    0    0  0.16627403524E+02  0.43064842774E+02  0.32920572598E+03  0.35515078275E+03  0.12499846894E+03 0.  0.
          2    1    1    2  501    0 -0.44293671665E+02 -0.98817304511E+02 -0.10889801557E+03  0.15357593176E+03  0.00000000000E+00 0. -1.
          1    1    1    2  502    0  0.27666268141E+02  0.55752461737E+02  0.18083599480E+03  0.19124700363E+03  0.00000000000E+00 0. -1.
         22    1    3    3    0    0  0.68862737964E+02  0.11653338843E+02  0.14151999384E+03  0.15781566983E+03  0.00000000000E+00 0. -1.
         22    1    3    3    0    0 -0.52235334440E+02  0.31411503930E+02  0.18768573214E+03  0.19733511292E+03  0.00000000000E+00 0. -1.
</event>
<event>
 7    1  0.6253338E-006  0.9613800E+02  0.7818608E-02  0.1430504E+00
          2   -1    0    0  502    0  0.00000000000E+00  0.00000000000E+00  0.31682334316E+03  0.31682334316E+03  0.00000000000E+00 0. -1.
          1   -1    0    0  501    0 -0.00000000000E+00 -0.00000000000E+00 -0.10789405576E+04  0.10789405576E+04  0.00000000000E+00 0. -1.
         25    2    1    2    0    0 -0.61774706761E+02 -0.37676361106E+02  0.94028751778E+02  0.17234326029E+03  0.12500068250E+03 0.  0.
          2    1    1    2  501    0  0.71278203427E+02  0.65141775625E+02 -0.10363748320E+04  0.10408635000E+04  0.00000000000E+00 0. -1.
          1    1    1    2  502    0 -0.95034966657E+01 -0.27465414519E+02  0.18022886583E+03  0.18255714043E+03  0.00000000000E+00 0. -1.
         22    1    3    3    0    0 -0.48338985165E+02 -0.11459324766E+02 -0.20754581658E+02  0.53839820492E+02  0.00000000000E+00 0.  1.
         22    1    3    3    0    0 -0.13435721596E+02 -0.26217036341E+02  0.11478333344E+03  0.11850343980E+03  0.00000000000E+00 0.  1.
</event>
<event>
 7    1  0.6253338E-006  0.7330908E+02  0.7818608E-02  0.1354066E+00
          2   -1    0    0  502    0  0.00000000000E+00  0.00000000000E+00  0.18777973580E+04  0.18777973580E+04  0.00000000000E+00 0. -1.
          1   -1    0    0  501    0 -0.00000000000E+00 -0.00000000000E+00 -0.28721939167E+02  0.28721939167E+02  0.00000000000E+00 0. -1.
         25    2    1    2    0    0 -0.30110133627E+02 -0.33787318248E+02  0.69171350515E+03  0.70437226130E+03  0.12499802502E+03 0.  0.
          2    1    1    2  501    0  0.50767909694E+02 -0.48669555044E+02  0.38725609905E+02  0.80285609578E+02  0.00000000000E+00 0. -1.
          1    1    1    2  502    0 -0.20657776067E+02  0.82456873291E+02  0.11186363038E+04  0.11218614263E+04  0.00000000000E+00 0. -1.
         22    1    3    3    0    0 -0.45734537417E+02 -0.27162890576E+02  0.68341371088E+03  0.68548068591E+03  0.00000000000E+00 0. -1.
         22    1    3    3    0    0  0.15624403790E+02 -0.66244276720E+01  0.82997942720E+01  0.18891575391E+02  0.00000000000E+00 0. -1.
</event>
<event>
 7    1  0.6253338E-006  0.5573940E+02  0.7818608E-02  0.1518917E+00
          2   -1    0    0  502    0  0.00000000000E+00  0.00000000000E+00  0.16343042966E+03  0.16343042966E+03  0.00000000000E+00 0. -1.
          1   -1    0    0  501    0 -0.00000000000E+00 -0.00000000000E+00 -0.35331845880E+03  0.35331845880E+03  0.00000000000E+00 0. -1.
         25    2    1    2    0    0 -0.74375683523E+02  0.31089899682E+02 -0.36717879116E+02  0.15320154504E+03  0.12499674633E+03 0.  0.
          2    1    1    2  501    0  0.48316962949E+02 -0.25249260981E+02 -0.25372035883E+03  0.25951122244E+03  0.00000000000E+00 0. -1.
          1    1    1    2  502    0  0.26058720575E+02 -0.58406387008E+01  0.10055020880E+03  0.10403612098E+03  0.00000000000E+00 0. -1.
         22    1    3    3    0    0 -0.33811647809E+02  0.77823631861E+02 -0.33532158714E+02  0.91236784641E+02  0.00000000000E+00 0.  1.
         22    1    3    3    0    0 -0.40564035715E+02 -0.46733732179E+02 -0.31857204016E+01  0.61964760399E+02  0.00000000000E+00 0.  1.
</event>
<event>
 7    1  0.6253338E-006  0.9192543E+02  0.7818608E-02  0.1411021E+00
          2   -1    0    0  502    0  0.00000000000E+00  0.00000000000E+00  0.24401437291E+04  0.24401437291E+04  0.00000000000E+00 0. -1.
          1   -1    0    0  501    0 -0.00000000000E+00 -0.00000000000E+00 -0.18083695458E+03  0.18083695458E+03  0.00000000000E+00 0. -1.
         25    2    1    2    0    0 -0.73556580460E+02 -0.91788955204E+02  0.12435614058E+04  0.12553506329E+04  0.12499783430E+03 0.  0.
          2    1    1    2  501    0  0.30335483422E+02  0.18056314060E+02 -0.17160958595E+03  0.17520308793E+03  0.00000000000E+00 0. -1.
          1    1    1    2  502    0  0.43221097038E+02  0.73732641144E+02  0.11873549546E+04  0.11904269629E+04  0.00000000000E+00 0. -1.
         22    1    3    3    0    0 -0.13365086658E+02 -0.54997298282E+02  0.10046151578E+04  0.10062082010E+04  0.00000000000E+00 0. -1.
         22    1    3    3    0    0 -0.60191493802E+02 -0.36791656922E+02  0.23894624802E+03  0.24914243193E+03  0.00000000000E+00 0. -1.
</event>
<event>
 7    1  0.6253338E-006  0.1027157E+03  0.7818608E-02  0.1373620E+00
          2   -1    0    0  502    0  0.00000000000E+00  0.00000000000E+00  0.20046216880E+04  0.20046216880E+04  0.00000000000E+00 0. -1.
          1   -1    0    0  501    0 -0.00000000000E+00 -0.00000000000E+00 -0.79356312997E+02  0.79356312997E+02  0.00000000000E+00 0. -1.
         25    2    1    2    0    0  0.61202966172E+01  0.10269890177E+03  0.95407039152E+03  0.96770855169E+03  0.12500002635E+03 0.  0.
          2    1    1    2  501    0  0.41651074316E+02 -0.90749892863E+01 -0.63372942142E+02  0.76376025151E+02  0.00000000000E+00 0. -1.
          1    1    1    2  502    0 -0.47771370933E+02 -0.93623912479E+02  0.10345679256E+04  0.10398934241E+04  0.00000000000E+00 0. -1.
         22    1    3    3    0    0 -0.20124058044E+02  0.83929450876E+02  0.90420498054E+03  0.90831480075E+03  0.00000000000E+00 0. -1.
         22    1    3    3    0    0  0.26244354661E+02  0.18769450890E+02  0.49865410988E+02  0.59393750945E+02  0.00000000000E+00 0. -1.
</event>
<event>
 7    1  0.6253338E-006  0.1526058E+03  0.7818608E-02  0.1393029E+00
          2   -1    0    0  502    0  0.00000000000E+00  0.00000000000E+00  0.17890476352E+04  0.17890476352E+04  0.00000000000E+00 0. -1.
          1   -1    0    0  501    0 -0.00000000000E+00 -0.00000000000E+00 -0.19618298359E+04  0.19618298359E+04  0.00000000000E+00 0. -1.
         25    2    1    2    0    0 -0.10228501204E+03 -0.79245931006E+02  0.18524565031E+03  0.25822902717E+03  0.12499655293E+03 0.  0.
          2    1    1    2  501    0  0.11618667819E+03  0.99433227343E+02 -0.19222053298E+04  0.19282789324E+04  0.00000000000E+00 0. -1.
          1    1    1    2  502    0 -0.13901666143E+02 -0.20187296337E+02  0.15641774788E+04  0.15643695115E+04  0.00000000000E+00 0. -1.
         22    1    3    3    0    0 -0.11280117584E+03 -0.32144081461E+02  0.78659192204E+02  0.14122540764E+03  0.00000000000E+00 0. -1.
         22    1    3    3    0    0  0.10516163801E+02 -0.47101849545E+02  0.10658645811E+03  0.11700361953E+03  0.00000000000E+00 0. -1.
</event>
<event>
 7    1  0.6253338E-006  0.9647353E+02  0.7818608E-02  0.1421210E+00
          2   -1    0    0  502    0  0.00000000000E+00  0.00000000000E+00  0.18107161941E+03  0.18107161941E+03  0.00000000000E+00 0. -1.
          1   -1    0    0  501    0 -0.00000000000E+00 -0.00000000000E+00 -0.16627438274E+04  0.16627438274E+04  0.00000000000E+00 0. -1.
         25    2    1    2    0    0  0.79283154661E+02  0.96245225878E+02 -0.38807625018E+03  0.42635413348E+03  0.12500283625E+03 0.  0.
          2    1    1    2  501    0 -0.62456564769E+02 -0.70103220317E+02 -0.12522626667E+04  0.12557774764E+04  0.00000000000E+00 0. -1.
          1    1    1    2  502    0 -0.16826589891E+02 -0.26142005561E+02  0.15866670891E+03  0.16168383685E+03  0.00000000000E+00 0. -1.
         22    1    3    3    0    0 -0.18876982580E+02 -0.17136354063E+02 -0.41252008786E+02  0.48494570117E+02  0.00000000000E+00 0.  1.
         22    1    3    3    0    0  0.98160137241E+02  0.11338157994E+03 -0.34682424139E+03  0.37785956337E+03  0.00000000000E+00 0.  1.
</event>
<event>
 7    1  0.6253338E-006  0.1163819E+03  0.7818608E-02  0.1295638E+00
          2   -1    0    0  502    0  0.00000000000E+00  0.00000000000E+00  0.41441341231E+03  0.41441341231E+03  0.00000000000E+00 0. -1.
          1   -1    0    0  501    0 -0.00000000000E+00 -0.00000000000E+00 -0.11444543246E+04  0.11444543246E+04  0.00000000000E+00 0. -1.
         25    2    1    2    0    0 -0.10519296707E+03 -0.15213185936E+03 -0.17999945118E+03  0.28676461969E+03  0.12499792689E+03 0.  0.
          2    1    1    2  501    0  0.72643520077E+02  0.85241554796E+02 -0.90374675911E+03  0.91065987519E+03  0.00000000000E+00 0. -1.
          1    1    1    2  502    0  0.32549446993E+02  0.66890304563E+02  0.35370529802E+03  0.36144324201E+03  0.00000000000E+00 0. -1.
         22    1    3    3    0    0 -0.12188190003E+03 -0.16227041055E+03 -0.15694273567E+03  0.25655000677E+03  0.00000000000E+00 0. -1.
         22    1    3    3    0    0  0.16688932957E+02  0.10138551194E+02 -0.23056715509E+02  0.30214612915E+02  0.00000000000E+00 0. -1.
</event>
<event>
 7    1  0.6253338E-006  0.2336706E+03  0.7818608E-02  0.1214523E+00
          2   -1    0    0  502    0  0.00000000000E+00  0.00000000000E+00  0.41285805243E+03  0.41285805243E+03  0.00000000000E+00 0. -1.
          1   -1    0    0  501    0 -0.00000000000E+00 -0.00000000000E+00 -0.20236019999E+04  0.20236019999E+04  0.00000000000E+00 0. -1.
         25    2    1    2    0    0 -0.99762215070E+02 -0.12331102055E+03 -0.46477249803E+03  0.50675147069E+03  0.12500188307E+03 0.  0.
          2    1    1    2  501    0 -0.32669829585E+02 -0.76107190592E+02 -0.15000313809E+04  0.15023161338E+04  0.00000000000E+00 0. -1.
          1    1    1    2  502    0  0.13243204466E+03  0.19941821115E+03  0.35405993147E+03  0.42739244783E+03  0.00000000000E+00 0. -1.
         22    1    3    3    0    0 -0.51214137537E+02 -0.14756033289E+02 -0.42836720633E+02  0.68378454477E+02  0.00000000000E+00 0. -1.
         22    1    3    3    0    0 -0.48548077534E+02 -0.10855498727E+03 -0.42193577740E+03  0.43837301621E+03  0.00000000000E+00 0. -1.
</event>
<event>
 7    1  0.6253338E-006  0.4012605E+02  0.7818608E-02  0.1596469E+00
          2   -1    0    0  502    0  0.00000000000E+00  0.00000000000E+00  0.81479781133E+03  0.81479781133E+03  0.00000000000E+00 0. -1.
          1   -1    0    0  501    0 -0.00000000000E+00 -0.00000000000E+00 -0.10606195650E+04  0.10606195650E+04  0.00000000000E+00 0. -1.
         25    2    1    2    0    0 -0.27593694101E+02  0.86449279502E+01 -0.84844191834E+02  0.15381645619E+03  0.12499927430E+03 0.  0.
          2    1    1    2  501    0  0.38782439422E+02  0.11048207896E+02 -0.94069282279E+03  0.94155675737E+03  0.00000000000E+00 0. -1.
          1    1    1    2  502    0 -0.11188745320E+02 -0.19693135846E+02  0.77971526098E+03  0.78004416274E+03  0.00000000000E+00 0. -1.
         22    1    3    3    0    0 -0.46020374583E+02 -0.48544423328E+02 -0.33642870000E+02  0.74875086744E+02  0.00000000000E+00 0.  1.
         22    1    3    3    0    0  0.18426680482E+02  0.57189351278E+02 -0.51201321834E+02  0.78941369451E+02  0.00000000000E+00 0.  1.
</event>
<event>
 7    1  0.6253338E-006  0.7081234E+02  0.7818608E-02  0.1397895E+00
          2   -1    0    0  502    0  0.00000000000E+00  0.00000000000E+00  0.17134111289E+04  0.17134111289E+04  0.00000000000E+00 0. -1.
          1   -1    0    0  501    0 -0.00000000000E+00 -0.00000000000E+00 -0.33838660899E+03  0.33838660899E+03  0.00000000000E+00 0. -1.
         25    2    1    2    0    0  0.63973378371E+02  0.36269813481E+02  0.63533185481E+02  0.15833239024E+03  0.12499835051E+03 0.  0.
          2    1    1    2  501    0 -0.40429273117E+02  0.30780781327E+02 -0.28797372461E+03  0.29242238062E+03  0.00000000000E+00 0. -1.
          1    1    1    2  502    0 -0.23544105255E+02 -0.67050594808E+02  0.15994650591E+04  0.16010429670E+04  0.00000000000E+00 0. -1.
         22    1    3    3    0    0  0.84503572451E+02  0.58552218877E+02  0.19121190817E+02  0.10456976633E+03  0.00000000000E+00 0.  1.
         22    1    3    3    0    0 -0.20530194080E+02 -0.22282405395E+02  0.44411994663E+02  0.53762623905E+02  0.00000000000E+00 0.  1.
</event>
<event>
 7    1  0.6253338E-006  0.1085283E+03  0.7818608E-02  0.1297879E+00
          2   -1    0    0  502    0  0.00000000000E+00  0.00000000000E+00  0.15629366570E+03  0.15629366570E+03  0.00000000000E+00 0. -1.
          1   -1    0    0  501    0 -0.00000000000E+00 -0.00000000000E+00 -0.10657583637E+04  0.10657583637E+04  0.00000000000E+00 0. -1.
         25    2    1    2    0    0  0.97079300410E+02  0.64453939769E+02 -0.21291195910E+03  0.27300991227E+03  0.12499683575E+03 0.  0.
          2    1    1    2  501    0  0.12439727092E+02 -0.77137219217E+02 -0.79644473334E+03  0.80026814922E+03  0.00000000000E+00 0. -1.
          1    1    1    2  502    0 -0.10951902750E+03  0.12683279448E+02  0.99891994466E+02  0.14877396789E+03  0.00000000000E+00 0. -1.
         22    1    3    3    0    0  0.18569257599E+02 -0.35133154604E+02 -0.27294363056E+02  0.48209315851E+02  0.00000000000E+00 0.  1.
         22    1    3    3    0    0  0.78510042811E+02  0.99587094373E+02 -0.18561759605E+03  0.22480059642E+03  0.00000000000E+00 0.  1.
</event>
<event>
 7    1  0.6253338E-006  0.1068765E+03  0.7818608E-02  0.1457218E+00
          2   -1    0    0  502    0  0.00000000000E+00  0.00000000000E+00  0.11229881704E+04  0.11229881704E+04  0.00000000000E+00 0. -1.
          1   -1    0    0  501    0 -0.00000000000E+00 -0.00000000000E+00 -0.13017210661E+04  0.13017210661E+04  0.00000000000E+00 0. -1.
         25    2    1    2    0    0 -0.10877525058E+03 -0.66540086544E+02 -0.29021581025E+02  0.18090662361E+03  0.12500126417E+03 0.  0.
          2    1    1    2  501    0  0.89363145506E+02  0.57449613858E+02 -0.11942891245E+04  0.11990048969E+04  0.00000000000E+00 0. -1.
          1    1    1    2  502    0  0.19412105076E+02  0.90904726860E+01  0.10445778099E+04  0.10447977160E+04  0.00000000000E+00 0. -1.
         22    1    3    3    0    0 -0.80935299167E+02 -0.10394804045E+03 -0.17734897053E+02  0.13292947129E+03  0.00000000000E+00 0. -1.
         22    1    3    3    0    0 -0.27839951415E+02  0.37407953901E+02 -0.11286683972E+02  0.47977152322E+02  0.00000000000E+00 0. -1.
</event>
<event>
 7    1  0.6253338E-006  0.1094883E+03  0.7818608E-02  0.1343702E+00
          2   -1    0    0  502    0  0.00000000000E+00  0.00000000000E+00  0.57790257308E+03  0.57790257308E+03  0.00000000000E+00 0. -1.
          1   -1    0    0  501    0 -0.00000000000E+00 -0.00000000000E+00 -0.33091929293E+03  0.33091929293E+03  0.00000000000E+00 0. -1.
         25    2    1    2    0    0 -0.97819046883E+02  0.13557041267E+02  0.27388675090E+03  0.31684655527E+03  0.12500171187E+03 0.  0.
          2    1    1    2  501    0  0.10362055629E+03  0.37564890854E+02 -0.29711973361E+03  0.31690452317E+03  0.00000000000E+00 0. -1.
          1    1    1    2  502    0 -0.58015094045E+01 -0.51121932121E+02  0.27021626287E+03  0.27507078757E+03  0.00000000000E+00 0. -1.
         22    1    3    3    0    0 -0.12295206828E+03 -0.11210851339E+02  0.22348937252E+03  0.25532409583E+03  0.00000000000E+00 0. -1.
         22    1    3    3    0    0  0.25133021397E+02  0.24767892607E+02  0.50397378378E+02  0.61522459445E+02  0.00000000000E+00 0. -1.
</event>
<event>
 7    1  0.7161109E-006  0.9384110E+02  0.7818608E-02  0.1462304E+00
          2   -1    0    0  502    0  0.00000000000E+00  0.00000000000E+00  0.13825495950E+04  0.13825495950E+04  0.00000000000E+00 0. -1.
          1   -1    0    0  501    0 -0.00000000000E+00 -0.00000000000E+00 -0.90473885639E+03  0.90473885639E+03  0.00000000000E+00 0. -1.
         25    2    1    2    0    0 -0.96762574534E+01 -0.96652991746E+02 -0.39011476009E+03  0.42100839392E+03  0.12499244351E+03 0.  0.
          2    1    1    2  501    0 -0.22005426758E+02  0.83234226338E+01 -0.49728852827E+03  0.49784475343E+03  0.00000000000E+00 0. -1.
          1    1    1    2  502    0  0.31681684212E+02  0.88329569113E+02  0.13652140270E+04  0.13684353040E+04  0.00000000000E+00 0. -1.
         22    1    3    3    0    0 -0.64442262957E+02 -0.36362581465E+02 -0.22578525640E+03  0.23760055680E+03  0.00000000000E+00 0.  1.
         22    1    3    3    0    0  0.54766005504E+02 -0.60290410282E+02 -0.16432950370E+03  0.18340783712E+03  0.00000000000E+00 0.  1.
</event>
<event>
 7    1  0.6253338E-006  0.9360317E+02  0.7818608E-02  0.1408880E+00
          2   -1    0    0  502    0  0.00000000000E+00  0.00000000000E+00  0.10863620759E+04  0.10863620759E+04  0.00000000000E+00 0. -1.
          1   -1    0    0  501    0 -0.00000000000E+00 -0.00000000000E+00 -0.30334504491E+02  0.30334504491E+02  0.00000000000E+00 0. -1.
         25    2    1    2    0    0 -0.11054362481E+03 -0.61082220871E+01  0.71820316110E+03  0.73735971257E+03  0.12500544685E+03 0.  0.
          2    1    1    2  501    0  0.27008111394E+02  0.22658193656E+02  0.47789601394E+01  0.35576260074E+02  0.00000000000E+00 0. -1.
          1    1    1    2  502    0  0.83535513413E+02 -0.16549971568E+02  0.33304545012E+03  0.34376060770E+03  0.00000000000E+00 0. -1.
         22    1    3    3    0    0  0.77238014082E+01  0.29460261914E+02  0.56071192988E+02  0.63808642231E+02  0.00000000000E+00 0.  1.
         22    1    3    3    0    0 -0.11826742622E+03 -0.35568484001E+02  0.66213196812E+03  0.67355107034E+03  0.00000000000E+00 0.  1.
</event>
<event>
 7    1  0.6253338E-006  0.4904448E+02  0.7818608E-02  0.1504047E+00
          2   -1    0    0  502    0  0.00000000000E+00  0.00000000000E+00  0.89917203214E+03  0.89917203214E+03  0.00000000000E+00 0. -1.
          1   -1    0    0  501    0 -0.00000000000E+00 -0.00000000000E+00 -0.12349247482E+04  0.12349247482E+04  0.00000000000E+00 0. -1.
         25    2    1    2    0    0  0.65415976994E+02 -0.40473467822E+02 -0.86017517305E+01  0.14702271500E+03  0.12499734777E+03 0.  0.
          2    1    1    2  501    0 -0.32045803260E+02  0.36886050215E+02 -0.11562570136E+04  0.11572889853E+04  0.00000000000E+00 0. -1.
          1    1    1    2  502    0 -0.33370173734E+02  0.35874176071E+01  0.82910604924E+03  0.82978507998E+03  0.00000000000E+00 0. -1.
         22    1    3    3    0    0  0.82887047475E+02 -0.64868096254E+02  0.18170523483E+02  0.10680964598E+03  0.00000000000E+00 0. -1.
         22    1    3    3    0    0 -0.17471070481E+02  0.24394628432E+02 -0.26772275214E+02  0.40213069022E+02  0.00000000000E+00 0. -1.
</event>
<event>
 7    1  0.6253338E-006  0.5046528E+02  0.7818608E-02  0.1534043E+00
          2   -1    0    0  502    0  0.00000000000E+00  0.00000000000E+00  0.20285714140E+04  0.20285714140E+04  0.00000000000E+00 0. -1.
          1   -1    0    0  501    0 -0.00000000000E+00 -0.00000000000E+00 -0.54987435593E+03  0.54987435593E+03  0.00000000000E+00 0. -1.
         25    2    1    2    0    0  0.38860969447E+02  0.20416712417E+02  0.12513977540E+04  0.12583913245E+04  0.12500147956E+03 0.  0.
          2    1    1    2  501    0 -0.25543164402E+02 -0.43537665986E+02 -0.54498082785E+03  0.54731351558E+03  0.00000000000E+00 0. -1.
          1    1    1    2  502    0 -0.13317805045E+02  0.23120953570E+02  0.77228013198E+03  0.77274092986E+03  0.00000000000E+00 0. -1.
         22    1    3    3    0    0 -0.17194451163E+02 -0.29720477547E+02  0.12946651286E+03  0.13394227819E+03  0.00000000000E+00 0.  1.
         22    1    3    3    0    0  0.56055420610E+02  0.50137189963E+02  0.11219312411E+04  0.11244490463E+04  0.00000000000E+00 0.  1.
</event>
<event>
 7    1  0.6253338E-006  0.1065768E+03  0.7818608E-02  0.1371881E+00
          2   -1    0    0  502    0  0.00000000000E+00  0.00000000000E+00  0.17190022976E+04  0.17190022976E+04  0.00000000000E+00 0. -1.
          1   -1    0    0  501    0 -0.00000000000E+00 -0.00000000000E+00 -0.33861550769E+02  0.33861550769E+02  0.00000000000E+00 0. -1.
         25    2    1    2    0    0 -0.40999788464E+01  0.69728597424E+02  0.28918466081E+03  0.32269494122E+03  0.12500147964E+03 0.  0.
          2    1    1    2  501    0 -0.42634978308E+01  0.41458535849E+02  0.14361373467E+02  0.44082158028E+02  0.00000000000E+00 0. -1.
          1    1    1    2  502    0  0.83634766772E+01 -0.11118713327E+03  0.13815947125E+04  0.13860867491E+04  0.00000000000E+00 0. -1.
         22    1    3    3    0    0 -0.29837819877E+02  0.33640367001E+02  0.18861847787E+02  0.48762066085E+02  0.00000000000E+00 0.  1.
         22    1    3    3    0    0  0.25737841031E+02  0.36088230424E+02  0.27032281302E+03  0.27393287513E+03  0.00000000000E+00 0.  1.
</event>
<event>
 7    1  0.6253338E-006  0.8990439E+02  0.7818608E-02  0.1349553E+00
          2   -1    0    0  502    0  0.00000000000E+00  0.00000000000E+00  0.54608424684E+03  0.54608424684E+03  0.00000000000E+00 0. -1.
          1   -1    0    0  501    0 -0.00000000000E+00 -0.00000000000E+00 -0.13934228492E+03  0.13934228492E+03  0.00000000000E+00 0. -1.
         25    2    1    2    0    0 -0.12202633449E+03 -0.54567949305E+01  0.27114255217E+03  0.32258838377E+03  0.12499911531E+03 0.  0.
          2    1    1    2  501    0  0.45511764503E+02  0.38468539223E+02 -0.98069153918E+02  0.11475499191E+03  0.00000000000E+00 0. -1.
          1    1    1    2  502    0  0.76514569989E+02 -0.33011744293E+02  0.23366856367E+03  0.24808315608E+03  0.00000000000E+00 0. -1.
         22    1    3    3    0    0 -0.75024192380E+02 -0.51494688405E+02  0.82594398944E+02  0.12289087482E+03  0.00000000000E+00 0. -1.
         22    1    3    3    0    0 -0.47002142112E+02  0.46037893474E+02  0.18854815323E+03  0.19969750896E+03  0.00000000000E+00 0. -1.
</event>
<event>
 7    1  0.6253338E-006  0.8437021E+02  0.7818608E-02  0.1373748E+00
          2   -1    0    0  502    0  0.00000000000E+00  0.00000000000E+00  0.10428823202E+04  0.10428823202E+04  0.00000000000E+00 0. -1.
          1   -1    0    0  501    0 -0.00000000000E+00 -0.00000000000E+00 -0.39746781185E+03  0.39746781185E+03  0.00000000000E+00 0. -1.
         25    2    1    2    0    0  0.12946937759E+03  0.28956760691E+02  0.10661155539E+02  0.18259304219E+03  0.12500298035E+03 0.  0.
          2    1    1    2  501    0 -0.81043404595E+02 -0.10447257047E+02 -0.30541655963E+03  0.31615890546E+03  0.00000000000E+00 0. -1.
          1    1    1    2  502    0 -0.48425972991E+02 -0.18509503644E+02  0.94016991247E+03  0.94159818442E+03  0.00000000000E+00 0. -1.
         22    1    3    3    0    0  0.13992673448E+03  0.48272150251E+02 -0.15044118297E+02  0.14878177646E+03  0.00000000000E+00 0.  1.
         22    1    3    3    0    0 -0.10457356895E+02 -0.19315389560E+02  0.25705273836E+02  0.33811265727E+02  0.00000000000E+00 0.  1.
</event>
<event>
 7    1  0.9335028E-006  0.1085373E+03  0.7818608E-02  0.1276778E+00
          2   -1    0    0  502    0  0.00000000000E+00  0.00000000000E+00  0.25508797814E+04  0.25508797814E+04  0.00000000000E+00 0. -1.
          1   -1    0    0  501    0 -0.00000000000E+00 -0.00000000000E+00 -0.14365150940E+04  0.14365150940E+04  0.00000000000E+00 0. -1.
         25    2    1    2    0    0 -0.84469759379E+02 -0.16551407542E+03 -0.30844433819E+03  0.38117283856E+03  0.12499909471E+03 0.  0.
          2    1    1    2  501    0  0.75951177596E+02  0.57526216853E+02 -0.10884578724E+04  0.10926199646E+04  0.00000000000E+00 0. -1.
          1    1    1    2  502    0  0.85185817830E+01  0.10798785857E+03  0.25112668981E+04  0.25136020722E+04  0.00000000000E+00 0. -1.
         22    1    3    3    0    0 -0.10612278962E+03 -0.11748381722E+03 -0.27907572612E+03  0.32085472522E+03  0.00000000000E+00 0. -1.
         22    1    3    3    0    0  0.21653030241E+02 -0.48030258203E+02 -0.29368612072E+02  0.60318113338E+02  0.00000000000E+00 0. -1.
</event>
<event>
 7    1  0.6253338E-006  0.4519206E+02  0.7818608E-02  0.1490367E+00
          2   -1    0    0  502    0  0.00000000000E+00  0.00000000000E+00  0.11160497498E+04  0.11160497498E+04  0.00000000000E+00 0. -1.
          1   -1    0    0  501    0 -0.00000000000E+00 -0.00000000000E+00 -0.31132190763E+03  0.31132190763E+03  0.00000000000E+00 0. -1.
         25    2    1    2    0    0 -0.75919228563E+02  0.33255955792E+02  0.21663960654E+03  0.26349111739E+03  0.12500064784E+03 0.  0.
          2    1    1    2  501    0  0.36524627302E+02 -0.26164886343E+02 -0.28568224543E+03  0.28919369812E+03  0.00000000000E+00 0. -1.
          1    1    1    2  502    0  0.39394601260E+02 -0.70910694489E+01  0.87377048108E+03  0.87468684195E+03  0.00000000000E+00 0. -1.
         22    1    3    3    0    0 -0.83147729352E+02 -0.20852682832E+02  0.83826680624E+02  0.11989700439E+03  0.00000000000E+00 0.  1.
         22    1    3    3    0    0  0.72285007893E+01  0.54108638624E+02  0.13281292591E+03  0.14359411300E+03  0.00000000000E+00 0.  1.
</event>
<event>
 7    1  0.6253338E-006  0.5917942E+02  0.7818608E-02  0.1539217E+00
          2   -1    0    0  502    0  0.00000000000E+00  0.00000000000E+00  0.35189514395E+03  0.35189514395E+03  0.00000000000E+00 0. -1.
          1   -1    0    0  501    0 -0.00000000000E+00 -0.00000000000E+00 -0.29137714965E+03  0.29137714965E+03  0.00000000000E+00 0. -1.
         25    2    1    2    0    0 -0.29171629983E+02  0.75087733748E+02 -0.81615415337E+02  0.16962553781E+03  0.12499038084E+03 0.  0.
          2    1    1    2  501    0  0.99304177663E+01 -0.19627358781E+02 -0.16220945580E+03  0.16369408652E+03  0.00000000000E+00 0. -1.
          1    1    1    2  502    0  0.19241212217E+02 -0.55460374967E+02  0.30434286544E+03  0.30995266926E+03  0.00000000000E+00 0. -1.
         22    1    3    3    0    0 -0.32754292218E+02 -0.25384395586E+02 -0.21829693740E+01  0.41496705330E+02  0.00000000000E+00 0.  1.
         22    1    3    3    0    0  0.35826622349E+01  0.10047212933E+03 -0.79432445963E+02  0.12812883248E+03  0.00000000000E+00 0.  1.
</event>
<event>
 7    1  0.6253338E-006  0.1148800E+03  0.7818608E-02  0.1277755E+00
          2   -1    0    0  502    0  0.00000000000E+00  0.00000000000E+00  0.15900755317E+04  0.15900755317E+04  0.00000000000E+00 0. -1.
          1   -1    0    0  501    0 -0.00000000000E+00 -0.00000000000E+00 -0.25679959867E+03  0.25679959867E+03  0.00000000000E+00 0. -1.
         25    2    1    2    0    0 -0.10688026056E+03 -0.79231759553E+02 -0.18230630281E+03  0.25799419847E+03  0.12499742630E+03 0.  0.
          2    1    1    2  501    0  0.82756233897E+02 -0.33237457247E+02  0.23303873284E+02  0.92175882546E+02  0.00000000000E+00 0. -1.
          1    1    1    2  502    0  0.24124026666E+02  0.11246921680E+03  0.14922783626E+04  0.14967050493E+04  0.00000000000E+00 0. -1.
         22    1    3    3    0    0 -0.13457038599E+03 -0.54994501228E+02 -0.15193585026E+03  0.21028097048E+03  0.00000000000E+00 0. -1.
         22    1    3    3    0    0  0.27690125430E+02 -0.24237258324E+02 -0.30370452553E+02  0.47713227995E+02  0.00000000000E+00 0. -1.
</event>
<event>
 7    1  0.6253338E-006  0.5364946E+02  0.7818608E-02  0.1504158E+00
          2   -1    0    0  502    0  0.00000000000E+00  0.00000000000E+00  0.69090107310E+03  0.69090107310E+03  0.00000000000E+00 0. -1.
          1   -1    0    0  501    0 -0.00000000000E+00 -0.00000000000E+00 -0.42937248172E+03  0.42937248172E+03  0.00000000000E+00 0. -1.
         25    2    1    2    0    0 -0.68026438375E+02 -0.46505101847E+02  0.40176010352E+03  0.42874966871E+03  0.12499910727E+03 0.  0.
          2    1    1    2  501    0  0.48340401298E+02  0.23002116761E+02 -0.41329348917E+03  0.41674620569E+03  0.00000000000E+00 0. -1.
          1    1    1    2  502    0  0.19686037077E+02  0.23502985086E+02  0.27306197702E+03  0.27477768042E+03  0.00000000000E+00 0. -1.
         22    1    3    3    0    0 -0.72145725283E+01 -0.68071171430E+02  0.30403425129E+03  0.31164492679E+03  0.00000000000E+00 0.  1.
         22    1    3    3    0    0 -0.60811865847E+02  0.21566069583E+02  0.97725852236E+02  0.11710474192E+03  0.00000000000E+00 0.  1.
</event>
<event>
 7    1  0.6253338E-006  0.1455278E+03  0.7818608E-02  0.1277727E+00
          2   -1    0    0  502    0  0.00000000000E+00  0.00000000000E+00  0.66361463834E+03  0.66361463834E+03  0.00000000000E+00 0. -1.
          1   -1    0    0  501    0 -0.00000000000E+00 -0.00000000000E+00 -0.26224125869E+03  0.26224125869E+03  0.00000000000E+00 0. -1.
         25    2    1    2    0    0 -0.31635830278E+02 -0.83070990821E+02  0.99980958706E+02  0.18309051557E+03  0.12499731803E+03 0.  0.
          2    1    1    2  501    0  0.77331273800E+02  0.13664985710E+03 -0.18992679409E+03  0.24642543795E+03  0.00000000000E+00 0. -1.
          1    1    1    2  502    0 -0.45695443522E+02 -0.53578866283E+02  0.49131921503E+03  0.49633994351E+03  0.00000000000E+00 0. -1.
         22    1    3    3    0    0  0.17157234768E+02 -0.52178839566E+02 -0.12786287277E+02  0.56395843336E+02  0.00000000000E+00 0. -1.
         22    1    3    3    0    0 -0.48793065046E+02 -0.30892151255E+02  0.11276724598E+03  0.12669467223E+03  0.00000000000E+00 0. -1.
</event>
<event>
 7    1  0.6253338E-006  0.1626646E+03  0.7818608E-02  0.1257802E+00
          2   -1    0    0  502    0  0.00000000000E+00  0.00000000000E+00  0.28752703048E+03  0.28752703048E+03  0.00000000000E+00 0. -1.
          1   -1    0    0  501    0 -0.00000000000E+00 -0.00000000000E+00 -0.93866859728E+03  0.93866859728E+03  0.00000000000E+00 0. -1.
         25    2    1    2    0    0  0.11332678213E+03 -0.81295911489E+02  0.45733914849E+02  0.19279222413E+03  0.12500106378E+03 0.  0.
          2    1    1    2  501    0 -0.74790075528E+02  0.14731145374E+03 -0.84805502926E+03  0.86399742619E+03  0.00000000000E+00 0. -1.
          1    1    1    2  502    0 -0.38536706598E+02 -0.66015542248E+02  0.15117954762E+03  0.16940597744E+03  0.00000000000E+00 0. -1.
         22    1    3    3    0    0  0.99700461086E+02 -0.57316261581E+01 -0.62605088490E+01  0.10006111857E+03  0.00000000000E+00 0.  1.
         22    1    3    3    0    0  0.13626321040E+02 -0.75564285331E+02  0.51994423698E+02  0.92731105560E+02  0.00000000000E+00 0.  1.
</event>
<event>
 7    1  0.6253338E-006  0.1262295E+03  0.7818608E-02  0.1333935E+00
          2   -1    0    0  502    0  0.00000000000E+00  0.00000000000E+00  0.17211517868E+04  0.17211517868E+04  0.00000000000E+00 0. -1.
          1   -1    0    0  501    0 -0.00000000000E+00 -0.00000000000E+00 -0.92076928189E+02  0.92076928189E+02  0.00000000000E+00 0. -1.
         25    2    1    2    0    0 -0.52405771816E+02 -0.10134928146E+03  0.26196651760E+02  0.17125721104E+03  0.12499890398E+03 0.  0.
          2    1    1    2  501    0  0.41565836688E+02 -0.25134526184E+02  0.17670196316E+02  0.51688480572E+02  0.00000000000E+00 0. -1.
          1    1    1    2  502    0  0.10839935129E+02  0.12648380765E+03  0.15852080105E+04  0.15902830234E+04  0.00000000000E+00 0. -1.
         22    1    3    3    0    0 -0.32903701924E+02 -0.13029458333E+02 -0.44215016161E+02  0.56633806502E+02  0.00000000000E+00 0. -1.
         22    1    3    3    0    0 -0.19502069892E+02 -0.88319823129E+02  0.70411667921E+02  0.11462340453E+03  0.00000000000E+00 0. -1.
</event>
<event>
 7    1  0.6253338E-006  0.2572951E+03  0.7818608E-02  0.1192896E+00
          2   -1    0    0  502    0  0.00000000000E+00  0.00000000000E+00  0.13363567868E+04  0.13363567868E+04  0.00000000000E+00 0. -1.
          1   -1    0    0  501    0 -0.00000000000E+00 -0.00000000000E+00 -0.14441239634E+04  0.14441239634E+04  0.00000000000E+00 0. -1.
         25    2    1    2    0    0  0.18855981713E+03 -0.19274555675E+02 -0.20101544726E+03  0.30324699866E+03  0.12500087609E+03 0.  0.
          2    1    1    2  501    0  0.68508848130E+02  0.65802936716E+02 -0.11767835109E+04  0.11806112486E+04  0.00000000000E+00 0. -1.
          1    1    1    2  502    0 -0.25706866526E+03 -0.46528381041E+02  0.12700317816E+04  0.12966225029E+04  0.00000000000E+00 0. -1.
         22    1    3    3    0    0  0.77342929914E+02 -0.44393556243E+02 -0.23421295811E+02  0.92202352144E+02  0.00000000000E+00 0.  1.
         22    1    3    3    0    0  0.11121688722E+03  0.25119000568E+02 -0.17759415145E+03  0.21104464651E+03  0.00000000000E+00 0.  1.
</event>
<event>
 7    1  0.6253338E-006  0.1145466E+03  0.7818608E-02  0.1349061E+00
          2   -1    0    0  502    0  0.00000000000E+00  0.00000000000E+00  0.40496326214E+03  0.40496326214E+03  0.00000000000E+00 0. -1.
          1   -1    0    0  501    0 -0.00000000000E+00 -0.00000000000E+00 -0.10510824450E+04  0.10510824450E+04  0.00000000000E+00 0. -1.
         25    2    1    2    0    0  0.15431091459E+03 -0.20421674209E+02  0.46791794502E+02  0.20504655811E+03  0.12500286324E+03 0.  0.
          2    1    1    2  501    0 -0.45721579523E+02  0.10750213915E+02 -0.96071128530E+03  0.96185872332E+03  0.00000000000E+00 0. -1.
          1    1    1    2  502    0 -0.10858933507E+03  0.96714602937E+01  0.26780030795E+03  0.28914042570E+03  0.00000000000E+00 0. -1.
         22    1    3    3    0    0  0.21302373410E+02  0.35456581806E+02  0.44505097929E+02  0.60759065562E+02  0.00000000000E+00 0.  1.
         22    1    3    3    0    0  0.13300854119E+03 -0.55878256015E+02  0.22866965731E+01  0.14428749254E+03  0.00000000000E+00 0.  1.
</event>
<event>
 7    1  0.6253338E-006  0.8304860E+02  0.7818608E-02  0.1377016E+00
          2   -1    0    0  502    0  0.00000000000E+00  0.00000000000E+00  0.44601844678E+03  0.44601844678E+03  0.00000000000E+00 0. -1.
          1   -1    0    0  501    0 -0.00000000000E+00 -0.00000000000E+00 -0.16335391030E+04  0.16335391030E+04  0.00000000000E+00 0. -1.
         25    2    1    2    0    0 -0.10265587015E+03 -0.61679365643E+02 -0.35381945217E+03  0.39389770904E+03  0.12499851452E+03 0.  0.
          2    1    1    2  501    0  0.79490014030E+02  0.15937644557E+02 -0.12568268478E+04  0.12594389212E+04  0.00000000000E+00 0. -1.
          1    1    1    2  502    0  0.23165856122E+02  0.45741721086E+02  0.42312564371E+03  0.42622091960E+03  0.00000000000E+00 0. -1.
         22    1    3    3    0    0  0.21277994865E+02 -0.39351677259E+02 -0.65973527867E+02  0.79710814497E+02  0.00000000000E+00 0.  1.
         22    1    3    3    0    0 -0.12393386502E+03 -0.22327688383E+02 -0.28784592430E+03  0.31418689455E+03  0.00000000000E+00 0.  1.
</event>
<event>
 7    1  0.6253338E-006  0.1051025E+03  0.7818608E-02  0.1303852E+00
          2   -1    0    0  502    0  0.00000000000E+00  0.00000000000E+00  0.82403905865E+03  0.82403905865E+03  0.00000000000E+00 0. -1.
          1   -1    0    0  501    0 -0.00000000000E+00 -0.00000000000E+00 -0.84795401414E+02  0.84795401414E+02  0.00000000000E+00 0. -1.
         25    2    1    2    0    0  0.59236553840E+02 -0.15314193475E+02  0.16319934689E+03  0.21447982153E+03  0.12499629268E+03 0.  0.
          2    1    1    2  501    0 -0.88142981258E+02  0.85995525607E+02  0.10403683026E+02  0.12358257236E+03  0.00000000000E+00 0. -1.
          1    1    1    2  502    0  0.28906427418E+02 -0.70681332132E+02  0.56564062732E+03  0.57077206618E+03  0.00000000000E+00 0. -1.
         22    1    3    3    0    0 -0.25788683145E+02  0.23819760911E+02  0.12865293201E+02  0.37389209103E+02  0.00000000000E+00 0.  1.
         22    1    3    3    0    0  0.85025236985E+02 -0.39133954386E+02  0.15033405369E+03  0.17709061242E+03  0.00000000000E+00 0.  1.
</event>
<event>
 7    1  0.6253338E-006  0.8224503E+02  0.7818608E-02  0.1324599E+00
          2   -1    0    0  502    0  0.00000000000E+00  0.00000000000E+00  0.22118535311E+03  0.22118535311E+03  0.00000000000E+00 0. -1.
          1   -1    0    0  501    0 -0.00000000000E+00 -0.00000000000E+00 -0.58069075199E+03  0.58069075199E+03  0.00000000000E+00 0. -1.
         25    2    1    2    0    0 -0.37976106892E+02 -0.72530849385E+01  0.13216781488E+02  0.13150815755E+03  0.12499968101E+03 0.  0.
          2    1    1    2  501    0 -0.35455075883E+02  0.72761851949E+02 -0.50167194071E+03  0.50815950803E+03  0.00000000000E+00 0. -1.
          1    1    1    2  502    0  0.73431182775E+02 -0.65508767011E+02  0.12894976034E+03  0.16220843952E+03  0.00000000000E+00 0. -1.
         22    1    3    3    0    0 -0.29087320631E+02 -0.65601812627E+02  0.52828524222E+01  0.71955392926E+02  0.00000000000E+00 0.  1.
         22    1    3    3    0    0 -0.88887862614E+01  0.58348727688E+02  0.79339290660E+01  0.59552764625E+02  0.00000000000E+00 0.  1.
</event>
<event>
 7    1  0.6253338E-006  0.1233277E+03  0.7818608E-02  0.1297300E+00
          2   -1    0    0  502    0  0.00000000000E+00  0.00000000000E+00  0.11908669968E+04  0.11908669968E+04  0.00000000000E+00 0. -1.
          1   -1    0    0  501    0 -0.00000000000E+00 -0.00000000000E+00 -0.32449325955E+03  0.32449325955E+03  0.00000000000E+00 0. -1.
         25    2    1    2    0    0  0.72045507169E+02 -0.13243177878E+03  0.78725239734E+02  0.21107250496E+03  0.12500083138E+03 0.  0.
          2    1    1    2  501    0 -0.10039121253E+03  0.69383870067E+02 -0.24268368020E+03  0.27163925639E+03  0.00000000000E+00 0. -1.
          1    1    1    2  502    0  0.28345705365E+02  0.63047908713E+02  0.10303321777E+04  0.10326484950E+04  0.00000000000E+00 0. -1.
         22    1    3    3    0    0  0.39827864016E+02 -0.53862893463E+02 -0.29762198463E+02  0.73302513611E+02  0.00000000000E+00 0.  1.
         22    1    3    3    0    0  0.32217643153E+02 -0.78568885317E+02  0.10848743820E+03  0.13776999135E+03  0.00000000000E+00 0.  1.
</event>
<event>
 7    1  0.6253338E-006  0.7025958E+02  0.7818608E-02  0.1431816E+00
          2   -1    0    0  502    0  0.00000000000E+00  0.00000000000E+00  0.10713990648E+03  0.10713990648E+03  0.00000000000E+00 0. -1.
          1   -1    0    0  501    0 -0.00000000000E+00 -0.00000000000E+00 -0.18716117173E+04  0.18716117173E+04  0.00000000000E+00 0. -1.
         25    2    1    2    0    0 -0.36188404989E+02 -0.42077884341E+02 -0.20204071981E+03  0.24397938707E+03  0.12500135939E+03 0.  0.
          2    1    1    2  501    0 -0.32738901153E+02  0.21875664604E+02 -0.16333553659E+04  0.16338298968E+04  0.00000000000E+00 0. -1.
          1    1    1    2  502    0  0.68927306142E+02  0.20202219737E+02  0.70924274899E+02  0.10094233990E+03  0.00000000000E+00 0. -1.
         22    1    3    3    0    0 -0.63404813348E+02 -0.79878547572E+01 -0.38248001936E+02  0.74477418265E+02  0.00000000000E+00 0.  1.
         22    1    3    3    0    0  0.27216408358E+02 -0.34090029584E+02 -0.16379271788E+03  0.16950196881E+03  0.00000000000E+00 0.  1.
</event>
<event>
 7    1  0.6253338E-006  0.1315832E+03  0.7818608E-02  0.1264648E+00
          2   -1    0    0  502    0  0.00000000000E+00  0.00000000000E+00  0.26951503474E+03  0.26951503474E+03  0.00000000000E+00 0. -1.
          1   -1    0    0  501    0 -0.00000000000E+00 -0.00000000000E+00 -0.18283411714E+04  0.18283411714E+04  0.00000000000E+00 0. -1.
         25    2    1    2    0    0 -0.20448032772E+03  0.34622792828E+02 -0.58315676253E+03  0.63143343918E+03  0.12500174484E+03 0.  0.
          2    1    1    2  501    0  0.12212962104E+03 -0.25953426874E+01 -0.12099150682E+04  0.12160661381E+04  0.00000000000E+00 0. -1.
          1    1    1    2  502    0  0.82350706674E+02 -0.32027450141E+02  0.23424569401E+03  0.25035662886E+03  0.00000000000E+00 0. -1.
         22    1    3    3    0    0 -0.37258233729E+02  0.10878309379E+02 -0.20341166859E+02  0.43820961477E+02  0.00000000000E+00 0.  1.
         22    1    3    3    0    0 -0.16722209399E+03  0.23744483449E+02 -0.56281559568E+03  0.58761247770E+03  0.00000000000E+00 0.  1.
</event>
<event>
 7    1  0.6253338E-006  0.6975504E+02  0.7818608E-02  0.1369503E+00
          2   -1    0    0  502    0  0.00000000000E+00  0.00000000000E+00  0.65755676978E+03  0.65755676978E+03  0.00000000000E+00 0. -1.
          1   -1    0    0  501    0 -0.00000000000E+00 -0.00000000000E+00 -0.40230875817E+03  0.40230875817E+03  0.00000000000E+00 0. -1.
         25    2    1    2    0    0  0.61707428107E+02  0.16980142893E+02  0.34895287543E+03  0.37615129367E+03  0.12500221808E+03 0.  0.
          2    1    1    2  501    0 -0.31300950354E+02  0.56901272113E+02 -0.38049822905E+03  0.38600052665E+03  0.00000000000E+00 0. -1.
          1    1    1    2  502    0 -0.30406477754E+02 -0.73881415006E+02  0.28679336523E+03  0.29771370763E+03  0.00000000000E+00 0. -1.
         22    1    3    3    0    0  0.29464571834E+02 -0.19179278978E+02  0.31508437576E+03  0.31703969718E+03  0.00000000000E+00 0.  1.
         22    1    3    3    0    0  0.32242856274E+02  0.36159421871E+02  0.33868499665E+02  0.59111596496E+02  0.00000000000E+00 0.  1.
</event>
<event>
 7    1  0.6253338E-006  0.1398525E+03  0.7818608E-02  0.1377888E+00
          2   -1    0    0  502    0  0.00000000000E+00  0.00000000000E+00  0.14410099542E+03  0.14410099542E+03  0.00000000000E+00 0. -1.
          1   -1    0    0  501    0 -0.00000000000E+00 -0.00000000000E+00 -0.23478521069E+03  0.23478521069E+03  0.00000000000E+00 0. -1.
         25    2    1    2    0    0  0.44102130198E+02 -0.11778422726E+03 -0.19259501546E+02  0.17837300412E+03  0.12501151195E+03 0.  0.
          2    1    1    2  501    0  0.18440863174E+02 -0.23955018084E+02 -0.23671475071E+02  0.38395925019E+02  0.00000000000E+00 0. -1.
          1    1    1    2  502    0 -0.62542993372E+02  0.14173924535E+03 -0.47753238652E+02  0.16211727697E+03  0.00000000000E+00 0. -1.
         22    1    3    3    0    0  0.59818479491E+02 -0.43119134925E+02  0.38020252089E+02  0.82964148005E+02  0.00000000000E+00 0. -1.
         22    1    3    3    0    0 -0.15716349293E+02 -0.74665092337E+02 -0.57279753635E+02  0.95408856115E+02  0.00000000000E+00 0. -1.
</event>
<event>
 7    1  0.6253338E-006  0.9629145E+02  0.7818608E-02  0.1463174E+00
          2   -1    0    0  502    0  0.00000000000E+00  0.00000000000E+00  0.22214040514E+03  0.22214040514E+03  0.00000000000E+00 0. -1.
          1   -1    0    0  501    0 -0.00000000000E+00 -0.00000000000E+00 -0.57012663809E+03  0.57012663809E+03  0.00000000000E+00 0. -1.
         25    2    1    2    0    0  0.56564033147E+02  0.93016762704E+02 -0.78148461151E+02  0.18325772575E+03  0.12499841630E+03 0.  0.
          2    1    1    2  501    0  0.65752609969E+01 -0.21814932793E+02 -0.42574432859E+03  0.42635356065E+03  0.00000000000E+00 0. -1.
          1    1    1    2  502    0 -0.63139294144E+02 -0.71201829911E+02  0.15590655680E+03  0.18265575682E+03  0.00000000000E+00 0. -1.
         22    1    3    3    0    0  0.35171117215E+02 -0.53131510708E+01 -0.74506333502E+02  0.82561678716E+02  0.00000000000E+00 0.  1.
         22    1    3    3    0    0  0.21392915932E+02  0.98329913775E+02 -0.36421276490E+01  0.10069604704E+03  0.00000000000E+00 0.  1.
</event>
<event>
 7    1  0.6253338E-006  0.6480865E+02  0.7818608E-02  0.1438240E+00
          2   -1    0    0  502    0  0.00000000000E+00  0.00000000000E+00  0.94117307350E+02  0.94117307350E+02  0.00000000000E+00 0. -1.
          1   -1    0    0  501    0 -0.00000000000E+00 -0.00000000000E+00 -0.16054657612E+04  0.16054657612E+04  0.00000000000E+00 0. -1.
         25    2    1    2    0    0 -0.13124124941E+02 -0.66717144841E+02 -0.37081119296E+03  0.39716856626E+03  0.12497403383E+03 0.  0.
          2    1    1    2  501    0  0.47482671610E+02  0.44952650264E+02 -0.12154316101E+04  0.12171891158E+04  0.00000000000E+00 0. -1.
          1    1    1    2  502    0 -0.34358546669E+02  0.21764494577E+02  0.74894349208E+02  0.85225386457E+02  0.00000000000E+00 0. -1.
         22    1    3    3    0    0 -0.59988902435E+02  0.45469182575E+00 -0.14261353849E+03  0.15471747322E+03  0.00000000000E+00 0.  1.
         22    1    3    3    0    0  0.46864777493E+02 -0.67171836667E+02 -0.22819765447E+03  0.24245109304E+03  0.00000000000E+00 0.  1.
</event>
<event>
 7    1  0.6253338E-006  0.8293709E+02  0.7818608E-02  0.1409856E+00
          2   -1    0    0  502    0  0.00000000000E+00  0.00000000000E+00  0.44037234219E+02  0.44037234219E+02  0.00000000000E+00 0. -1.
          1   -1    0    0  501    0 -0.00000000000E+00 -0.00000000000E+00 -0.94419121893E+03  0.94419121893E+03  0.00000000000E+00 0. -1.
         25    2    1    2    0    0  0.33040212279E+02  0.45183036751E+02 -0.44119026066E+03  0.46196232675E+03  0.12500873090E+03 0.  0.
          2    1    1    2  501    0 -0.51949126187E+02 -0.79846361096E+02 -0.47440103504E+03  0.48387032885E+03  0.00000000000E+00 0. -1.
          1    1    1    2  502    0  0.18908913908E+02  0.34663324345E+02  0.15437310983E+02  0.42395797554E+02  0.00000000000E+00 0. -1.
         22    1    3    3    0    0 -0.14791562990E+02 -0.28360806198E+02 -0.39617837612E+02  0.50918549871E+02  0.00000000000E+00 0. -1.
         22    1    3    3    0    0  0.47831775269E+02  0.73543842949E+02 -0.40157242304E+03  0.41104377688E+03  0.00000000000E+00 0. -1.
</event>
<event>
 7    1  0.6253338E-006  0.3757632E+02  0.7818608E-02  0.1548954E+00
          2   -1    0    0  502    0  0.00000000000E+00  0.00000000000E+00  0.86493481575E+03  0.86493481575E+03  0.00000000000E+00 0. -1.
          1   -1    0    0  501    0 -0.00000000000E+00 -0.00000000000E+00 -0.14209641631E+03  0.14209641631E+03  0.00000000000E+00 0. -1.
         25    2    1    2    0    0 -0.35334175038E+02  0.37471642030E+02  0.35346866654E+03  0.37844097475E+03  0.12499938107E+03 0.  0.
          2    1    1    2  501    0 -0.17278442351E+01 -0.32480384987E+02 -0.12685489084E+03  0.13095848267E+03  0.00000000000E+00 0. -1.
          1    1    1    2  502    0  0.37062019273E+02 -0.49912570426E+01  0.49622462374E+03  0.49763177463E+03  0.00000000000E+00 0. -1.
         22    1    3    3    0    0 -0.52272882910E+02  0.68262489981E+02  0.15837872886E+03  0.18021110838E+03  0.00000000000E+00 0.  1.
         22    1    3    3    0    0  0.16938707872E+02 -0.30790847951E+02  0.19508993767E+03  0.19822986638E+03  0.00000000000E+00 0.  1.
</event>
<event>
 7    1  0.6253338E-006  0.1182765E+03  0.7818608E-02  0.1269917E+00
          2   -1    0    0  502    0  0.00000000000E+00  0.00000000000E+00  0.10354098371E+04  0.10354098371E+04  0.00000000000E+00 0. -1.
          1   -1    0    0  501    0 -0.00000000000E+00 -0.00000000000E+00 -0.21304082188E+03  0.21304082188E+03  0.00000000000E+00 0. -1.
         25    2    1    2    0    0 -0.11566119504E+03  0.49610807936E+02  0.17855975120E+03  0.25168932830E+03  0.12500075571E+03 0.  0.
          2    1    1    2  501    0  0.24738919463E+01 -0.93363780182E+02 -0.15923282855E+03  0.18460230031E+03  0.00000000000E+00 0. -1.
          1    1    1    2  502    0  0.11318730309E+03  0.43752972246E+02  0.80304209258E+03  0.81215903038E+03  0.00000000000E+00 0. -1.
         22    1    3    3    0    0 -0.13154501193E+02 -0.38080767704E+02  0.58941202991E+02  0.71395036106E+02  0.00000000000E+00 0. -1.
         22    1    3    3    0    0 -0.10250669385E+03  0.87691575641E+02  0.11961854821E+03  0.18029429219E+03  0.00000000000E+00 0. -1.
</event>
<event>
 7    1  0.6253338E-006  0.1210812E+03  0.7818608E-02  0.1253401E+00
          2   -1    0    0  502    0  0.00000000000E+00  0.00000000000E+00  0.41002858118E+03  0.41002858118E+03  0.00000000000E+00 0. -1.
          1   -1    0    0  501    0 -0.00000000000E+00 -0.00000000000E+00 -0.88694810383E+03  0.88694810383E+03  0.00000000000E+00 0. -1.
         25    2    1    2    0    0 -0.50139841805E+02  0.47105159017E+01  0.64730174212E+02  0.14950113164E+03  0.12499760082E+03 0.  0.
          2    1    1    2  501    0 -0.96142709484E+02  0.47562997031E+02 -0.82092564068E+03  0.82790371832E+03  0.00000000000E+00 0. -1.
          1    1    1    2  502    0  0.14628255129E+03 -0.52273512933E+02  0.27927594382E+03  0.31957183505E+03  0.00000000000E+00 0. -1.
         22    1    3    3    0    0 -0.61799141571E+02 -0.31843916998E+02  0.81932262790E+02  0.10745261576E+03  0.00000000000E+00 0. -1.
         22    1    3    3    0    0  0.11659299767E+02  0.36554432900E+02 -0.17202088578E+02  0.42048515873E+02  0.00000000000E+00 0. -1.
</event>
<event>
 7    1  0.6253338E-006  0.7786843E+02  0.7818608E-02  0.1460736E+00
          2   -1    0    0  502    0  0.00000000000E+00  0.00000000000E+00  0.87142835402E+03  0.87142835402E+03  0.00000000000E+00 0. -1.
          1   -1    0    0  501    0 -0.00000000000E+00 -0.00000000000E+00 -0.25324897608E+03  0.25324897608E+03  0.00000000000E+00 0. -1.
         25    2    1    2    0    0  0.62379810741E+01  0.62091191237E+02  0.35140688718E+03  0.37816193842E+03  0.12500169148E+03 0.  0.
          2    1    1    2  501    0  0.25011421437E+02  0.14028656168E+02 -0.23565549839E+03  0.23739395173E+03  0.00000000000E+00 0. -1.
          1    1    1    2  502    0 -0.31249402511E+02 -0.76119847405E+02  0.50242798916E+03  0.50912143995E+03  0.00000000000E+00 0. -1.
         22    1    3    3    0    0 -0.28008178996E+02  0.76830322696E+02  0.12959927028E+03  0.15324270760E+03  0.00000000000E+00 0.  1.
         22    1    3    3    0    0  0.34246160070E+02 -0.14739131459E+02  0.22180761690E+03  0.22491923082E+03  0.00000000000E+00 0.  1.
</event>
<event>
 7    1  0.6253338E-006  0.9239806E+02  0.7818608E-02  0.1471396E+00
          2   -1    0    0  502    0  0.00000000000E+00  0.00000000000E+00  0.14673484999E+04  0.14673484999E+04  0.00000000000E+00 0. -1.
          1   -1    0    0  501    0 -0.00000000000E+00 -0.00000000000E+00 -0.47424053190E+03  0.47424053190E+03  0.00000000000E+00 0. -1.
         25    2    1    2    0    0  0.75589090457E+02  0.74188264997E+02 -0.16288940994E+03  0.23103149690E+03  0.12499993373E+03 0.  0.
          2    1    1    2  501    0 -0.53295681944E+02 -0.72205143415E+02 -0.26992833609E+03  0.28445618129E+03  0.00000000000E+00 0. -1.
          1    1    1    2  502    0 -0.22293408513E+02 -0.19831215816E+01  0.14259257140E+04  0.14261013536E+04  0.00000000000E+00 0. -1.
         22    1    3    3    0    0  0.99081865871E+02  0.28826088658E+02 -0.68966747092E+02  0.12411515514E+03  0.00000000000E+00 0. -1.
         22    1    3    3    0    0 -0.23492775414E+02  0.45362176339E+02 -0.93922662849E+02  0.10691634176E+03  0.00000000000E+00 0. -1.
</event>
<event>
 7    1  0.6253338E-006  0.5342083E+02  0.7818608E-02  0.1454889E+00
          2   -1    0    0  502    0  0.00000000000E+00  0.00000000000E+00  0.11820890797E+04  0.11820890797E+04  0.00000000000E+00 0. -1.
          1   -1    0    0  501    0 -0.00000000000E+00 -0.00000000000E+00 -0.32975128438E+02  0.32975128438E+02  0.00000000000E+00 0. -1.
         25    2    1    2    0    0  0.14565097124E+02 -0.35268280976E+01  0.35940879261E+03  0.38082274371E+03  0.12500680520E+03 0.  0.
          2    1    1    2  501    0  0.42162619271E+02  0.11181540885E+02  0.11745571575E+01  0.43635913017E+02  0.00000000000E+00 0. -1.
          1    1    1    2  502    0 -0.56727716395E+02 -0.76547127874E+01  0.78853060145E+03  0.79060555137E+03  0.00000000000E+00 0. -1.
         22    1    3    3    0    0 -0.17040994566E+02  0.27968770581E+02  0.31883881876E+03  0.32051652059E+03  0.00000000000E+00 0.  1.
         22    1    3    3    0    0  0.31606091690E+02 -0.31495598678E+02  0.40569973849E+02  0.60306223113E+02  0.00000000000E+00 0.  1.
</event>
<event>
 7    1  0.6253338E-006  0.1848796E+03  0.7818608E-02  0.1272337E+00
          2   -1    0    0  502    0  0.00000000000E+00  0.00000000000E+00  0.25159909929E+03  0.25159909929E+03  0.00000000000E+00 0. -1.
          1   -1    0    0  501    0 -0.00000000000E+00 -0.00000000000E+00 -0.30182598922E+03  0.30182598922E+03  0.00000000000E+00 0. -1.
         25    2    1    2    0    0 -0.15745760991E+03 -0.77378881343E+01 -0.29263072345E+02  0.20331083530E+03  0.12500477797E+03 0.  0.
          2    1    1    2  501    0  0.19867844775E+03  0.49065661992E+02 -0.11847501864E+03  0.23646753440E+03  0.00000000000E+00 0. -1.
          1    1    1    2  502    0 -0.41220837833E+02 -0.41327773857E+02  0.97511201059E+02  0.11364671881E+03  0.00000000000E+00 0. -1.
         22    1    3    3    0    0 -0.15030574064E+03 -0.16243970359E+02 -0.65978008310E+02  0.16495084062E+03  0.00000000000E+00 0.  1.
         22    1    3    3    0    0 -0.71518692793E+01  0.85060822247E+01  0.36714935965E+02  0.38359994681E+02  0.00000000000E+00 0.  1.
</event>
<event>
 7    1  0.6253338E-006  0.5846953E+02  0.7818608E-02  0.1546092E+00
          2   -1    0    0  502    0  0.00000000000E+00  0.00000000000E+00  0.19748731223E+03  0.19748731223E+03  0.00000000000E+00 0. -1.
          1   -1    0    0  501    0 -0.00000000000E+00 -0.00000000000E+00 -0.45027576792E+03  0.45027576792E+03  0.00000000000E+00 0. -1.
         25    2    1    2    0    0 -0.10753896343E+02 -0.73134945560E+02  0.68887579246E+02  0.16073245302E+03  0.12500022532E+03 0.  0.
          2    1    1    2  501    0  0.11899919119E+02  0.17656870704E+02 -0.39472327908E+03  0.39529715431E+03  0.00000000000E+00 0. -1.
          1    1    1    2  502    0 -0.11460227765E+01  0.55478074855E+02  0.73047244142E+02  0.91733472815E+02  0.00000000000E+00 0. -1.
         22    1    3    3    0    0 -0.17598260590E+02 -0.73694727322E+02  0.10191804805E+03  0.12699566973E+03  0.00000000000E+00 0.  1.
         22    1    3    3    0    0  0.68443642476E+01  0.55978176280E+00 -0.33030468804E+02  0.33736783294E+02  0.00000000000E+00 0.  1.
</event>
<event>
 7    1  0.6253338E-006  0.1028338E+03  0.7818608E-02  0.1319990E+00
          2   -1    0    0  502    0  0.00000000000E+00  0.00000000000E+00  0.37851119091E+03  0.37851119091E+03  0.00000000000E+00 0. -1.
          1   -1    0    0  501    0 -0.00000000000E+00 -0.00000000000E+00 -0.66079708444E+03  0.66079708444E+03  0.00000000000E+00 0. -1.
         25    2    1    2    0    0  0.50619668162E+02 -0.12797499789E+02 -0.10904216968E+03  0.17390243466E+03  0.12500294080E+03 0.  0.
          2    1    1    2  501    0  0.50772798525E+02  0.44397055560E+02 -0.50889944521E+03  0.51334941409E+03  0.00000000000E+00 0. -1.
          1    1    1    2  502    0 -0.10139246669E+03 -0.31599555770E+02  0.33565572136E+03  0.35205642660E+03  0.00000000000E+00 0. -1.
         22    1    3    3    0    0  0.56536569606E+02 -0.59784619678E+02 -0.92347721281E+02  0.12368785744E+03  0.00000000000E+00 0.  1.
         22    1    3    3    0    0 -0.59169014438E+01  0.46987119889E+02 -0.16694448395E+02  0.50214577220E+02  0.00000000000E+00 0.  1.
</event>
<event>
 7    1  0.6253338E-006  0.4113270E+02  0.7818608E-02  0.1515972E+00
          2   -1    0    0  502    0  0.00000000000E+00  0.00000000000E+00  0.55770075316E+03  0.55770075316E+03  0.00000000000E+00 0. -1.
          1   -1    0    0  501    0 -0.00000000000E+00 -0.00000000000E+00 -0.41110930722E+03  0.41110930722E+03  0.00000000000E+00 0. -1.
         25    2    1    2    0    0 -0.23518216002E+02  0.15753132597E+02  0.24209406661E+03  0.27392617259E+03  0.12499897310E+03 0.  0.
          2    1    1    2  501    0 -0.32998956006E+01 -0.41114616374E+02 -0.39297326599E+03  0.39513198905E+03  0.00000000000E+00 0. -1.
          1    1    1    2  502    0  0.26818111603E+02  0.25361483777E+02  0.29747064532E+03  0.29975189874E+03  0.00000000000E+00 0. -1.
         22    1    3    3    0    0  0.61777847193E+01  0.17064086502E+02  0.24349298718E+03  0.24416834946E+03  0.00000000000E+00 0.  1.
         22    1    3    3    0    0 -0.29696000722E+02 -0.13109539050E+01 -0.13989205711E+01  0.29757823136E+02  0.00000000000E+00 0.  1.
</event>
<event>
 7    1  0.6253338E-006  0.5203844E+02  0.7818608E-02  0.1482795E+00
          2   -1    0    0  502    0  0.00000000000E+00  0.00000000000E+00  0.11240188430E+04  0.11240188430E+04  0.00000000000E+00 0. -1.
          1   -1    0    0  501    0 -0.00000000000E+00 -0.00000000000E+00 -0.12718386635E+03  0.12718386635E+03  0.00000000000E+00 0. -1.
         25    2    1    2    0    0 -0.72442836526E+02  0.44915807393E+02 -0.11194656658E+02  0.15170933884E+03  0.12500003535E+03 0.  0.
          2    1    1    2  501    0  0.23422569207E+02 -0.28193398864E+02 -0.37642140689E+02  0.52539654009E+02  0.00000000000E+00 0. -1.
          1    1    1    2  502    0  0.49020267319E+02 -0.16722408529E+02  0.10456717740E+04  0.10469537165E+04  0.00000000000E+00 0. -1.
         22    1    3    3    0    0 -0.57996444350E+02  0.42907878339E+02  0.50662875998E+02  0.88155547671E+02  0.00000000000E+00 0. -1.
         22    1    3    3    0    0 -0.14446392176E+02  0.20079290544E+01 -0.61857532656E+02  0.63553791171E+02  0.00000000000E+00 0. -1.
</event>
<event>
 7    1  0.6253338E-006  0.1187344E+03  0.7818608E-02  0.1347683E+00
          2   -1    0    0  502    0  0.00000000000E+00  0.00000000000E+00  0.17944670965E+04  0.17944670965E+04  0.00000000000E+00 0. -1.
          1   -1    0    0  501    0 -0.00000000000E+00 -0.00000000000E+00 -0.20689694132E+02  0.20689694132E+02  0.00000000000E+00 0. -1.
         25    2    1    2    0    0 -0.86909552523E+02  0.60601752565E+02  0.43658802943E+03  0.46631156461E+03  0.12494608881E+03 0.  0.
          2    1    1    2  501    0 -0.32744439031E+02 -0.32092772667E+02  0.20898054540E+03  0.21395095864E+03  0.00000000000E+00 0. -1.
          1    1    1    2  502    0  0.11965399155E+03 -0.28508979898E+02  0.11282088275E+04  0.11348942674E+04  0.00000000000E+00 0. -1.
         22    1    3    3    0    0 -0.28368620032E+02  0.32355054681E+02  0.25296056325E+02  0.49915114259E+02  0.00000000000E+00 0. -1.
         22    1    3    3    0    0 -0.58540932491E+02  0.28246697884E+02  0.41129197311E+03  0.41639645035E+03  0.00000000000E+00 0. -1.
</event>
<event>
 7    1  0.6253338E-006  0.2051592E+03  0.7818608E-02  0.1196565E+00
          2   -1    0    0  502    0  0.00000000000E+00  0.00000000000E+00  0.86607643906E+03  0.86607643906E+03  0.00000000000E+00 0. -1.
          1   -1    0    0  501    0 -0.00000000000E+00 -0.00000000000E+00 -0.77321912548E+03  0.77321912548E+03  0.00000000000E+00 0. -1.
         25    2    1    2    0    0  0.11836438094E+03  0.16716387239E+03 -0.23689138159E+03  0.33718905605E+03  0.12500018376E+03 0.  0.
          2    1    1    2  501    0  0.72619614549E+02 -0.88443606826E+02 -0.46607059938E+03  0.47991424610E+03  0.00000000000E+00 0. -1.
          1    1    1    2  502    0 -0.19098399549E+03 -0.78720265561E+02  0.79581929455E+03  0.82219226238E+03  0.00000000000E+00 0. -1.
         22    1    3    3    0    0  0.87437780249E+02  0.17021088516E+03 -0.14471676147E+03  0.23991676034E+03  0.00000000000E+00 0. -1.
         22    1    3    3    0    0  0.30926600693E+02 -0.30470127778E+01 -0.92174620123E+02  0.97272295707E+02  0.00000000000E+00 0. -1.
</event>
<event>
 7    1  0.6253338E-006  0.5304567E+02  0.7818608E-02  0.1433379E+00
          2   -1    0    0  502    0  0.00000000000E+00  0.00000000000E+00  0.96979710694E+03  0.96979710694E+03  0.00000000000E+00 0. -1.
          1   -1    0    0  501    0 -0.00000000000E+00 -0.00000000000E+00 -0.65136830456E+03  0.65136830456E+03  0.00000000000E+00 0. -1.
         25    2    1    2    0    0 -0.42725730852E+00  0.46340821984E+02 -0.22163179055E+03  0.25863720825E+03  0.12499960233E+03 0.  0.
          2    1    1    2  501    0 -0.48199156546E+02 -0.25143759028E+02 -0.40869303647E+03  0.41229281509E+03  0.00000000000E+00 0. -1.
          1    1    1    2  502    0  0.48626413855E+02 -0.21197062956E+02  0.94875362940E+03  0.95023538816E+03  0.00000000000E+00 0. -1.
         22    1    3    3    0    0  0.20955661663E+02 -0.35790049155E+02 -0.37607384790E+02  0.55985558540E+02  0.00000000000E+00 0. -1.
         22    1    3    3    0    0 -0.21382918972E+02  0.82130871139E+02 -0.18402440576E+03  0.20265164971E+03  0.00000000000E+00 0. -1.
</event>
<event>
 7    1  0.6253338E-006  0.1716685E+03  0.7818608E-02  0.1307852E+00
          2   -1    0    0  502    0  0.00000000000E+00  0.00000000000E+00  0.51733369940E+03  0.51733369940E+03  0.00000000000E+00 0. -1.
          1   -1    0    0  501    0 -0.00000000000E+00 -0.00000000000E+00 -0.19144514350E+03  0.19144514350E+03  0.00000000000E+00 0. -1.
         25    2    1    2    0    0  0.48254798422E+02 -0.15530122083E+03  0.25550597789E+03  0.32764964960E+03  0.12499597347E+03 0.  0.
          2    1    1    2  501    0 -0.71785536537E+01  0.17386450171E+03 -0.10284541538E+03  0.20213257049E+03  0.00000000000E+00 0. -1.
          1    1    1    2  502    0 -0.41076244769E+02 -0.18563280877E+02  0.17322799339E+03  0.17899662281E+03  0.00000000000E+00 0. -1.
         22    1    3    3    0    0  0.11671319239E+02 -0.10423320058E+03  0.56856468358E+02  0.11930397223E+03  0.00000000000E+00 0.  1.
         22    1    3    3    0    0  0.36583479183E+02 -0.51068020250E+02  0.19864950953E+03  0.20834567737E+03  0.00000000000E+00 0.  1.
</event>
<event>
 7    1  0.6253338E-006  0.4828123E+02  0.7818608E-02  0.1496306E+00
          2   -1    0    0  502    0  0.00000000000E+00  0.00000000000E+00  0.10357011094E+04  0.10357011094E+04  0.00000000000E+00 0. -1.
          1   -1    0    0  501    0 -0.00000000000E+00 -0.00000000000E+00 -0.77175011146E+02  0.77175011146E+02  0.00000000000E+00 0. -1.
         25    2    1    2    0    0 -0.80823805886E+02  0.99512709340E+01  0.33530016575E+03  0.36699347843E+03  0.12500598652E+03 0.  0.
          2    1    1    2  501    0  0.45162404765E+02 -0.14537794720E+02 -0.51601620933E+02  0.70097914109E+02  0.00000000000E+00 0. -1.
          1    1    1    2  502    0  0.35661401122E+02  0.45865237864E+01  0.67482755344E+03  0.67578472801E+03  0.00000000000E+00 0. -1.
         22    1    3    3    0    0  0.27182585289E+02  0.16156038828E+02  0.32049039161E+02  0.45022788061E+02  0.00000000000E+00 0. -1.
         22    1    3    3    0    0 -0.10800639118E+03 -0.62047678944E+01  0.30325112659E+03  0.32197069037E+03  0.00000000000E+00 0. -1.
</event>
<event>
 7    1  0.6253338E-006  0.1526591E+03  0.7818608E-02  0.1407611E+00
          2   -1    0    0  502    0  0.00000000000E+00  0.00000000000E+00  0.11592139477E+04  0.11592139477E+04  0.00000000000E+00 0. -1.
          1   -1    0    0  501    0 -0.00000000000E+00 -0.00000000000E+00 -0.69632232440E+03  0.69632232440E+03  0.00000000000E+00 0. -1.
         25    2    1    2    0    0  0.14016916733E+03 -0.93772153652E+02  0.77224495428E+03  0.80026769171E+03  0.12500198689E+03 0.  0.
          2    1    1    2  501    0 -0.11845505652E+03  0.96034495321E+02 -0.67345951934E+03  0.69050847127E+03  0.00000000000E+00 0. -1.
          1    1    1    2  502    0 -0.21714110804E+02 -0.22623416692E+01  0.36410618836E+03  0.36476010912E+03  0.00000000000E+00 0. -1.
         22    1    3    3    0    0  0.16009647167E+02  0.29708986780E+02  0.97701084428E+02  0.10336553873E+03  0.00000000000E+00 0.  1.
         22    1    3    3    0    0  0.12415952016E+03 -0.12348114043E+03  0.67454386985E+03  0.69690215299E+03  0.00000000000E+00 0.  1.
</event>
<event>
 7    1  0.6253338E-006  0.1892761E+03  0.7818608E-02  0.1298576E+00
          2   -1    0    0  502    0  0.00000000000E+00  0.00000000000E+00  0.13557401056E+04  0.13557401056E+04  0.00000000000E+00 0. -1.
          1   -1    0    0  501    0 -0.00000000000E+00 -0.00000000000E+00 -0.65794674425E+03  0.65794674425E+03  0.00000000000E+00 0. -1.
         25    2    1    2    0    0  0.19568152753E+03  0.12216736574E+03  0.73431220773E+02  0.27245836059E+03  0.12500115439E+03 0.  0.
          2    1    1    2  501    0 -0.36707539547E+02 -0.25178659763E+02 -0.55019875777E+03  0.55199645055E+03  0.00000000000E+00 0. -1.
          1    1    1    2  502    0 -0.15897398798E+03 -0.96988705981E+02  0.11745608984E+04  0.11892320387E+04  0.00000000000E+00 0. -1.
         22    1    3    3    0    0  0.26609003788E+01  0.59264066284E+02  0.18624570423E+02  0.62178650410E+02  0.00000000000E+00 0.  1.
         22    1    3    3    0    0  0.19302062715E+03  0.62903299460E+02  0.54806650350E+02  0.21027971018E+03  0.00000000000E+00 0.  1.
</event>
<event>
 7    1  0.6253338E-006  0.5952140E+02  0.7818608E-02  0.1540828E+00
          2   -1    0    0  502    0  0.00000000000E+00  0.00000000000E+00  0.41920156545E+03  0.41920156545E+03  0.00000000000E+00 0. -1.
          1   -1    0    0  501    0 -0.00000000000E+00 -0.00000000000E+00 -0.31972175654E+03  0.31972175654E+03  0.00000000000E+00 0. -1.
         25    2    1    2    0    0  0.13491965935E+02  0.38033447117E+02 -0.42130457807E+02  0.13794533467E+03  0.12500145454E+03 0.  0.
          2    1    1    2  501    0 -0.27148627074E+02 -0.54822388815E+02 -0.22528574872E+03  0.23344423498E+03  0.00000000000E+00 0. -1.
          1    1    1    2  502    0  0.13656661139E+02  0.16788941698E+02  0.36689601544E+03  0.36753375233E+03  0.00000000000E+00 0. -1.
         22    1    3    3    0    0 -0.81706998850E+00 -0.12023438695E+02  0.39404740434E+02  0.41206361767E+02  0.00000000000E+00 0. -1.
         22    1    3    3    0    0  0.14309035923E+02  0.50056885812E+02 -0.81535198241E+02  0.96738972904E+02  0.00000000000E+00 0. -1.
</event>
<event>
 7    1  0.6253338E-006  0.4830268E+02  0.7818608E-02  0.1473988E+00
          2   -1    0    0  502    0  0.00000000000E+00  0.00000000000E+00  0.99984334572E+01  0.99984334572E+01  0.00000000000E+00 0. -1.
          1   -1    0    0  501    0 -0.00000000000E+00 -0.00000000000E+00 -0.26423162732E+04  0.26423162732E+04  0.00000000000E+00 0. -1.
         25    2    1    2    0    0 -0.28472701962E+02 -0.40188521698E+02 -0.12634949442E+04  0.12706175682E+04  0.12499487515E+03 0.  0.
          2    1    1    2  501    0 -0.20942911260E+02  0.36439321147E+02 -0.12741043141E+04  0.12747973301E+04  0.00000000000E+00 0. -1.
          1    1    1    2  502    0  0.49415613223E+02  0.37492005510E+01 -0.94718581545E+02  0.10689980835E+03  0.00000000000E+00 0. -1.
         22    1    3    3    0    0  0.74939189459E+01  0.42057632055E+02 -0.51231737184E+03  0.51409541208E+03  0.00000000000E+00 0. -1.
         22    1    3    3    0    0 -0.35966620908E+02 -0.82246153753E+02 -0.75117757232E+03  0.75652215617E+03  0.00000000000E+00 0. -1.
</event>
<event>
 7    1  0.6253338E-006  0.7286627E+02  0.7818608E-02  0.1405335E+00
          2   -1    0    0  502    0  0.00000000000E+00  0.00000000000E+00  0.13865753645E+03  0.13865753645E+03  0.00000000000E+00 0. -1.
          1   -1    0    0  501    0 -0.00000000000E+00 -0.00000000000E+00 -0.21812317973E+04  0.21812317973E+04  0.00000000000E+00 0. -1.
         25    2    1    2    0    0 -0.20842584817E+02 -0.33740844877E+02 -0.42515370360E+03  0.44491511581E+03  0.12498372148E+03 0.  0.
          2    1    1    2  501    0  0.23765391629E+02 -0.40040626452E+02 -0.17352746796E+04  0.17358992653E+04  0.00000000000E+00 0. -1.
          1    1    1    2  502    0 -0.29228068122E+01  0.73781471329E+02  0.11785412232E+03  0.13907495267E+03  0.00000000000E+00 0. -1.
         22    1    3    3    0    0  0.44385822516E+02  0.35030867091E+01 -0.25588107128E+03  0.25972580830E+03  0.00000000000E+00 0.  1.
         22    1    3    3    0    0 -0.65228407333E+02 -0.37243931586E+02 -0.16927263232E+03  0.18518930751E+03  0.00000000000E+00 0.  1.
</event>
<event>
 7    1  0.6253338E-006  0.9086381E+02  0.7818608E-02  0.1322911E+00
          2   -1    0    0  502    0  0.00000000000E+00  0.00000000000E+00  0.64542552104E+03  0.64542552104E+03  0.00000000000E+00 0. -1.
          1   -1    0    0  501    0 -0.00000000000E+00 -0.00000000000E+00 -0.18112500063E+03  0.18112500063E+03  0.00000000000E+00 0. -1.
         25    2    1    2    0    0 -0.19582090714E+02 -0.11470851421E+03  0.19909050198E+03  0.26229938761E+03  0.12498975658E+03 0.  0.
          2    1    1    2  501    0  0.64831300972E+02  0.36436901356E+02 -0.13490662154E+03  0.15404720673E+03  0.00000000000E+00 0. -1.
          1    1    1    2  502    0 -0.45249210258E+02  0.78271612859E+02  0.40011663998E+03  0.41020392733E+03  0.00000000000E+00 0. -1.
         22    1    3    3    0    0 -0.35718268471E+02  0.14370350449E+02  0.29173690912E+02  0.48305340451E+02  0.00000000000E+00 0.  1.
         22    1    3    3    0    0  0.16136177757E+02 -0.12907886466E+03  0.16991681107E+03  0.21399404716E+03  0.00000000000E+00 0.  1.
</event>
<event>
 7    1  0.6253338E-006  0.6986281E+02  0.7818608E-02  0.1365184E+00
          2   -1    0    0  502    0  0.00000000000E+00  0.00000000000E+00  0.35062970590E+03  0.35062970590E+03  0.00000000000E+00 0. -1.
          1   -1    0    0  501    0 -0.00000000000E+00 -0.00000000000E+00 -0.82784477887E+03  0.82784477887E+03  0.00000000000E+00 0. -1.
         25    2    1    2    0    0 -0.56342087357E+02  0.67722812368E+02 -0.70224212801E+02  0.16827864441E+03  0.12500180790E+03 0.  0.
          2    1    1    2  501    0 -0.13859287140E+02 -0.65766945523E+02 -0.70288021401E+03  0.70608637305E+03  0.00000000000E+00 0. -1.
          1    1    1    2  502    0  0.70201374496E+02 -0.19558668451E+01  0.29588935384E+03  0.30410946732E+03  0.00000000000E+00 0. -1.
         22    1    3    3    0    0 -0.93090687950E+02  0.65648755100E+02 -0.64862469035E+02  0.13108308479E+03  0.00000000000E+00 0.  1.
         22    1    3    3    0    0  0.36748600593E+02  0.20740572676E+01 -0.53617437654E+01  0.37195559619E+02  0.00000000000E+00 0.  1.
</event>
<event>
 7    1  0.6253338E-006  0.7683764E+02  0.7818608E-02  0.1413509E+00
          2   -1    0    0  502    0  0.00000000000E+00  0.00000000000E+00  0.14455163100E+04  0.14455163100E+04  0.00000000000E+00 0. -1.
          1   -1    0    0  501    0 -0.00000000000E+00 -0.00000000000E+00 -0.27033501645E+04  0.27033501645E+04  0.00000000000E+00 0. -1.
         25    2    1    2    0    0  0.32452860667E+02 -0.23945437452E+02  0.37261818149E+03  0.39508959947E+03  0.12499964116E+03 0.  0.
          2    1    1    2  501    0 -0.42371929626E+02  0.64165510358E+02 -0.26911610048E+04  0.26922593016E+04  0.00000000000E+00 0. -1.
          1    1    1    2  502    0  0.99190689587E+01 -0.40220072906E+02  0.10607089688E+04  0.10615175734E+04  0.00000000000E+00 0. -1.
         22    1    3    3    0    0 -0.36176188899E+01 -0.34217696478E+01  0.34545262504E+03  0.34548851185E+03  0.00000000000E+00 0.  1.
         22    1    3    3    0    0  0.36070479557E+02 -0.20523667804E+02  0.27165556453E+02  0.49601087619E+02  0.00000000000E+00 0.  1.
</event>
<event>
 7    1  0.6253338E-006  0.8413817E+02  0.7818608E-02  0.1331951E+00
          2   -1    0    0  502    0  0.00000000000E+00  0.00000000000E+00  0.21188082134E+03  0.21188082134E+03  0.00000000000E+00 0. -1.
          1   -1    0    0  501    0 -0.00000000000E+00 -0.00000000000E+00 -0.55189312528E+03  0.55189312528E+03  0.00000000000E+00 0. -1.
         25    2    1    2    0    0  0.67605076946E+02 -0.12032084994E+03 -0.31731678542E+03  0.36791728435E+03  0.12500252980E+03 0.  0.
          2    1    1    2  501    0  0.13956752269E+01  0.74138365283E+02 -0.19280113384E+03  0.20656892876E+03  0.00000000000E+00 0. -1.
          1    1    1    2  502    0 -0.69000752173E+02  0.46182484654E+02  0.17010561533E+03  0.18928773351E+03  0.00000000000E+00 0. -1.
         22    1    3    3    0    0  0.13185304058E+02  0.14266397071E+02 -0.51081005980E+00  0.19433045449E+02  0.00000000000E+00 0.  1.
         22    1    3    3    0    0  0.54419772888E+02 -0.13458724701E+03 -0.31680597536E+03  0.34848423890E+03  0.00000000000E+00 0.  1.
</event>
<event>
 7    1  0.6253338E-006  0.5448896E+02  0.7818608E-02  0.1465536E+00
          2   -1    0    0  502    0  0.00000000000E+00  0.00000000000E+00  0.13431875921E+03  0.13431875921E+03  0.00000000000E+00 0. -1.
          1   -1    0    0  501    0 -0.00000000000E+00 -0.00000000000E+00 -0.93109079511E+03  0.93109079511E+03  0.00000000000E+00 0. -1.
         25    2    1    2    0    0  0.10107250306E+01  0.47243928097E+02 -0.18188208449E+03  0.22569654085E+03  0.12499930234E+03 0.  0.
          2    1    1    2  501    0  0.38587405000E+02 -0.88222834093E+01 -0.71995463129E+03  0.72104194859E+03  0.00000000000E+00 0. -1.
          1    1    1    2  502    0 -0.39598130031E+02 -0.38421644688E+02  0.10506467988E+03  0.11867106488E+03  0.00000000000E+00 0. -1.
         22    1    3    3    0    0 -0.60511885858E+02  0.33886260775E+02 -0.11107538505E+03  0.13094925797E+03  0.00000000000E+00 0.  1.
         22    1    3    3    0    0  0.61522610888E+02  0.13357667322E+02 -0.70806699436E+02  0.94747282873E+02  0.00000000000E+00 0.  1.
</event>
<event>
 7    1  0.6253338E-006  0.1084289E+03  0.7818608E-02  0.1320420E+00
          2   -1    0    0  502    0  0.00000000000E+00  0.00000000000E+00  0.16219015038E+04  0.16219015038E+04  0.00000000000E+00 0. -1.
          1   -1    0    0  501    0 -0.00000000000E+00 -0.00000000000E+00 -0.17172157841E+03  0.17172157841E+03  0.00000000000E+00 0. -1.
         25    2    1    2    0    0 -0.42111290438E+02  0.16075852518E+03  0.16263396919E+03  0.26399209425E+03  0.12500141476E+03 0.  0.
          2    1    1    2  501    0  0.23922204116E+02 -0.99688943724E+02 -0.98470881329E+02  0.14215017348E+03  0.00000000000E+00 0. -1.
          1    1    1    2  502    0  0.18189086321E+02 -0.61069581457E+02  0.13860168375E+04  0.13874808144E+04  0.00000000000E+00 0. -1.
         22    1    3    3    0    0  0.18825915085E+01  0.13625309585E+03  0.58444409856E+02  0.14827069610E+03  0.00000000000E+00 0.  1.
         22    1    3    3    0    0 -0.43993881946E+02  0.24505429331E+02  0.10418955934E+03  0.11572139815E+03  0.00000000000E+00 0.  1.
</event>
<event>
 7    1  0.6253338E-006  0.2388942E+03  0.7818608E-02  0.1123372E+00
          2   -1    0    0  502    0  0.00000000000E+00  0.00000000000E+00  0.11040381312E+04  0.11040381312E+04  0.00000000000E+00 0. -1.
          1   -1    0    0  501    0 -0.00000000000E+00 -0.00000000000E+00 -0.19348003034E+04  0.19348003034E+04  0.00000000000E+00 0. -1.
         25    2    1    2    0    0  0.13520286322E+03  0.39222746362E+02  0.30848304255E+02  0.19077592185E+03  0.12500238568E+03 0.  0.
          2    1    1    2  501    0 -0.52233718638E+02  0.22459261152E+03 -0.18282019384E+04  0.18426862267E+04  0.00000000000E+00 0. -1.
          1    1    1    2  502    0 -0.82969144581E+02 -0.26381535788E+03  0.96659146203E+03  0.10053762860E+04  0.00000000000E+00 0. -1.
         22    1    3    3    0    0 -0.15402193314E+02  0.33589998085E+01  0.32312306005E+02  0.35952684989E+02  0.00000000000E+00 0.  1.
         22    1    3    3    0    0  0.15060505653E+03  0.35863746554E+02 -0.14640017501E+01  0.15482323686E+03  0.00000000000E+00 0.  1.
</event>
<event>
 7    1  0.6253338E-006  0.5791543E+02  0.7818608E-02  0.1535769E+00
          2   -1    0    0  502    0  0.00000000000E+00  0.00000000000E+00  0.37960785219E+03  0.37960785219E+03  0.00000000000E+00 0. -1.
          1   -1    0    0  501    0 -0.00000000000E+00 -0.00000000000E+00 -0.11570190824E+03  0.11570190824E+03  0.00000000000E+00 0. -1.
         25    2    1    2    0    0  0.50116692485E+02  0.46059051929E+02  0.85519664139E+02  0.16604885018E+03  0.12500195424E+03 0.  0.
          2    1    1    2  501    0 -0.52416515609E+02 -0.23185930644E+02 -0.63927442739E+02  0.85859166218E+02  0.00000000000E+00 0. -1.
          1    1    1    2  502    0  0.22998231243E+01 -0.22873121285E+02  0.24231372255E+03  0.24340174404E+03  0.00000000000E+00 0. -1.
         22    1    3    3    0    0  0.59590381391E+02  0.35508132383E+02  0.11444978092E+03  0.13383046504E+03  0.00000000000E+00 0. -1.
         22    1    3    3    0    0 -0.94736889062E+01  0.10550919547E+02 -0.28930116779E+02  0.32218385149E+02  0.00000000000E+00 0. -1.
</event>
<event>
 7    1  0.6253338E-006  0.1720101E+03  0.7818608E-02  0.1345689E+00
          2   -1    0    0  502    0  0.00000000000E+00  0.00000000000E+00  0.14711994277E+04  0.14711994277E+04  0.00000000000E+00 0. -1.
          1   -1    0    0  501    0 -0.00000000000E+00 -0.00000000000E+00 -0.32244656189E+04  0.32244656189E+04  0.00000000000E+00 0. -1.
         25    2    1    2    0    0  0.10729060330E+03 -0.17027009204E+03 -0.43531935683E+03  0.49559858356E+03  0.12494733212E+03 0.  0.
          2    1    1    2  501    0 -0.94396997471E+02  0.14077035867E+03 -0.27562233133E+04  0.27614297094E+04  0.00000000000E+00 0. -1.
          1    1    1    2  502    0 -0.12893605827E+02  0.29499733363E+02  0.14382764789E+04  0.14386367537E+04  0.00000000000E+00 0. -1.
         22    1    3    3    0    0  0.11998643251E+03 -0.12152036309E+03 -0.39742020417E+03  0.43255839064E+03  0.00000000000E+00 0. -1.
         22    1    3    3    0    0 -0.12695829214E+02 -0.48749728945E+02 -0.37899152661E+02  0.63040192926E+02  0.00000000000E+00 0. -1.
</event>
<event>
 7    1  0.6253338E-006  0.1102515E+03  0.7818608E-02  0.1321568E+00
          2   -1    0    0  502    0  0.00000000000E+00  0.00000000000E+00  0.90807495417E+03  0.90807495417E+03  0.00000000000E+00 0. -1.
          1   -1    0    0  501    0 -0.00000000000E+00 -0.00000000000E+00 -0.52061691418E+03  0.52061691418E+03  0.00000000000E+00 0. -1.
         25    2    1    2    0    0  0.68926695981E+02  0.32957902568E+02 -0.16809276200E+03  0.22297533712E+03  0.12500284624E+03 0.  0.
          2    1    1    2  501    0 -0.88383275760E+02 -0.91855934088E+02 -0.31143595166E+03  0.33651369667E+03  0.00000000000E+00 0. -1.
          1    1    1    2  502    0  0.19456579778E+02  0.58898031520E+02  0.86698675364E+03  0.86920283456E+03  0.00000000000E+00 0. -1.
         22    1    3    3    0    0  0.87175907464E+02  0.28934395142E+02 -0.52328400900E+02  0.10571234367E+03  0.00000000000E+00 0.  1.
         22    1    3    3    0    0 -0.18249211482E+02  0.40235074265E+01 -0.11576436110E+03  0.11726299345E+03  0.00000000000E+00 0.  1.
</event>
<event>
 7    1  0.6253338E-006  0.1120399E+03  0.7818608E-02  0.1260441E+00
          2   -1    0    0  502    0  0.00000000000E+00  0.00000000000E+00  0.18989883560E+04  0.18989883560E+04  0.00000000000E+00 0. -1.
          1   -1    0    0  501    0 -0.00000000000E+00 -0.00000000000E+00 -0.39480288067E+03  0.39480288067E+03  0.00000000000E+00 0. -1.
         25    2    1    2    0    0  0.56892725016E+02  0.10485680897E+03 -0.39305666966E+02  0.17720853155E+03  0.12500478251E+03 0.  0.
          2    1    1    2  501    0 -0.10804539124E+03 -0.43834374660E+01 -0.27453522119E+03  0.29506373679E+03  0.00000000000E+00 0. -1.
          1    1    1    2  502    0  0.51152666229E+02 -0.10047337151E+03  0.18180263635E+04  0.18215189683E+04  0.00000000000E+00 0. -1.
         22    1    3    3    0    0  0.10736494614E+02  0.48842513863E+02 -0.79740460047E+02  0.94124409403E+02  0.00000000000E+00 0. -1.
         22    1    3    3    0    0  0.46156230401E+02  0.56014295109E+02  0.40434793081E+02  0.83084122147E+02  0.00000000000E+00 0. -1.
</event>
<event>
 7    1  0.6253338E-006  0.9050140E+02  0.7818608E-02  0.1346443E+00
          2   -1    0    0  502    0  0.00000000000E+00  0.00000000000E+00  0.11352703241E+03  0.11352703241E+03  0.00000000000E+00 0. -1.
          1   -1    0    0  501    0 -0.00000000000E+00 -0.00000000000E+00 -0.10362051058E+04  0.10362051058E+04  0.00000000000E+00 0. -1.
         25    2    1    2    0    0 -0.11609533697E+03 -0.91577925155E+02 -0.40639697717E+03  0.45016448326E+03  0.12499966115E+03 0.  0.
          2    1    1    2  501    0  0.51487053036E+02  0.32327790532E+02 -0.58501862376E+03  0.58816901722E+03  0.00000000000E+00 0. -1.
          1    1    1    2  502    0  0.64608283929E+02  0.59250134624E+02  0.68737527519E+02  0.11139863776E+03  0.00000000000E+00 0. -1.
         22    1    3    3    0    0 -0.77875013212E+02 -0.11501952705E+03 -0.35892930660E+03  0.38486914194E+03  0.00000000000E+00 0. -1.
         22    1    3    3    0    0 -0.38220323753E+02  0.23441601894E+02 -0.47467670575E+02  0.65295341311E+02  0.00000000000E+00 0. -1.
</event>
<event>
 7    1  0.6253338E-006  0.9435372E+02  0.7818608E-02  0.1366388E+00
          2   -1    0    0  502    0  0.00000000000E+00  0.00000000000E+00  0.20865577727E+04  0.20865577727E+04  0.00000000000E+00 0. -1.
          1   -1    0    0  501    0 -0.00000000000E+00 -0.00000000000E+00 -0.40695452266E+02  0.40695452266E+02  0.00000000000E+00 0. -1.
         25    2    1    2    0    0 -0.13645213528E+03  0.36953855960E+02  0.29580550059E+03  0.35087046892E+03  0.12499767634E+03 0.  0.
          2    1    1    2  501    0  0.46693167729E+02 -0.15722337215E+02  0.38986575671E+02  0.62828312747E+02  0.00000000000E+00 0. -1.
          1    1    1    2  502    0  0.89758967554E+02 -0.21231518745E+02  0.17110702442E+04  0.17135544433E+04  0.00000000000E+00 0. -1.
         22    1    3    3    0    0 -0.54583721535E+02  0.41805955821E+02  0.24484472963E+03  0.25431488794E+03  0.00000000000E+00 0.  1.
         22    1    3    3    0    0 -0.81868413748E+02 -0.48520998611E+01  0.50960770957E+02  0.96555580985E+02  0.00000000000E+00 0.  1.
</event>
<event>
 7    1  0.6253338E-006  0.3684338E+02  0.7818608E-02  0.1557387E+00
          2   -1    0    0  502    0  0.00000000000E+00  0.00000000000E+00  0.12428547648E+04  0.12428547648E+04  0.00000000000E+00 0. -1.
          1   -1    0    0  501    0 -0.00000000000E+00 -0.00000000000E+00 -0.49850978274E+02  0.49850978274E+02  0.00000000000E+00 0. -1.
         25    2    1    2    0    0 -0.26390027328E+02  0.11817934365E+02  0.67150206811E+03  0.68364088717E+03  0.12495494397E+03 0.  0.
          2    1    1    2  501    0 -0.77765851376E+01 -0.30454145839E+02 -0.37375028344E+02  0.48834649777E+02  0.00000000000E+00 0. -1.
          1    1    1    2  502    0  0.34166612466E+02  0.18636211474E+02  0.55887674675E+03  0.56023020611E+03  0.00000000000E+00 0. -1.
         22    1    3    3    0    0  0.49065551823E+02  0.16849298475E+02  0.23754457787E+03  0.24314348379E+03  0.00000000000E+00 0.  1.
         22    1    3    3    0    0 -0.75455579151E+02 -0.50313641106E+01  0.43395749025E+03  0.44049740339E+03  0.00000000000E+00 0.  1.
</event>
<event>
 7    1  0.6253338E-006  0.5405107E+02  0.7818608E-02  0.1518006E+00
          2   -1    0    0  502    0  0.00000000000E+00  0.00000000000E+00  0.13929956241E+04  0.13929956241E+04  0.00000000000E+00 0. -1.
          1   -1    0    0  501    0 -0.00000000000E+00 -0.00000000000E+00 -0.10010800836E+04  0.10010800836E+04  0.00000000000E+00 0. -1.
         25    2    1    2    0    0 -0.27324385172E+02  0.73804662453E+02 -0.13748944827E+03  0.20179730455E+03  0.12500021405E+03 0.  0.
          2    1    1    2  501    0 -0.74329896446E+00 -0.27698131030E+02 -0.83067036224E+03  0.83113235388E+03  0.00000000000E+00 0. -1.
          1    1    1    2  502    0  0.28067684137E+02 -0.46106531423E+02  0.13600753509E+04  0.13611460493E+04  0.00000000000E+00 0. -1.
         22    1    3    3    0    0 -0.73772602512E+02  0.63239859383E+02 -0.72571432027E+02  0.12127773680E+03  0.00000000000E+00 0.  1.
         22    1    3    3    0    0  0.46448217339E+02  0.10564803069E+02 -0.64918016245E+02  0.80519567753E+02  0.00000000000E+00 0.  1.
</event>
<event>
 7    1  0.6253338E-006  0.7006532E+02  0.7818608E-02  0.1484758E+00
          2   -1    0    0  502    0  0.00000000000E+00  0.00000000000E+00  0.71675893769E+03  0.71675893769E+03  0.00000000000E+00 0. -1.
          1   -1    0    0  501    0 -0.00000000000E+00 -0.00000000000E+00 -0.17643267085E+03  0.17643267085E+03  0.00000000000E+00 0. -1.
         25    2    1    2    0    0 -0.44070159996E+02 -0.11728212750E+02  0.97115111863E+02  0.16475642125E+03  0.12503440893E+03 0.  0.
          2    1    1    2  501    0  0.67039023129E+02  0.25633822488E+02 -0.13324938845E+03  0.15134967129E+03  0.00000000000E+00 0. -1.
          1    1    1    2  502    0 -0.22968863133E+02 -0.13905609738E+02  0.57646054342E+03  0.57708551600E+03  0.00000000000E+00 0. -1.
         22    1    3    3    0    0 -0.58588413190E+02  0.28478439474E+02  0.10272839757E+03  0.12164188153E+03  0.00000000000E+00 0. -1.
         22    1    3    3    0    0  0.14518253195E+02 -0.40206652224E+02 -0.56132857094E+01  0.43114539721E+02  0.00000000000E+00 0. -1.
</event>
<event>
 7    1  0.6253338E-006  0.7966273E+02  0.7818608E-02  0.1463526E+00
          2   -1    0    0  502    0  0.00000000000E+00  0.00000000000E+00  0.29905222123E+04  0.29905222123E+04  0.00000000000E+00 0. -1.
          1   -1    0    0  501    0 -0.00000000000E+00 -0.00000000000E+00 -0.73642983757E+01  0.73642983757E+01  0.00000000000E+00 0. -1.
         25    2    1    2    0    0 -0.24021838485E+02 -0.85439620679E+02  0.19802236503E+04  0.19861481288E+04  0.12498682680E+03 0.  0.
          2    1    1    2  501    0 -0.25694183660E+01  0.78545720690E+02  0.37220000785E+03  0.38040620131E+03  0.00000000000E+00 0. -1.
          1    1    1    2  502    0  0.26591256851E+02  0.68938999886E+01  0.63073425579E+03  0.63133218057E+03  0.00000000000E+00 0. -1.
         22    1    3    3    0    0  0.89509513078E+01  0.13792678496E+02  0.10396113079E+04  0.10397413280E+04  0.00000000000E+00 0. -1.
         22    1    3    3    0    0 -0.32972789793E+02 -0.99232299175E+02  0.94061234240E+03  0.94640680087E+03  0.00000000000E+00 0. -1.
</event>
<event>
 7    1  0.6253338E-006  0.1250191E+03  0.7818608E-02  0.1299696E+00
          2   -1    0    0  502    0  0.00000000000E+00  0.00000000000E+00  0.10940148083E+04  0.10940148083E+04  0.00000000000E+00 0. -1.
          1   -1    0    0  501    0 -0.00000000000E+00 -0.00000000000E+00 -0.50081213781E+03  0.50081213781E+03  0.00000000000E+00 0. -1.
         25    2    1    2    0    0 -0.71246617835E+02 -0.93720484602E+02  0.32271162053E+03  0.36555044930E+03  0.12499892468E+03 0.  0.
          2    1    1    2  501    0  0.12335652502E+02  0.12499696969E+03 -0.46963997508E+03  0.48614618887E+03  0.00000000000E+00 0. -1.
          1    1    1    2  502    0  0.58910965334E+02 -0.31276485085E+02  0.74013102502E+03  0.74313030793E+03  0.00000000000E+00 0. -1.
         22    1    3    3    0    0 -0.98838225893E+02 -0.42006959088E+02  0.16088835219E+03  0.19343898620E+03  0.00000000000E+00 0.  1.
         22    1    3    3    0    0  0.27591608058E+02 -0.51713525514E+02  0.16182326833E+03  0.17211146310E+03  0.00000000000E+00 0.  1.
</event>
<event>
 7    1  0.6253338E-006  0.5445381E+02  0.7818608E-02  0.1495283E+00
          2   -1    0    0  502    0  0.00000000000E+00  0.00000000000E+00  0.79800329147E+03  0.79800329147E+03  0.00000000000E+00 0. -1.
          1   -1    0    0  501    0 -0.00000000000E+00 -0.00000000000E+00 -0.80028948888E+02  0.80028948888E+02  0.00000000000E+00 0. -1.
         25    2    1    2    0    0  0.78578984263E+01  0.24248401195E+02  0.12514124724E+03  0.17870265091E+03  0.12499829660E+03 0.  0.
          2    1    1    2  501    0 -0.22171204431E+02 -0.52986797415E+02 -0.37230165215E+02  0.68448872950E+02  0.00000000000E+00 0. -1.
          1    1    1    2  502    0  0.14313306005E+02  0.28738396220E+02  0.63006326056E+03  0.63088071650E+03  0.00000000000E+00 0. -1.
         22    1    3    3    0    0  0.32655731947E+02  0.21630175590E+01  0.13894036637E+03  0.14274277874E+03  0.00000000000E+00 0.  1.
         22    1    3    3    0    0 -0.24797833521E+02  0.22085383636E+02 -0.13799119134E+02  0.35959872171E+02  0.00000000000E+00 0.  1.
</event>
<event>
 7    1  0.6253338E-006  0.9848481E+02  0.7818608E-02  0.1342279E+00
          2   -1    0    0  502    0  0.00000000000E+00  0.00000000000E+00  0.74073810466E+03  0.74073810466E+03  0.00000000000E+00 0. -1.
          1   -1    0    0  501    0 -0.00000000000E+00 -0.00000000000E+00 -0.14051228712E+04  0.14051228712E+04  0.00000000000E+00 0. -1.
         25    2    1    2    0    0  0.11074285008E+03  0.37628653858E+02 -0.11593542379E+04  0.11719245829E+04  0.12500033835E+03 0.  0.
          2    1    1    2  501    0 -0.82126772085E+02  0.12710793719E+02 -0.23108626333E+03  0.24557530834E+03  0.00000000000E+00 0. -1.
          1    1    1    2  502    0 -0.28616077997E+02 -0.50339447577E+02  0.72605573463E+03  0.72836108469E+03  0.00000000000E+00 0. -1.
         22    1    3    3    0    0  0.61929749620E+02 -0.20538523833E+02 -0.21909038742E+03  0.22859948099E+03  0.00000000000E+00 0.  1.
         22    1    3    3    0    0  0.48813100462E+02  0.58167177691E+02 -0.94026385046E+03  0.94332510187E+03  0.00000000000E+00 0.  1.
</event>
<event>
 7    1  0.6253338E-006  0.9945796E+02  0.7818608E-02  0.1307297E+00
          2   -1    0    0  502    0  0.00000000000E+00  0.00000000000E+00  0.93968019348E+03  0.93968019348E+03  0.00000000000E+00 0. -1.
          1   -1    0    0  501    0 -0.00000000000E+00 -0.00000000000E+00 -0.17882266750E+03  0.17882266750E+03  0.00000000000E+00 0. -1.
         25    2    1    2    0    0  0.42505107314E+02 -0.44167220826E+02  0.76623814727E+03  0.77878296204E+03  0.12499830432E+03 0.  0.
          2    1    1    2  501    0 -0.10032373511E+03 -0.84808889027E+01 -0.14686609662E+03  0.17806298784E+03  0.00000000000E+00 0. -1.
          1    1    1    2  502    0  0.57818627799E+02  0.52648109729E+02  0.14148547532E+03  0.16165691110E+03  0.00000000000E+00 0. -1.
         22    1    3    3    0    0  0.38566593991E+02 -0.76991785053E+02  0.32196742861E+03  0.33328387633E+03  0.00000000000E+00 0.  1.
         22    1    3    3    0    0  0.39385133231E+01  0.32824564227E+02  0.44427071867E+03  0.44549908571E+03  0.00000000000E+00 0.  1.
</event>
<event>
 7    1  0.6253338E-006  0.6644907E+02  0.7818608E-02  0.1460479E+00
          2   -1    0    0  502    0  0.00000000000E+00  0.00000000000E+00  0.12945645088E+04  0.12945645088E+04  0.00000000000E+00 0. -1.
          1   -1    0    0  501    0 -0.00000000000E+00 -0.00000000000E+00 -0.20814971724E+03  0.20814971724E+03  0.00000000000E+00 0. -1.
         25    2    1    2    0    0  0.41057812374E+01  0.36592667769E+02  0.69103256932E+03  0.70321238206E+03  0.12500304660E+03 0.  0.
          2    1    1    2  501    0  0.13433924745E+02 -0.65330871973E+02 -0.19606393855E+03  0.20709819208E+03  0.00000000000E+00 0. -1.
          1    1    1    2  502    0 -0.17539705983E+02  0.28738204204E+02  0.59144616081E+03  0.59240365192E+03  0.00000000000E+00 0. -1.
         22    1    3    3    0    0 -0.32811063064E+02  0.16917976284E+02  0.61758461581E+03  0.61868694948E+03  0.00000000000E+00 0.  1.
         22    1    3    3    0    0  0.36916844301E+02  0.19674691485E+02  0.73447953510E+02  0.84525432581E+02  0.00000000000E+00 0.  1.
</event>
<event>
 7    1  0.6253338E-006  0.2713073E+03  0.7818608E-02  0.1176611E+00
          2   -1    0    0  502    0  0.00000000000E+00  0.00000000000E+00  0.18553682698E+04  0.18553682698E+04  0.00000000000E+00 0. -1.
          1   -1    0    0  501    0 -0.00000000000E+00 -0.00000000000E+00 -0.20746087905E+03  0.20746087905E+03  0.00000000000E+00 0. -1.
         25    2    1    2    0    0  0.82756907381E+02  0.17599435935E+03  0.30347486751E+03  0.38150510048E+03  0.12500570483E+03 0.  0.
          2    1    1    2  501    0  0.27606494067E+02  0.10443271389E+03 -0.13421164604E+03  0.17228196707E+03  0.00000000000E+00 0. -1.
          1    1    1    2  502    0 -0.11036340145E+03 -0.28042707324E+03  0.14786441693E+04  0.15090420813E+04  0.00000000000E+00 0. -1.
         22    1    3    3    0    0  0.11502519855E+03  0.13365020231E+03  0.21287905497E+03  0.27642479072E+03  0.00000000000E+00 0.  1.
         22    1    3    3    0    0 -0.32268291168E+02  0.42344157045E+02  0.90595812535E+02  0.10508030976E+03  0.00000000000E+00 0.  1.
</event>
<event>
 7    1  0.6253338E-006  0.1330971E+03  0.7818608E-02  0.1236016E+00
          2   -1    0    0  502    0  0.00000000000E+00  0.00000000000E+00  0.71311226162E+03  0.71311226162E+03  0.00000000000E+00 0. -1.
          1   -1    0    0  501    0 -0.00000000000E+00 -0.00000000000E+00 -0.17792080019E+03  0.17792080019E+03  0.00000000000E+00 0. -1.
         25    2    1    2    0    0  0.64158560448E+02  0.99987662383E+00  0.11376705643E+03  0.18079106966E+03  0.12500058843E+03 0.  0.
          2    1    1    2  501    0  0.68486607443E+02 -0.93952248256E+02 -0.10672033208E+03  0.15781847050E+03  0.00000000000E+00 0. -1.
          1    1    1    2  502    0 -0.13264516789E+03  0.92952371632E+02  0.52814473708E+03  0.55242352164E+03  0.00000000000E+00 0. -1.
         22    1    3    3    0    0  0.97932278375E+02 -0.17648896096E+02  0.96171345224E+02  0.13838765235E+03  0.00000000000E+00 0. -1.
         22    1    3    3    0    0 -0.33773717927E+02  0.18648772719E+02  0.17595711210E+02  0.42403417309E+02  0.00000000000E+00 0. -1.
</event>
<event>
 7    1  0.6253338E-006  0.8459044E+02  0.7818608E-02  0.1478755E+00
          2   -1    0    0  502    0  0.00000000000E+00  0.00000000000E+00  0.91759768292E+03  0.91759768292E+03  0.00000000000E+00 0. -1.
          1   -1    0    0  501    0 -0.00000000000E+00 -0.00000000000E+00 -0.20286010157E+03  0.20286010157E+03  0.00000000000E+00 0. -1.
         25    2    1    2    0    0 -0.25306280985E+02  0.62901080508E+02  0.38826271857E+02  0.14740949037E+03  0.12500049871E+03 0.  0.
          2    1    1    2  501    0  0.98365519030E+01  0.21012225424E+02 -0.14543890519E+03  0.14727778690E+03  0.00000000000E+00 0. -1.
          1    1    1    2  502    0  0.15469729082E+02 -0.83913305932E+02  0.82135021469E+03  0.82577050723E+03  0.00000000000E+00 0. -1.
         22    1    3    3    0    0 -0.26082725694E+02  0.56883987332E+01 -0.41163286618E+02  0.49062028341E+02  0.00000000000E+00 0.  1.
         22    1    3    3    0    0  0.77644470876E+00  0.57212681775E+02  0.79989558474E+02  0.98347462027E+02  0.00000000000E+00 0.  1.
</event>
<event>
 7    1  0.6253338E-006  0.4145937E+02  0.7818608E-02  0.1552525E+00
          2   -1    0    0  502    0  0.00000000000E+00  0.00000000000E+00  0.16191414267E+04  0.16191414267E+04  0.00000000000E+00 0. -1.
          1   -1    0    0  501    0 -0.00000000000E+00 -0.00000000000E+00 -0.90876313340E+02  0.90876313340E+02  0.00000000000E+00 0. -1.
         25    2    1    2    0    0 -0.46485184547E+02  0.51207071273E+02  0.13900004400E+03  0.19932219801E+03  0.12500115943E+03 0.  0.
          2    1    1    2  501    0  0.27581388718E+02 -0.29463557210E+02 -0.53848659856E+02  0.67294222452E+02  0.00000000000E+00 0. -1.
          1    1    1    2  502    0  0.18903795829E+02 -0.21743514063E+02  0.14431137293E+04  0.14434013196E+04  0.00000000000E+00 0. -1.
         22    1    3    3    0    0 -0.30590886835E+02 -0.39169060217E+02  0.35956849603E+02  0.61342584466E+02  0.00000000000E+00 0. -1.
         22    1    3    3    0    0 -0.15894297712E+02  0.90376131491E+02  0.10304319440E+03  0.13797961355E+03  0.00000000000E+00 0. -1.
</event>
<event>
 7    1  0.6253338E-006  0.1584844E+03  0.7818608E-02  0.1291514E+00
          2   -1    0    0  502    0  0.00000000000E+00  0.00000000000E+00  0.74306432299E+02  0.74306432299E+02  0.00000000000E+00 0. -1.
          1   -1    0    0  501    0 -0.00000000000E+00 -0.00000000000E+00 -0.16051214847E+04  0.16051214847E+04  0.00000000000E+00 0. -1.
         25    2    1    2    0    0 -0.99361975371E+02  0.17976644891E+03 -0.42086095383E+03  0.48470024164E+03  0.12498641320E+03 0.  0.
          2    1    1    2  501    0  0.60191195883E+02 -0.13868028900E+03 -0.11257093465E+04  0.11358154496E+04  0.00000000000E+00 0. -1.
          1    1    1    2  502    0  0.39170779488E+02 -0.41086159909E+02  0.15755248006E+02  0.58912225739E+02  0.00000000000E+00 0. -1.
         22    1    3    3    0    0 -0.97107971825E+02  0.80236119991E+02 -0.31563090585E+03  0.33983917060E+03  0.00000000000E+00 0. -1.
         22    1    3    3    0    0 -0.22540035451E+01  0.99530328918E+02 -0.10523004798E+03  0.14486107104E+03  0.00000000000E+00 0. -1.
</event>
<event>
 7    1  0.6253338E-006  0.2672072E+03  0.7818608E-02  0.1106027E+00
          2   -1    0    0  502    0  0.00000000000E+00  0.00000000000E+00  0.20700071008E+04  0.20700071008E+04  0.00000000000E+00 0. -1.
          1   -1    0    0  501    0 -0.00000000000E+00 -0.00000000000E+00 -0.74408348386E+03  0.74408348386E+03  0.00000000000E+00 0. -1.
         25    2    1    2    0    0 -0.21397458413E+03  0.55268649035E+01 -0.12415215135E+03  0.27722672669E+03  0.12500092966E+03 0.  0.
          2    1    1    2  501    0  0.18393399032E+03 -0.27104004485E+03 -0.48399661409E+03  0.58442034629E+03  0.00000000000E+00 0. -1.
          1    1    1    2  502    0  0.30040593815E+02  0.26551317995E+03  0.19340723824E+04  0.19524435117E+04  0.00000000000E+00 0. -1.
         22    1    3    3    0    0 -0.96203163620E+02 -0.22183750483E+01  0.12074155294E+02  0.96983272291E+02  0.00000000000E+00 0.  1.
         22    1    3    3    0    0 -0.11777142051E+03  0.77452399518E+01 -0.13622630664E+03  0.18024345439E+03  0.00000000000E+00 0.  1.
</event>
<event>
 7    1  0.6253338E-006  0.7135791E+02  0.7818608E-02  0.1377216E+00
          2   -1    0    0  502    0  0.00000000000E+00  0.00000000000E+00  0.13071924274E+03  0.13071924274E+03  0.00000000000E+00 0. -1.
          1   -1    0    0  501    0 -0.00000000000E+00 -0.00000000000E+00 -0.21512498989E+03  0.21512498989E+03  0.00000000000E+00 0. -1.
         25    2    1    2    0    0  0.14285165801E+02 -0.84198640588E+02  0.41038182362E+01  0.15144824236E+03  0.12500500691E+03 0.  0.
          2    1    1    2  501    0 -0.57730303926E+02  0.43433714051E+02 -0.10953905456E+03  0.13121768167E+03  0.00000000000E+00 0. -1.
          1    1    1    2  502    0  0.43445138125E+02  0.40764926536E+02  0.21029489181E+02  0.63178308599E+02  0.00000000000E+00 0. -1.
         22    1    3    3    0    0 -0.30249247737E+02  0.21157937109E+02 -0.13120851139E+01  0.36937743010E+02  0.00000000000E+00 0.  1.
         22    1    3    3    0    0  0.44534413538E+02 -0.10535657770E+03  0.54159033501E+01  0.11451049935E+03  0.00000000000E+00 0.  1.
</event>
<event>
 7    1  0.6253338E-006  0.1423724E+03  0.7818608E-02  0.1335301E+00
          2   -1    0    0  502    0  0.00000000000E+00  0.00000000000E+00  0.82014320739E+03  0.82014320739E+03  0.00000000000E+00 0. -1.
          1   -1    0    0  501    0 -0.00000000000E+00 -0.00000000000E+00 -0.15670069372E+04  0.15670069372E+04  0.00000000000E+00 0. -1.
         25    2    1    2    0    0 -0.99618040745E+02  0.14547273403E+03  0.18947031607E+03  0.28741985957E+03  0.12500041846E+03 0.  0.
          2    1    1    2  501    0  0.97689833604E+02 -0.10296059838E+03 -0.15139301789E+04  0.15205685697E+04  0.00000000000E+00 0. -1.
          1    1    1    2  502    0  0.19282071415E+01 -0.42512135657E+02  0.57759613302E+03  0.57916171536E+03  0.00000000000E+00 0. -1.
         22    1    3    3    0    0 -0.68286331854E+02  0.22387428776E+02  0.12689650585E+03  0.14583190077E+03  0.00000000000E+00 0.  1.
         22    1    3    3    0    0 -0.31331708892E+02  0.12308530526E+03  0.62573810222E+02  0.14158795880E+03  0.00000000000E+00 0.  1.
</event>
<event>
 7    1  0.6253338E-006  0.4351915E+02  0.7818608E-02  0.1487006E+00
          2   -1    0    0  502    0  0.00000000000E+00  0.00000000000E+00  0.26102464276E+03  0.26102464276E+03  0.00000000000E+00 0. -1.
          1   -1    0    0  501    0 -0.00000000000E+00 -0.00000000000E+00 -0.26044397436E+03  0.26044397436E+03  0.00000000000E+00 0. -1.
         25    2    1    2    0    0  0.11334000263E+02  0.52570537418E+01  0.13975818817E+03  0.18791787404E+03  0.12499872017E+03 0.  0.
          2    1    1    2  501    0 -0.28219987743E+02  0.33802201027E+02 -0.22951069255E+03  0.23369662920E+03  0.00000000000E+00 0. -1.
          1    1    1    2  502    0  0.16885987480E+02 -0.39059254769E+02  0.90333172783E+02  0.99854113893E+02  0.00000000000E+00 0. -1.
         22    1    3    3    0    0  0.49205638385E+02 -0.37032302376E+02  0.40927581423E+02  0.73943581123E+02  0.00000000000E+00 0. -1.
         22    1    3    3    0    0 -0.37871638122E+02  0.42289356118E+02  0.98830606749E+02  0.11397429291E+03  0.00000000000E+00 0. -1.
</event>
<event>
 7    1  0.6253338E-006  0.1951875E+03  0.7818608E-02  0.1251866E+00
          2   -1    0    0  502    0  0.00000000000E+00  0.00000000000E+00  0.30676603690E+04  0.30676603690E+04  0.00000000000E+00 0. -1.
          1   -1    0    0  501    0 -0.00000000000E+00 -0.00000000000E+00 -0.97614023113E+03  0.97614023113E+03  0.00000000000E+00 0. -1.
         25    2    1    2    0    0 -0.15611487667E+03  0.18639983798E+03 -0.40838178621E+03  0.49144341783E+03  0.12499678118E+03 0.  0.
          2    1    1    2  501    0  0.12565724655E+03 -0.12609104830E+03 -0.51078312248E+03  0.54091412838E+03  0.00000000000E+00 0. -1.
          1    1    1    2  502    0  0.30457630120E+02 -0.60308789677E+02  0.30106850465E+04  0.30114430539E+04  0.00000000000E+00 0. -1.
         22    1    3    3    0    0 -0.10778460475E+03  0.11085400669E+03 -0.14038810639E+03  0.20884193122E+03  0.00000000000E+00 0.  1.
         22    1    3    3    0    0 -0.48330271917E+02  0.75545831286E+02 -0.26799367983E+03  0.28260148661E+03  0.00000000000E+00 0.  1.
</event>
<event>
 7    1  0.6253338E-006  0.1499716E+03  0.7818608E-02  0.1241266E+00
          2   -1    0    0  502    0  0.00000000000E+00  0.00000000000E+00  0.15609151565E+04  0.15609151565E+04  0.00000000000E+00 0. -1.
          1   -1    0    0  501    0 -0.00000000000E+00 -0.00000000000E+00 -0.23064830257E+03  0.23064830257E+03  0.00000000000E+00 0. -1.
         25    2    1    2    0    0  0.17230832617E+03  0.22867068610E+02  0.43355527382E+03  0.48353715698E+03  0.12499977849E+03 0.  0.
          2    1    1    2  501    0 -0.11213373803E+03 -0.99980690739E+02 -0.17569486633E+03  0.23116833646E+03  0.00000000000E+00 0. -1.
          1    1    1    2  502    0 -0.60174588141E+02  0.77113622130E+02  0.10724064465E+04  0.10768579656E+04  0.00000000000E+00 0. -1.
         22    1    3    3    0    0  0.39515235243E+02  0.29158560609E+02  0.26167757955E+03  0.26624580957E+03  0.00000000000E+00 0. -1.
         22    1    3    3    0    0  0.13279309093E+03 -0.62914919989E+01  0.17187769427E+03  0.21729134741E+03  0.00000000000E+00 0. -1.
</event>
<event>
 7    1  0.6253338E-006  0.4341165E+02  0.7818608E-02  0.1511805E+00
          2   -1    0    0  502    0  0.00000000000E+00  0.00000000000E+00  0.73084809984E+03  0.73084809984E+03  0.00000000000E+00 0. -1.
          1   -1    0    0  501    0 -0.00000000000E+00 -0.00000000000E+00 -0.29998218456E+03  0.29998218456E+03  0.00000000000E+00 0. -1.
         25    2    1    2    0    0 -0.10760481598E+02 -0.77287826690E+02  0.16240211829E+03  0.21929594037E+03  0.12500826101E+03 0.  0.
          2    1    1    2  501    0  0.13326401990E+01  0.35944917834E+02 -0.26950608991E+03  0.27189583584E+03  0.00000000000E+00 0. -1.
          1    1    1    2  502    0  0.94278413988E+01  0.41342908856E+02  0.53796988690E+03  0.53963850818E+03  0.00000000000E+00 0. -1.
         22    1    3    3    0    0  0.55076647754E+02 -0.21786544411E+02  0.84405024568E+02  0.10311303903E+03  0.00000000000E+00 0.  1.
         22    1    3    3    0    0 -0.65837129352E+02 -0.55501282280E+02  0.77997093719E+02  0.11618290134E+03  0.00000000000E+00 0.  1.
</event>
<event>
 7    1  0.6253338E-006  0.1337621E+03  0.7818608E-02  0.1301850E+00
          2   -1    0    0  502    0  0.00000000000E+00  0.00000000000E+00  0.29322158782E+04  0.29322158782E+04  0.00000000000E+00 0. -1.
          1   -1    0    0  501    0 -0.00000000000E+00 -0.00000000000E+00 -0.49730551093E+03  0.49730551093E+03  0.00000000000E+00 0. -1.
         25    2    1    2    0    0  0.15691436243E+03  0.68638681295E+02  0.29842544140E+03  0.36608193698E+03  0.12499941920E+03 0.  0.
          2    1    1    2  501    0 -0.99133082154E+02 -0.88547850157E+02 -0.45357919672E+03  0.47265439535E+03  0.00000000000E+00 0. -1.
          1    1    1    2  502    0 -0.57781280280E+02  0.19909168862E+02  0.25900641226E+04  0.25907850568E+04  0.00000000000E+00 0. -1.
         22    1    3    3    0    0  0.11184067046E+02  0.54193833444E+02  0.13897356864E+03  0.14958511864E+03  0.00000000000E+00 0.  1.
         22    1    3    3    0    0  0.14573029539E+03  0.14444847851E+02  0.15945187276E+03  0.21649681834E+03  0.00000000000E+00 0.  1.
</event>
<event>
 7    1  0.6253338E-006  0.1717745E+03  0.7818608E-02  0.1358070E+00
          2   -1    0    0  502    0  0.00000000000E+00  0.00000000000E+00  0.35778909567E+03  0.35778909567E+03  0.00000000000E+00 0. -1.
          1   -1    0    0  501    0 -0.00000000000E+00 -0.00000000000E+00 -0.11159625390E+04  0.11159625390E+04  0.00000000000E+00 0. -1.
         25    2    1    2    0    0  0.99987678611E+02  0.10458091737E+03  0.20939427908E+02  0.19235820132E+03  0.12501405450E+03 0.  0.
          2    1    1    2  501    0 -0.12156494989E+03 -0.12397991076E+03 -0.10220678382E+04  0.10367119760E+04  0.00000000000E+00 0. -1.
          1    1    1    2  502    0  0.21577271279E+02  0.19398993394E+02  0.24295496698E+03  0.24468145733E+03  0.00000000000E+00 0. -1.
         22    1    3    3    0    0  0.26861814485E+01  0.92049256612E+02  0.20065374302E+02  0.94249140365E+02  0.00000000000E+00 0.  1.
         22    1    3    3    0    0  0.97301497163E+02  0.12531660758E+02  0.87405360507E+00  0.98109060953E+02  0.00000000000E+00 0.  1.
</event>
<event>
 7    1  0.6253338E-006  0.5420974E+02  0.7818608E-02  0.1454306E+00
          2   -1    0    0  502    0  0.00000000000E+00  0.00000000000E+00  0.21890759089E+04  0.21890759089E+04  0.00000000000E+00 0. -1.
          1   -1    0    0  501    0 -0.00000000000E+00 -0.00000000000E+00 -0.18388171319E+02  0.18388171319E+02  0.00000000000E+00 0. -1.
         25    2    1    2    0    0  0.86793798922E+02  0.10978153990E+02  0.39869760569E+03  0.42689426100E+03  0.12500098361E+03 0.  0.
          2    1    1    2  501    0 -0.44075215279E+02 -0.47577674739E+01  0.11857197186E+03  0.12658820429E+03  0.00000000000E+00 0. -1.
          1    1    1    2  502    0 -0.42718583642E+02 -0.62203865163E+01  0.16534181600E+04  0.16539816149E+04  0.00000000000E+00 0. -1.
         22    1    3    3    0    0  0.28011975097E+02 -0.42748682611E+02  0.27548828836E+03  0.28018907480E+03  0.00000000000E+00 0.  1.
         22    1    3    3    0    0  0.58781823825E+02  0.53726836601E+02  0.12320931733E+03  0.14670518620E+03  0.00000000000E+00 0.  1.
</event>
<event>
 7    1  0.6253338E-006  0.5224808E+02  0.7818608E-02  0.1472761E+00
          2   -1    0    0  502    0  0.00000000000E+00  0.00000000000E+00  0.25629082530E+03  0.25629082530E+03  0.00000000000E+00 0. -1.
          1   -1    0    0  501    0 -0.00000000000E+00 -0.00000000000E+00 -0.95712377818E+03  0.95712377818E+03  0.00000000000E+00 0. -1.
         25    2    1    2    0    0  0.25529278660E+02  0.16531442486E+02 -0.38127664373E+03  0.40239560146E+03  0.12500123341E+03 0.  0.
          2    1    1    2  501    0 -0.14599331027E+02 -0.54173168851E+02 -0.56231963567E+03  0.56511171051E+03  0.00000000000E+00 0. -1.
          1    1    1    2  502    0 -0.10929947633E+02  0.37641726365E+02  0.24276332653E+03  0.24590729153E+03  0.00000000000E+00 0. -1.
         22    1    3    3    0    0  0.18688994357E+01  0.25237262609E+02 -0.56571419352E+01  0.25930974990E+02  0.00000000000E+00 0. -1.
         22    1    3    3    0    0  0.23660379224E+02 -0.87058201224E+01 -0.37561950180E+03  0.37646462647E+03  0.00000000000E+00 0. -1.
</event>
<event>
 7    1  0.6253338E-006  0.5604220E+02  0.7818608E-02  0.1421817E+00
          2   -1    0    0  502    0  0.00000000000E+00  0.00000000000E+00  0.53826931399E+03  0.53826931399E+03  0.00000000000E+00 0. -1.
          1   -1    0    0  501    0 -0.00000000000E+00 -0.00000000000E+00 -0.37866537486E+03  0.37866537486E+03  0.00000000000E+00 0. -1.
         25    2    1    2    0    0  0.23853978647E+02 -0.54403562638E+02 -0.20767342895E+03  0.24955953952E+03  0.12499180274E+03 0.  0.
          2    1    1    2  501    0  0.31200902667E+02  0.43175878184E+02 -0.14373208566E+03  0.15328589378E+03  0.00000000000E+00 0. -1.
          1    1    1    2  502    0 -0.55054881314E+02  0.11227684454E+02  0.51100945373E+03  0.51408925554E+03  0.00000000000E+00 0. -1.
         22    1    3    3    0    0  0.66746027249E+02 -0.62485329791E+02 -0.11336113497E+03  0.14563720512E+03  0.00000000000E+00 0. -1.
         22    1    3    3    0    0 -0.42892048602E+02  0.80817671525E+01 -0.94312293975E+02  0.10392233441E+03  0.00000000000E+00 0. -1.
</event>
<event>
 7    1  0.6253338E-006  0.3254512E+03  0.7818608E-02  0.1160056E+00
          2   -1    0    0  502    0  0.00000000000E+00  0.00000000000E+00  0.38783685842E+03  0.38783685842E+03  0.00000000000E+00 0. -1.
          1   -1    0    0  501    0 -0.00000000000E+00 -0.00000000000E+00 -0.12428961778E+04  0.12428961778E+04  0.00000000000E+00 0. -1.
         25    2    1    2    0    0 -0.12358859217E+02 -0.31833607851E+03  0.21210686090E+02  0.34287843795E+03  0.12500051888E+03 0.  0.
          2    1    1    2  501    0 -0.96441001903E+02  0.31413693631E+03 -0.10403059837E+04  0.10909717785E+04  0.00000000000E+00 0. -1.
          1    1    1    2  502    0  0.10879986112E+03  0.41991422056E+01  0.16403597826E+03  0.19688281981E+03  0.00000000000E+00 0. -1.
         22    1    3    3    0    0 -0.31430284846E+02 -0.32011504746E+03  0.12662907699E+02  0.32190348809E+03  0.00000000000E+00 0. -1.
         22    1    3    3    0    0  0.19071425629E+02  0.17789689430E+01  0.85477783913E+01  0.20974949856E+02  0.00000000000E+00 0. -1.
</event>
<event>
 7    1  0.6253338E-006  0.1087086E+03  0.7818608E-02  0.1271185E+00
          2   -1    0    0  502    0  0.00000000000E+00  0.00000000000E+00  0.69696164910E+03  0.69696164910E+03  0.00000000000E+00 0. -1.
          1   -1    0    0  501    0 -0.00000000000E+00 -0.00000000000E+00 -0.16439376948E+03  0.16439376948E+03  0.00000000000E+00 0. -1.
         25    2    1    2    0    0 -0.20449575548E+02  0.75470902497E+02  0.88356718126E+02  0.17188871873E+03  0.12499911890E+03 0.  0.
          2    1    1    2  501    0 -0.92385065204E+02 -0.39257221134E+02 -0.94507170116E+02  0.13786854205E+03  0.00000000000E+00 0. -1.
          1    1    1    2  502    0  0.11283464075E+03 -0.36213681364E+02  0.53871833161E+03  0.55159815780E+03  0.00000000000E+00 0. -1.
         22    1    3    3    0    0 -0.51232300566E+02  0.20818817924E+02 -0.90468669037E+01  0.56035859963E+02  0.00000000000E+00 0. -1.
         22    1    3    3    0    0  0.30782725018E+02  0.54652084574E+02  0.97403585029E+02  0.11585285877E+03  0.00000000000E+00 0. -1.
</event>
<event>
 7    1  0.6253338E-006  0.3977453E+02  0.7818608E-02  0.1532509E+00
          2   -1    0    0  502    0  0.00000000000E+00  0.00000000000E+00  0.24375512923E+03  0.24375512923E+03  0.00000000000E+00 0. -1.
          1   -1    0    0  501    0 -0.00000000000E+00 -0.00000000000E+00 -0.14640162966E+03  0.14640162966E+03  0.00000000000E+00 0. -1.
         25    2    1    2    0    0  0.26772794388E+02 -0.56691387252E+02  0.13007901235E+03  0.19098096459E+03  0.12498993350E+03 0.  0.
          2    1    1    2  501    0 -0.32109331124E+02  0.22913346253E+02 -0.10882074460E+03  0.11574966539E+03  0.00000000000E+00 0. -1.
          1    1    1    2  502    0  0.53365367355E+01  0.33778040999E+02  0.76095231822E+02  0.83426128905E+02  0.00000000000E+00 0. -1.
         22    1    3    3    0    0 -0.44980290963E+02 -0.50105812737E+02  0.70453069169E+02  0.97454881871E+02  0.00000000000E+00 0.  1.
         22    1    3    3    0    0  0.71753085352E+02 -0.65855745151E+01  0.59625943180E+02  0.93526082722E+02  0.00000000000E+00 0.  1.
</event>
<event>
 7    1  0.6253338E-006  0.1594920E+03  0.7818608E-02  0.1380262E+00
          2   -1    0    0  502    0  0.00000000000E+00  0.00000000000E+00  0.22943472380E+03  0.22943472380E+03  0.00000000000E+00 0. -1.
          1   -1    0    0  501    0 -0.00000000000E+00 -0.00000000000E+00 -0.38240273603E+03  0.38240273603E+03  0.00000000000E+00 0. -1.
         25    2    1    2    0    0  0.13356117365E+03 -0.66437500869E+02 -0.14435075242E+03  0.24231082958E+03  0.12499947911E+03 0.  0.
          2    1    1    2  501    0 -0.88286960671E+00 -0.25984540196E+02 -0.15151957640E+03  0.15373404899E+03  0.00000000000E+00 0. -1.
          1    1    1    2  502    0 -0.13267830404E+03  0.92422041065E+02  0.14290231659E+03  0.21579258126E+03  0.00000000000E+00 0. -1.
         22    1    3    3    0    0 -0.19322655971E+01 -0.28715140974E+02 -0.84846455701E+02  0.89594720918E+02  0.00000000000E+00 0.  1.
         22    1    3    3    0    0  0.13549343925E+03 -0.37722359895E+02 -0.59504296717E+02  0.15271610866E+03  0.00000000000E+00 0.  1.
</event>
<event>
 7    1  0.6253338E-006  0.1092402E+03  0.7818608E-02  0.1418047E+00
          2   -1    0    0  502    0  0.00000000000E+00  0.00000000000E+00  0.41546047488E+03  0.41546047488E+03  0.00000000000E+00 0. -1.
          1   -1    0    0  501    0 -0.00000000000E+00 -0.00000000000E+00 -0.91937403645E+02  0.91937403645E+02  0.00000000000E+00 0. -1.
         25    2    1    2    0    0  0.63699078535E+01 -0.12930479076E+03  0.42321370985E+02  0.18486355139E+03  0.12499251798E+03 0.  0.
          2    1    1    2  501    0 -0.15931208614E+02  0.23186768209E+02  0.79342870969E+01  0.29229822778E+02  0.00000000000E+00 0. -1.
          1    1    1    2  502    0  0.95613007604E+01  0.10611802255E+03  0.27326741315E+03  0.29330450435E+03  0.00000000000E+00 0. -1.
         22    1    3    3    0    0 -0.43143178718E+02 -0.77832122631E+02  0.64693868648E+02  0.11002031550E+03  0.00000000000E+00 0. -1.
         22    1    3    3    0    0  0.49513086571E+02 -0.51472668132E+02 -0.22372497663E+02  0.74843235888E+02  0.00000000000E+00 0. -1.
</event>
<event>
 7    1  0.6253338E-006  0.5531005E+02  0.7818608E-02  0.1494662E+00
          2   -1    0    0  502    0  0.00000000000E+00  0.00000000000E+00  0.36292063266E+03  0.36292063266E+03  0.00000000000E+00 0. -1.
          1   -1    0    0  501    0 -0.00000000000E+00 -0.00000000000E+00 -0.71694568007E+03  0.71694568007E+03  0.00000000000E+00 0. -1.
         25    2    1    2    0    0 -0.38083843263E+02  0.17421583142E+02 -0.11664455158E+03  0.17602828797E+03  0.12500446422E+03 0.  0.
          2    1    1    2  501    0  0.29413969133E+02 -0.47959263347E+02 -0.56846142926E+03  0.57123871461E+03  0.00000000000E+00 0. -1.
          1    1    1    2  502    0  0.86698741297E+01  0.30537680205E+02  0.33108093343E+03  0.33259931015E+03  0.00000000000E+00 0. -1.
         22    1    3    3    0    0 -0.16716554804E+02 -0.26354126483E+02  0.15749234419E+02  0.34957425134E+02  0.00000000000E+00 0. -1.
         22    1    3    3    0    0 -0.21367288459E+02  0.43775709625E+02 -0.13239378600E+03  0.14107086283E+03  0.00000000000E+00 0. -1.
</event>
<event>
 7    1  0.6253338E-006  0.1429684E+03  0.7818608E-02  0.1334584E+00
          2   -1    0    0  502    0  0.00000000000E+00  0.00000000000E+00  0.12235606817E+04  0.12235606817E+04  0.00000000000E+00 0. -1.
          1   -1    0    0  501    0 -0.00000000000E+00 -0.00000000000E+00 -0.15976136680E+04  0.15976136680E+04  0.00000000000E+00 0. -1.
         25    2    1    2    0    0  0.25752002320E+02  0.10958939263E+03  0.92503469984E+03  0.94020624005E+03  0.12500230926E+03 0.  0.
          2    1    1    2  501    0  0.64432454320E+00 -0.14308265386E+03 -0.15852255553E+04  0.15916699162E+04  0.00000000000E+00 0. -1.
          1    1    1    2  502    0 -0.26396326863E+02  0.33493261233E+02  0.28613786911E+03  0.28929819349E+03  0.00000000000E+00 0. -1.
         22    1    3    3    0    0 -0.42194070879E+02  0.85485797937E+02  0.48088638167E+03  0.49024470761E+03  0.00000000000E+00 0. -1.
         22    1    3    3    0    0  0.67946073199E+02  0.24103594694E+02  0.44414831817E+03  0.44996153244E+03  0.00000000000E+00 0. -1.
</event>
<event>
 7    1  0.6253338E-006  0.8354622E+02  0.7818608E-02  0.1385591E+00
          2   -1    0    0  502    0  0.00000000000E+00  0.00000000000E+00  0.75749867293E+03  0.75749867293E+03  0.00000000000E+00 0. -1.
          1   -1    0    0  501    0 -0.00000000000E+00 -0.00000000000E+00 -0.89542966141E+03  0.89542966141E+03  0.00000000000E+00 0. -1.
         25    2    1    2    0    0 -0.98165641922E+01  0.12698865586E+03 -0.72738346288E+02  0.19271365883E+03  0.12500081451E+03 0.  0.
          2    1    1    2  501    0 -0.49992782625E+01 -0.81824994941E+02 -0.75968618622E+03  0.76409647566E+03  0.00000000000E+00 0. -1.
          1    1    1    2  502    0  0.14815842455E+02 -0.45163660915E+02  0.69449354403E+03  0.69611819985E+03  0.00000000000E+00 0. -1.
         22    1    3    3    0    0  0.31137669320E+02  0.12376209383E+03 -0.80526147831E+02  0.15090086416E+03  0.00000000000E+00 0. -1.
         22    1    3    3    0    0 -0.40954233512E+02  0.32265620276E+01  0.77878015424E+01  0.41812794668E+02  0.00000000000E+00 0. -1.
</event>
<event>
 7    1  0.6253338E-006  0.8762820E+02  0.7818608E-02  0.1328362E+00
          2   -1    0    0  502    0  0.00000000000E+00  0.00000000000E+00  0.26743012303E+02  0.26743012303E+02  0.00000000000E+00 0. -1.
          1   -1    0    0  501    0 -0.00000000000E+00 -0.00000000000E+00 -0.10402254516E+04  0.10402254516E+04  0.00000000000E+00 0. -1.
         25    2    1    2    0    0 -0.14991234419E+02  0.85496345844E+01 -0.43334795187E+03  0.45134618795E+03  0.12500040249E+03 0.  0.
          2    1    1    2  501    0 -0.14495979456E+02  0.86420872284E+02 -0.40362708631E+03  0.41302969069E+03  0.00000000000E+00 0. -1.
          1    1    1    2  502    0  0.29487213876E+02 -0.94970506869E+02 -0.17650740112E+03  0.20259258527E+03  0.00000000000E+00 0. -1.
         22    1    3    3    0    0  0.49489903917E+02  0.19917167938E+02 -0.27267391942E+03  0.27784350002E+03  0.00000000000E+00 0.  1.
         22    1    3    3    0    0 -0.64481138337E+02 -0.11367533353E+02 -0.16067403245E+03  0.17350268793E+03  0.00000000000E+00 0.  1.
</event>
<event>
 7    1  0.6253338E-006  0.1306494E+03  0.7818608E-02  0.1251583E+00
          2   -1    0    0  502    0  0.00000000000E+00  0.00000000000E+00  0.25941103401E+03  0.25941103401E+03  0.00000000000E+00 0. -1.
          1   -1    0    0  501    0 -0.00000000000E+00 -0.00000000000E+00 -0.55149263046E+03  0.55149263046E+03  0.00000000000E+00 0. -1.
         25    2    1    2    0    0 -0.32390994597E+02  0.14986988633E+03  0.40516248200E+02  0.20192638148E+03  0.12499015085E+03 0.  0.
          2    1    1    2  501    0 -0.72851390260E+02 -0.70276753955E+02 -0.43204723988E+03  0.44374650950E+03  0.00000000000E+00 0. -1.
          1    1    1    2  502    0  0.10524238486E+03 -0.79593132379E+02  0.99449395237E+02  0.16523077348E+03  0.00000000000E+00 0. -1.
         22    1    3    3    0    0 -0.42960200129E+02  0.38411781188E+02 -0.34493971851E+02  0.67163068894E+02  0.00000000000E+00 0.  1.
         22    1    3    3    0    0  0.10569205533E+02  0.11145810515E+03  0.75010220051E+02  0.13476331259E+03  0.00000000000E+00 0.  1.
</event>
